INSANE! Membrane UpperLeaflet>loPI:POPI:DPPI:PYPI:ERGO=140.0:15.0:9.0:6.0:30.0 LowerLeaflet>loPI:POPI:DPPI:PYPI:ERGO=140.0:15.0:9.0:6.0:30.0
48854
    1loPI    C1    1   4.625   7.544  10.266  0.2310  0.0783 -0.0821
    1loPI    C2    2   4.991   7.399  10.335  0.1661 -0.1512 -0.2090
    1loPI    C3    3   4.673   7.231  10.511  0.1008 -0.0898 -0.2682
    1loPI   PO4    4   4.584   7.621   9.975 -0.2855 -0.0323 -0.0494
    1loPI   GL1    5   4.520   7.463   9.630 -0.1688  0.2047 -0.1451
    1loPI   GL2    6   4.150   7.448   9.571  0.1296 -0.1466  0.2401
    1loPI   C1A    7   4.434   7.584   9.215  0.0591  0.1184 -0.1441
    1loPI   C2A    8   4.372   7.733   8.718  0.1556  0.0533  0.2083
    1loPI   C3A    9   4.172   7.760   8.390 -0.2167  0.2022 -0.0460
    1loPI   C4A   10   4.055   7.890   7.989 -0.1693  0.1770 -0.4197
    1loPI   C5A   11   3.815   8.077   7.778 -0.0252 -0.2831 -0.1363
    1loPI   C6A   12   3.592   8.373   7.531  0.3725 -0.1669 -0.1268
    1loPI   C1B   13   3.910   7.432   9.236  0.0387  0.2559  0.0621
    1loPI   C2B   14   3.888   7.501   8.768  0.1216  0.0096 -0.2229
    1loPI   C3B   15   3.747   7.537   8.395 -0.0965  0.0408 -0.4214
    1loPI   C4B   16   3.572   7.738   8.019 -0.0273  0.0670  0.0650
    2loPI    C1   17  13.802   7.630  10.072  0.1875 -0.1709  0.0688
    2loPI    C2   18  13.426   7.619   9.935  0.2041 -0.3172  0.0325
    2loPI    C3   19  13.524   7.420  10.268  0.1952 -0.0768  0.1814
    2loPI   PO4   20  13.982   7.607   9.847 -0.1330  0.0456  0.0741
    2loPI   GL1   21  14.072   7.511   9.403  0.0622 -0.1832 -0.0826
    2loPI   GL2   22  13.716   7.728   9.390  0.0308 -0.0401  0.1395
    2loPI   C1A   23  14.152   7.476   9.016  0.0489 -0.0152  0.1137
    2loPI   C2A   24  14.237   7.424   8.531  0.0774 -0.1513 -0.2102
    2loPI   C3A   25  14.149   7.508   8.103  0.1330 -0.1067 -0.2366
    2loPI   C4A   26  14.162   7.450   7.706  0.0435  0.0266 -0.3228
    2loPI   C5A   27  13.864   7.427   7.233  0.0810  0.1159 -0.2210
    2loPI   C6A   28  14.087   7.400   6.775 -0.1230 -0.0644 -0.0786
    2loPI   C1B   29  13.723   7.706   8.925 -0.2340  0.0664  0.0315
    2loPI   C2B   30  13.849   7.857   8.460  0.0782 -0.0097  0.1044
    2loPI   C3B   31  13.845   7.886   8.104 -0.2783 -0.5116 -0.0951
    2loPI   C4B   32  13.657   8.148   7.844  0.2454 -0.0654  0.0833
    3loPI    C1   33  13.021   3.825  10.229  0.0264 -0.1474 -0.0857
    3loPI    C2   34  12.966   3.525  10.488  0.1975 -0.0037  0.1209
    3loPI    C3   35  12.917   3.904  10.607  0.1825  0.0602 -0.0841
    3loPI   PO4   36  12.900   3.701   9.992  0.0877  0.0727 -0.0953
    3loPI   GL1   37  12.844   3.667   9.528  0.1293 -0.0210 -0.1365
    3loPI   GL2   38  13.058   3.889   9.573  0.2653  0.2964 -0.0716
    3loPI   C1A   39  12.681   3.856   9.173 -0.0998 -0.1380  0.2051
    3loPI   C2A   40  12.680   4.012   8.714  0.1759  0.1111 -0.0203
    3loPI   C3A   41  12.769   4.063   8.370 -0.2019 -0.3129  0.3256
    3loPI   C4A   42  12.900   4.091   7.952  0.0701 -0.1645 -0.4289
    3loPI   C5A   43  12.866   4.248   7.552  0.0518  0.2149  0.3079
    3loPI   C6A   44  12.707   3.845   7.295 -0.1706 -0.1996 -0.1759
    3loPI   C1B   45  13.229   3.996   9.193 -0.3454 -0.2795  0.0963
    3loPI   C2B   46  13.222   3.825   8.777  0.3177 -0.0266 -0.0649
    3loPI   C3B   47  13.325   3.905   8.392 -0.3517  0.0907  0.3900
    3loPI   C4B   48  13.377   3.820   8.014  0.0751 -0.0077  0.0630
    4loPI    C1   49  12.440  16.117   9.795 -0.1553  0.0386 -0.1053
    4loPI    C2   50  12.472  15.798  10.034  0.1258  0.1411 -0.0025
    4loPI    C3   51  12.601  15.778   9.656 -0.2445  0.0045 -0.1261
    4loPI   PO4   52  12.217  16.209   9.711 -0.1402  0.1014 -0.0670
    4loPI   GL1   53  11.968  16.163   9.319  0.2817 -0.1194 -0.0254
    4loPI   GL2   54  11.750  16.127   9.206  0.0217 -0.2660 -0.2454
    4loPI   C1A   55  12.053  15.932   8.852 -0.2072  0.4588  0.2217
    4loPI   C2A   56  12.300  15.941   8.412  0.1544  0.2719 -0.4244
    4loPI   C3A   57  12.216  16.281   8.255 -0.1216  0.0107 -0.2064
    4loPI   C4A   58  11.928  16.475   7.976 -0.1680  0.0386  0.4450
    4loPI   C5A   59  12.080  16.754   7.647 -0.2683  0.1904 -0.3913
    4loPI   C6A   60  12.413  16.859   7.484 -0.0551 -0.1462 -0.2608
    4loPI   C1B   61  11.553  15.937   8.872  0.1102  0.1473  0.1235
    4loPI   C2B   62  11.360  15.868   8.568 -0.1473 -0.1632 -0.0538
    4loPI   C3B   63  11.398  15.673   8.166 -0.2521 -0.0905 -0.0797
    4loPI   C4B   64  11.257  15.710   7.789 -0.1065 -0.0741  0.1460
    5loPI    C1   65  15.899  17.672  10.121 -0.2420 -0.1331  0.0044
    5loPI    C2   66  16.045  17.481  10.440 -0.0705 -0.1089 -0.0590
    5loPI    C3   67  15.655  17.460  10.357 -0.1173 -0.1102  0.1557
    5loPI   PO4   68  16.133  17.568   9.888  0.0754 -0.4994  0.2885
    5loPI   GL1   69  16.073  17.781   9.472 -0.1513 -0.0601  0.0423
    5loPI   GL2   70  16.374  18.008   9.363 -0.3424  0.2149  0.0945
    5loPI   C1A   71  15.743  17.659   9.118 -0.3000 -0.0067  0.2908
    5loPI   C2A   72  15.304  17.531   8.897  0.0822 -0.0538 -0.1459
    5loPI   C3A   73  15.299  17.510   8.474 -0.0329 -0.2695  0.0151
    5loPI   C4A   74  15.469  17.489   8.064  0.1534  0.2362  0.2980
    5loPI   C5A   75  15.773  17.095   7.852 -0.0849 -0.2210 -0.2779
    5loPI   C6A   76  15.983  16.871   7.574 -0.2172  0.2270  0.0177
    5loPI   C1B   77  16.499  18.034   8.923 -0.1539  0.2966  0.1411
    5loPI   C2B   78  16.254  18.196   8.501 -0.1505  0.0371 -0.1461
    5loPI   C3B   79  16.154  18.184   7.934  0.2395 -0.0006  0.0167
    5loPI   C4B   80  16.191  17.905   7.585  0.0009 -0.2548 -0.0187
    6loPI    C1   81  12.344  10.437  10.267  0.3115 -0.1251  0.1511
    6loPI    C2   82  12.342  10.579  10.641 -0.0078  0.0046  0.1036
    6loPI    C3   83  12.265  10.192  10.573 -0.0748  0.0073  0.1632
    6loPI   PO4   84  12.140  10.601  10.130 -0.2621 -0.2930 -0.0394
    6loPI   GL1   85  12.313  10.765   9.752 -0.1546  0.0568 -0.2401
    6loPI   GL2   86  11.987  10.654   9.675  0.3292  0.2101 -0.0379
    6loPI   C1A   87  12.381  10.381   9.393  0.0613 -0.1997 -0.2386
    6loPI   C2A   88  12.482  10.199   8.940 -0.1608 -0.0218  0.0796
    6loPI   C3A   89  12.475  10.031   8.503  0.0299  0.0291 -0.0206
    6loPI   C4A   90  12.244   9.780   8.241 -0.2013  0.1061 -0.2536
    6loPI   C5A   91  12.018   9.551   7.866 -0.2372  0.2454 -0.2578
    6loPI   C6A   92  11.955   9.643   7.513  0.0909 -0.5103  0.1703
    6loPI   C1B   93  12.019  10.725   9.359  0.1619 -0.1630  0.2595
    6loPI   C2B   94  12.116  10.558   8.996  0.4135 -0.0349  0.0313
    6loPI   C3B   95  12.023  10.410   8.548 -0.0157 -0.2532 -0.2603
    6loPI   C4B   96  12.016  10.601   8.187 -0.1037 -0.2153 -0.0019
    7loPI    C1   97  18.315   1.370  10.161 -0.0437  0.1352  0.1770
    7loPI    C2   98  18.017   1.161  10.327 -0.0645  0.0206 -0.0016
    7loPI    C3   99  18.373   0.989  10.268 -0.0574  0.0601 -0.0747
    7loPI   PO4  100  18.206   1.394   9.867 -0.2552 -0.2030  0.2454
    7loPI   GL1  101  17.986   1.394   9.464 -0.0214 -0.3873  0.0753
    7loPI   GL2  102  17.903   1.757   9.385 -0.1560  0.1182 -0.1295
    7loPI   C1A  103  18.084   1.505   9.024 -0.0015  0.2343 -0.1160
    7loPI   C2A  104  18.500   1.532   8.814  0.3450 -0.2072  0.2530
    7loPI   C3A  105  18.370   1.831   8.503  0.0504 -0.3481 -0.2704
    7loPI   C4A  106  18.410   2.171   8.212  0.0062 -0.1084 -0.2368
    7loPI   C5A  107  18.244   2.503   7.836 -0.1726 -0.1942 -0.0009
    7loPI   C6A  108  18.490   2.697   7.568  0.2038  0.0950 -0.0380
    7loPI   C1B  109  17.917   1.967   8.943  0.4263  0.1171  0.0259
    7loPI   C2B  110  17.954   2.333   8.808 -0.0016 -0.2573 -0.1678
    7loPI   C3B  111  18.220   2.632   9.129  0.0606  0.0571 -0.3426
    7loPI   C4B  112  18.550   2.632   9.424 -0.0940  0.1868 -0.0584
    8loPI    C1  113   2.169   4.610  10.285 -0.1333  0.1872  0.0346
    8loPI    C2  114   1.913   4.570  10.589  0.0814 -0.1699  0.1747
    8loPI    C3  115   2.266   4.748  10.647 -0.0373  0.1172  0.0360
    8loPI   PO4  116   2.013   4.533  10.065 -0.1195 -0.2227  0.0954
    8loPI   GL1  117   2.111   4.148   9.749 -0.0450 -0.0138  0.1372
    8loPI   GL2  118   2.407   4.051   9.636 -0.0586  0.1473 -0.3195
    8loPI   C1A  119   2.000   4.127   9.295  0.1253  0.1975 -0.3433
    8loPI   C2A  120   1.994   4.198   8.891 -0.3010 -0.0411 -0.0237
    8loPI   C3A  121   2.062   4.226   8.510 -0.1192 -0.2422  0.3650
    8loPI   C4A  122   1.980   4.063   8.151 -0.1445 -0.1233  0.0257
    8loPI   C5A  123   1.850   4.004   7.778  0.0741  0.1906  0.1761
    8loPI   C6A  124   1.531   3.694   7.661 -0.1680 -0.1735 -0.2890
    8loPI   C1B  125   2.504   3.940   9.163  0.2325 -0.2043  0.0968
    8loPI   C2B  126   2.384   3.780   8.774 -0.1989 -0.2615  0.1872
    8loPI   C3B  127   2.452   3.795   8.317 -0.2997  0.1050  0.2149
    8loPI   C4B  128   2.410   3.983   7.883  0.1662 -0.1368  0.1136
    9loPI    C1  129   5.656  14.766  10.180  0.0285  0.0633  0.0227
    9loPI    C2  130   5.622  14.535   9.856 -0.0457 -0.0650  0.1215
    9loPI    C3  131   5.870  14.429  10.151 -0.1180 -0.0453  0.1895
    9loPI   PO4  132   5.603  14.984  10.058  0.0254  0.0475  0.1522
    9loPI   GL1  133   5.588  14.988   9.600  0.3359 -0.0644 -0.0242
    9loPI   GL2  134   5.591  15.136   9.321 -0.2921 -0.1944 -0.1765
    9loPI   C1A  135   5.301  14.690   9.433  0.0971 -0.2719 -0.1285
    9loPI   C2A  136   5.058  14.606   9.000 -0.2740  0.1842 -0.2019
    9loPI   C3A  137   5.015  14.613   8.644 -0.0592 -0.2185 -0.1272
    9loPI   C4A  138   5.011  14.697   8.135  0.1131 -0.2361 -0.2724
    9loPI   C5A  139   4.848  14.503   7.686  0.1382 -0.1782 -0.0388
    9loPI   C6A  140   4.605  14.715   7.368  0.0478 -0.2002 -0.1973
    9loPI   C1B  141   5.954  14.885   9.210 -0.0817  0.0235 -0.3425
    9loPI   C2B  142   6.061  14.719   8.836 -0.2535  0.1767 -0.3491
    9loPI   C3B  143   5.802  14.519   8.527  0.3039  0.0818  0.1690
    9loPI   C4B  144   5.854  14.166   8.154  0.1019  0.1237 -0.0096
   10loPI    C1  145  17.125   0.367  10.147 -0.1467 -0.0239  0.0469
   10loPI    C2  146  16.906   0.518  10.446 -0.1009  0.1653 -0.0136
   10loPI    C3  147  17.291   0.621  10.408 -0.0128 -0.1265  0.0629
   10loPI   PO4  148  16.931   0.389   9.921 -0.0630  0.2380 -0.2956
   10loPI   GL1  149  16.699   0.507   9.498  0.1748 -0.2571  0.0424
   10loPI   GL2  150  16.486   0.506   9.344  0.0863 -0.1952  0.0286
   10loPI   C1A  151  16.954   0.461   9.118  0.1357 -0.1301  0.0139
   10loPI   C2A  152  17.098   0.436   8.708  0.4505 -0.2064  0.0131
   10loPI   C3A  153  17.215   0.387   8.324  0.0923  0.1998 -0.2315
   10loPI   C4A  154  17.103   0.637   7.940 -0.2287 -0.1985  0.1378
   10loPI   C5A  155  16.743   0.866   7.621 -0.1660  0.1149  0.0378
   10loPI   C6A  156  16.622   1.209   7.372 -0.1138 -0.5807  0.1299
   10loPI   C1B  157  16.343   0.433   8.928  0.1932 -0.1965  0.0849
   10loPI   C2B  158  16.288   0.309   8.414  0.2371 -0.0038  0.1071
   10loPI   C3B  159  16.127   0.134   8.175 -0.0675 -0.0357 -0.1033
   10loPI   C4B  160  16.093   0.111   7.794  0.1644 -0.0092  0.1656
   11loPI    C1  161  18.639  18.438   9.871  0.1372  0.0886  0.1312
   11loPI    C2  162  18.445  18.754   9.722  0.0054 -0.0919 -0.0862
   11loPI    C3  163  18.655  18.790  10.061  0.0510  0.2448 -0.1464
   11loPI   PO4  164  18.814  18.388   9.705  0.3337  0.0383 -0.0055
   11loPI   GL1  165  19.034  18.594   9.381 -0.1057 -0.2241  0.0964
   11loPI   GL2  166  18.939  18.884   9.560 -0.0083  0.0148  0.1304
   11loPI   C1A  167  18.866  18.891   9.004 -0.3704  0.1466  0.1533
   11loPI   C2A  168  18.912  18.931   8.543 -0.0156 -0.0510 -0.0255
   11loPI   C3A  169  18.872  18.790   8.167 -0.4190  0.0063 -0.0881
   11loPI   C4A  170  19.048  18.730   7.756 -0.4869 -0.0438  0.1903
   11loPI   C5A  171  19.058  18.533   7.366  0.2000 -0.4524 -0.2466
   11loPI   C6A  172  19.246  18.333   7.033  0.0898 -0.2385 -0.1102
   11loPI   C1B  173  18.711  19.239   9.460  0.0407 -0.0323  0.2909
   11loPI   C2B  174  18.640  19.353   9.013 -0.0505 -0.2598  0.0565
   11loPI   C3B  175  18.592  19.300   8.549  0.2667 -0.0208 -0.0719
   11loPI   C4B  176  18.604  19.200   7.997  0.2364  0.1618 -0.1031
   12loPI    C1  177   2.887   2.705  10.231  0.1363 -0.3147  0.0275
   12loPI    C2  178   2.701   2.462  10.488 -0.0340  0.0185  0.2259
   12loPI    C3  179   2.601   2.849  10.471  0.3028  0.0991 -0.0137
   12loPI   PO4  180   2.891   2.599   9.990 -0.3107 -0.0455  0.1142
   12loPI   GL1  181   2.763   2.902   9.647  0.0438  0.1377  0.0327
   12loPI   GL2  182   2.917   2.742   9.503  0.1349 -0.2234  0.0974
   12loPI   C1A  183   2.806   3.064   9.145 -0.0416 -0.4305  0.3686
   12loPI   C2A  184   2.646   3.083   8.688 -0.1179 -0.0501 -0.0302
   12loPI   C3A  185   2.588   3.281   8.313 -0.2294 -0.1818  0.1152
   12loPI   C4A  186   2.769   3.079   8.096 -0.1316  0.0516 -0.4272
   12loPI   C5A  187   2.871   2.820   7.739 -0.1920 -0.0497  0.0319
   12loPI   C6A  188   3.025   2.397   7.757  0.1562 -0.0137  0.1508
   12loPI   C1B  189   2.656   2.511   9.296  0.1795 -0.1778  0.1728
   12loPI   C2B  190   2.600   2.538   8.942 -0.0129 -0.4615  0.1040
   12loPI   C3B  191   2.665   2.515   8.555  0.0528 -0.0764 -0.0869
   12loPI   C4B  192   2.566   2.564   8.033 -0.1927 -0.0839  0.1452
   13loPI    C1  193   1.342   9.597  10.111  0.0784 -0.3695  0.0425
   13loPI    C2  194   1.302   9.342   9.805 -0.1148 -0.4205  0.1088
   13loPI    C3  195   0.988   9.556   9.929 -0.0194 -0.3469  0.2255
   13loPI   PO4  196   1.575   9.768  10.094  0.1862  0.4305  0.0445
   13loPI   GL1  197   1.763   9.753   9.659 -0.1031 -0.2786 -0.2151
   13loPI   GL2  198   1.805   9.395   9.741 -0.2796  0.2546  0.0376
   13loPI   C1A  199   1.435   9.492   9.375 -0.2841 -0.2852  0.0197
   13loPI   C2A  200   1.201   9.530   8.946 -0.0313  0.1631 -0.0406
   13loPI   C3A  201   1.060   9.537   8.483  0.1595 -0.2262  0.0775
   13loPI   C4A  202   1.107   9.447   8.139  0.0321  0.3482  0.1417
   13loPI   C5A  203   1.213   9.664   7.775 -0.0634  0.0494 -0.0853
   13loPI   C6A  204   1.493   9.670   7.458  0.0454 -0.1995 -0.0790
   13loPI   C1B  205   1.920   9.454   9.339  0.0687  0.1064 -0.2123
   13loPI   C2B  206   1.820   9.504   8.912  0.0960  0.0187 -0.1471
   13loPI   C3B  207   2.061   9.792   8.654 -0.0039 -0.1422 -0.1506
   13loPI   C4B  208   2.221   9.835   8.227 -0.2474 -0.3956  0.3161
   14loPI    C1  209  10.973   2.558   9.962 -0.0627 -0.3874  0.0417
   14loPI    C2  210  11.297   2.785   9.907 -0.2570 -0.0900  0.1002
   14loPI    C3  211  11.300   2.497  10.184 -0.0325 -0.1119  0.0769
   14loPI   PO4  212  10.906   2.529   9.598 -0.0515  0.1260 -0.0808
   14loPI   GL1  213  10.594   2.544   9.312  0.0635 -0.1937  0.2319
   14loPI   GL2  214  10.477   2.901   9.237  0.1387  0.1209 -0.0711
   14loPI   C1A  215  10.648   2.458   8.973  0.3707  0.1244 -0.0161
   14loPI   C2A  216  10.758   2.481   8.617  0.0157  0.0874  0.2514
   14loPI   C3A  217  10.617   2.276   8.169 -0.0660  0.2097  0.1458
   14loPI   C4A  218  10.530   2.448   7.795  0.1873  0.1378  0.0072
   14loPI   C5A  219  10.150   2.645   7.668  0.1980  0.1612 -0.0593
   14loPI   C6A  220   9.897   2.940   7.930 -0.1597  0.0783 -0.1033
   14loPI   C1B  221  10.840   2.941   8.907 -0.0376  0.0988  0.0042
   14loPI   C2B  222  10.989   3.118   8.462  0.0759  0.2781  0.1595
   14loPI   C3B  223  11.113   3.240   8.078  0.0074  0.2703 -0.0748
   14loPI   C4B  224  10.939   3.250   7.655  0.0517 -0.0063  0.2420
   15loPI    C1  225  15.051  13.366   9.843  0.1441  0.0317  0.1447
   15loPI    C2  226  14.913  13.674   9.629  0.3101  0.0669  0.0869
   15loPI    C3  227  14.860  13.666  10.025 -0.0614 -0.0329  0.0390
   15loPI   PO4  228  15.017  13.199   9.657  0.0409 -0.0416 -0.1407
   15loPI   GL1  229  14.923  13.191   9.365 -0.0040  0.1473  0.3642
   15loPI   GL2  230  14.996  13.366   9.160  0.0846 -0.1269 -0.0999
   15loPI   C1A  231  15.006  12.774   9.081 -0.3150 -0.4867 -0.0862
   15loPI   C2A  232  15.149  12.515   8.720  0.0899  0.1063 -0.0287
   15loPI   C3A  233  15.252  12.449   8.265  0.3695  0.1189 -0.3068
   15loPI   C4A  234  15.368  12.370   7.794  0.2103 -0.1151  0.0238
   15loPI   C5A  235  15.130  12.120   7.627 -0.2142  0.1160 -0.0608
   15loPI   C6A  236  14.774  12.043   7.421 -0.3232 -0.1694  0.1810
   15loPI   C1B  237  14.926  13.166   8.780  0.2364 -0.3528  0.3302
   15loPI   C2B  238  15.114  12.976   8.393 -0.0572  0.0481  0.0091
   15loPI   C3B  239  14.842  12.656   8.090 -0.0815  0.3624  0.1346
   15loPI   C4B  240  14.870  12.237   8.006 -0.1611 -0.1058  0.0454
   16loPI    C1  241   8.434  18.610  10.188 -0.0548 -0.0566 -0.0595
   16loPI    C2  242   8.644  18.590   9.848  0.0302 -0.0292 -0.0087
   16loPI    C3  243   8.822  18.516  10.198 -0.0007  0.1727  0.0509
   16loPI   PO4  244   8.281  18.390  10.094 -0.2151 -0.4554  0.1448
   16loPI   GL1  245   7.992  18.401   9.876 -0.1563 -0.2193 -0.1870
   16loPI   GL2  246   8.013  18.019   9.920  0.0087 -0.4078 -0.0168
   16loPI   C1A  247   8.192  18.411   9.461 -0.0293  0.2575 -0.1965
   16loPI   C2A  248   8.211  18.374   8.981  0.2219  0.0486  0.2350
   16loPI   C3A  249   8.286  18.779   8.861 -0.1902  0.0820 -0.1293
   16loPI   C4A  250   8.165  18.936   8.465  0.0659  0.1080  0.0831
   16loPI   C5A  251   8.228  19.132   8.028 -0.1761 -0.1196  0.0396
   16loPI   C6A  252   8.130  19.250   7.659  0.1829 -0.0886  0.5414
   16loPI   C1B  253   8.124  17.905   9.446  0.1224  0.0797  0.0300
   16loPI   C2B  254   7.995  17.920   9.054  0.2248  0.1863  0.4853
   16loPI   C3B  255   7.910  18.051   8.688  0.1696 -0.0666 -0.0753
   16loPI   C4B  256   7.878  18.116   8.278  0.2500  0.1697 -0.1725
   17loPI    C1  257   0.500   9.752  10.253 -0.4218  0.0458 -0.1052
   17loPI    C2  258   0.308   9.940  10.548 -0.2444  0.1254 -0.0395
   17loPI    C3  259   0.500   9.598  10.622 -0.1455  0.1788 -0.0473
   17loPI   PO4  260   0.619   9.894  10.039  0.2429  0.2200  0.4655
   17loPI   GL1  261   0.945  10.031   9.731  0.0824 -0.1018 -0.1540
   17loPI   GL2  262   1.286  10.074   9.778 -0.0618  0.0090  0.1489
   17loPI   C1A  263   0.797   9.997   9.193 -0.3922 -0.1630  0.1057
   17loPI   C2A  264   0.700   9.885   8.802 -0.1117  0.1355 -0.1376
   17loPI   C3A  265   0.643   9.824   8.416 -0.2892  0.5489  0.5087
   17loPI   C4A  266   0.595   9.790   7.964 -0.3030  0.0224  0.1256
   17loPI   C5A  267   0.800   9.765   7.513 -0.1152 -0.1153  0.1655
   17loPI   C6A  268   1.036   9.876   7.207  0.2189  0.0669 -0.0290
   17loPI   C1B  269   1.240   9.942   9.368  0.0353  0.1915  0.2199
   17loPI   C2B  270   1.541   9.865   9.118 -0.2739  0.0527 -0.2605
   17loPI   C3B  271   1.575   9.864   8.660  0.3346 -0.1976 -0.2335
   17loPI   C4B  272   1.775  10.081   8.356  0.0189  0.0470  0.2006
   18loPI    C1  273   0.200   5.856  10.228  0.2803  0.2601  0.0049
   18loPI    C2  274   0.066   5.994  10.578 -0.0619  0.1265 -0.0689
   18loPI    C3  275  -0.084   5.656  10.426  0.1042  0.1681 -0.3320
   18loPI   PO4  276   0.286   6.129  10.177  0.4028  0.0114 -0.3636
   18loPI   GL1  277   0.217   6.366   9.911  0.1176 -0.0281 -0.0196
   18loPI   GL2  278   0.104   6.020   9.736 -0.1342 -0.4530  0.1184
   18loPI   C1A  279   0.279   6.450   9.520  0.3058  0.0934 -0.1700
   18loPI   C2A  280   0.197   6.543   9.122  0.1779 -0.0925 -0.1981
   18loPI   C3A  281   0.095   6.620   8.763 -0.0946 -0.0808  0.0696
   18loPI   C4A  282   0.030   6.520   8.336 -0.0599 -0.0521  0.1125
   18loPI   C5A  283  -0.165   6.567   7.957  0.3663 -0.2252  0.1631
   18loPI   C6A  284  -0.463   6.551   7.675 -0.0651  0.0872  0.1844
   18loPI   C1B  285   0.203   6.043   9.241  0.1199 -0.0916  0.1579
   18loPI   C2B  286   0.396   6.172   8.824  0.1265 -0.0522 -0.0682
   18loPI   C3B  287   0.473   6.255   8.388  0.1226  0.2133 -0.1000
   18loPI   C4B  288   0.655   6.150   7.962  0.0600 -0.1334 -0.1265
   19loPI    C1  289   6.819  15.362  10.305  0.1013 -0.1563  0.2067
   19loPI    C2  290   6.451  15.312  10.452 -0.0047  0.1871  0.0678
   19loPI    C3  291   6.671  15.625  10.568  0.1702  0.0885  0.0051
   19loPI   PO4  292   6.813  15.352   9.993 -0.1629 -0.0832  0.1778
   19loPI   GL1  293   6.886  15.611   9.651  0.0616  0.3398 -0.2602
   19loPI   GL2  294   6.648  15.760   9.701 -0.0341  0.1070  0.1974
   19loPI   C1A  295   6.995  15.478   9.236  0.4388  0.0290 -0.1215
   19loPI   C2A  296   6.976  15.387   8.816 -0.2751  0.2701 -0.1267
   19loPI   C3A  297   6.699  15.395   8.399  0.0166  0.0862  0.1565
   19loPI   C4A  298   6.541  15.499   8.119 -0.0071 -0.2092  0.0084
   19loPI   C5A  299   6.438  15.796   7.929 -0.2116 -0.1145  0.1861
   19loPI   C6A  300   6.479  15.900   7.489  0.0587 -0.0688 -0.2495
   19loPI   C1B  301   6.486  15.733   9.264 -0.1951  0.1833 -0.0387
   19loPI   C2B  302   6.481  15.546   8.849  0.0101  0.3016  0.0709
   19loPI   C3B  303   6.230  15.551   8.537  0.0298 -0.1806  0.1140
   19loPI   C4B  304   6.052  15.467   8.109 -0.1326  0.3293  0.2716
   20loPI    C1  305  12.182  11.951  10.202 -0.0057  0.1243 -0.2066
   20loPI    C2  306  12.292  12.306  10.350  0.2894 -0.0807  0.0781
   20loPI    C3  307  12.153  12.021  10.594 -0.1115 -0.1068 -0.1716
   20loPI   PO4  308  12.123  11.981   9.930  0.0089 -0.2907  0.1133
   20loPI   GL1  309  12.247  11.864   9.602 -0.1396  0.0191 -0.0470
   20loPI   GL2  310  11.978  11.684   9.456 -0.0235 -0.0410 -0.0095
   20loPI   C1A  311  12.444  12.171   9.361  0.2038  0.2745  0.0498
   20loPI   C2A  312  12.392  12.316   8.997 -0.1054 -0.1466 -0.1658
   20loPI   C3A  313  12.147  12.478   8.705 -0.1654 -0.0119  0.1723
   20loPI   C4A  314  11.981  12.369   8.394  0.0740 -0.3149  0.0180
   20loPI   C5A  315  11.709  12.291   8.093  0.1402 -0.0867  0.1649
   20loPI   C6A  316  11.571  12.005   7.929  0.3688 -0.4960  0.0815
   20loPI   C1B  317  11.982  11.566   9.073  0.0895 -0.1614  0.0546
   20loPI   C2B  318  11.898  11.438   8.754 -0.0538  0.3071  0.2593
   20loPI   C3B  319  12.083  11.294   8.404  0.0885 -0.0806 -0.2744
   20loPI   C4B  320  12.299  11.065   8.207  0.0181  0.1615 -0.0957
   21loPI    C1  321   5.648  12.598  10.290  0.1013 -0.1023  0.1029
   21loPI    C2  322   5.290  12.605  10.467  0.0340 -0.0631 -0.0337
   21loPI    C3  323   5.536  12.296  10.527  0.0081 -0.0549  0.1194
   21loPI   PO4  324   5.616  12.783  10.152 -0.2081  0.3654 -0.1315
   21loPI   GL1  325   5.523  12.812   9.660  0.0404  0.0910  0.4592
   21loPI   GL2  326   5.741  12.549   9.693 -0.0972 -0.0164  0.0444
   21loPI   C1A  327   5.583  13.068   9.175  0.4445 -0.0058  0.0436
   21loPI   C2A  328   5.466  13.149   8.799  0.2020  0.0210  0.3151
   21loPI   C3A  329   5.454  13.158   8.325  0.2951 -0.1801  0.3716
   21loPI   C4A  330   5.108  13.382   8.132 -0.1626 -0.0704 -0.2213
   21loPI   C5A  331   4.761  13.111   8.160  0.4072 -0.0231 -0.1927
   21loPI   C6A  332   4.606  12.975   8.575 -0.3962 -0.1183 -0.2693
   21loPI   C1B  333   5.714  12.416   9.262 -0.1511 -0.1818 -0.1008
   21loPI   C2B  334   5.840  12.185   8.829 -0.0271  0.1270 -0.3888
   21loPI   C3B  335   5.798  12.159   8.408 -0.0410 -0.3673 -0.3495
   21loPI   C4B  336   5.780  11.932   8.059  0.1526  0.1518 -0.0193
   22loPI    C1  337  11.521   7.390  10.162  0.0786 -0.0529 -0.0617
   22loPI    C2  338  11.369   7.034  10.263 -0.0205 -0.0168 -0.0822
   22loPI    C3  339  11.529   7.270  10.544  0.0153 -0.0630 -0.0635
   22loPI   PO4  340  11.312   7.390   9.885  0.1677 -0.0638  0.0284
   22loPI   GL1  341  11.229   7.507   9.488 -0.0846  0.3279  0.0931
   22loPI   GL2  342  11.501   7.330   9.369 -0.0959 -0.2121 -0.0470
   22loPI   C1A  343  11.185   7.550   9.096  0.0302 -0.2116 -0.1303
   22loPI   C2A  344  11.212   7.627   8.636 -0.1524 -0.0430 -0.3273
   22loPI   C3A  345  10.944   7.510   8.319 -0.1033  0.0649 -0.0898
   22loPI   C4A  346  11.189   7.375   7.845  0.0701 -0.1200  0.0483
   22loPI   C5A  347  11.139   7.414   7.490  0.0233 -0.0932  0.0658
   22loPI   C6A  348  11.313   7.173   7.144  0.2519  0.4128 -0.0590
   22loPI   C1B  349  11.800   7.411   9.089  0.0947  0.1094 -0.2348
   22loPI   C2B  350  11.726   7.461   8.657  0.1555 -0.0092 -0.2997
   22loPI   C3B  351  11.929   7.476   8.297 -0.0914  0.0521  0.1434
   22loPI   C4B  352  12.092   7.766   8.091  0.0225 -0.3269  0.1385
   23loPI    C1  353   8.006  13.037  10.021 -0.0486  0.0843  0.0365
   23loPI    C2  354   7.676  13.007  10.245 -0.0962 -0.0363 -0.0488
   23loPI    C3  355   7.834  12.680  10.077  0.0424  0.0275 -0.0438
   23loPI   PO4  356   7.974  13.309   9.936 -0.2165 -0.1454 -0.0301
   23loPI   GL1  357   7.747  13.414   9.587  0.0643  0.0559  0.0410
   23loPI   GL2  358   7.944  13.082   9.474 -0.1556  0.2700  0.0536
   23loPI   C1A  359   7.870  13.668   9.368 -0.0705  0.0753 -0.3865
   23loPI   C2A  360   7.942  13.840   8.929  0.0340 -0.1888 -0.0414
   23loPI   C3A  361   7.801  13.858   8.582 -0.0775  0.1402 -0.2475
   23loPI   C4A  362   7.717  13.754   8.085  0.2723  0.2378 -0.1654
   23loPI   C5A  363   7.408  13.460   7.828  0.1117  0.3873 -0.2014
   23loPI   C6A  364   7.282  13.254   7.473  0.2804 -0.0285 -0.2861
   23loPI   C1B  365   7.724  13.124   9.062 -0.3833 -0.0175  0.2273
   23loPI   C2B  366   7.839  13.349   8.720  0.3530 -0.1448 -0.0993
   23loPI   C3B  367   7.790  13.273   8.287 -0.0019  0.3231 -0.1018
   23loPI   C4B  368   7.927  13.300   7.862  0.2831  0.0247  0.1720
   24loPI    C1  369   0.385  16.273   9.931  0.0807 -0.0104 -0.1358
   24loPI    C2  370   0.685  16.289   9.667  0.2447 -0.3611  0.0229
   24loPI    C3  371   0.531  15.936   9.774  0.0158 -0.2064  0.2147
   24loPI   PO4  372   0.228  16.554   9.764 -0.0642  0.1480  0.0276
   24loPI   GL1  373   0.309  16.911   9.459  0.2131  0.2092  0.0176
   24loPI   GL2  374   0.449  16.583   9.347 -0.2596  0.0725  0.0287
   24loPI   C1A  375   0.154  16.982   9.079 -0.3334  0.2627  0.0956
   24loPI   C2A  376  -0.093  17.213   8.745  0.1256 -0.0141  0.2596
   24loPI   C3A  377  -0.316  17.296   8.492 -0.2542  0.0260 -0.0627
   24loPI   C4A  378  -0.318  17.253   7.921 -0.3478 -0.2435  0.1607
   24loPI   C5A  379  -0.508  17.173   7.554 -0.1315 -0.0829 -0.0064
   24loPI   C6A  380  -0.900  17.474   7.363 -0.4105 -0.0270 -0.1620
   24loPI   C1B  381   0.220  16.490   9.034 -0.0432 -0.0783 -0.1465
   24loPI   C2B  382   0.095  16.615   8.651 -0.1143 -0.0447 -0.4154
   24loPI   C3B  383   0.207  16.411   8.272  0.1571  0.0145 -0.1217
   24loPI   C4B  384   0.172  16.348   7.796  0.1652  0.1223  0.3577
   25loPI    C1  385   4.691  14.520  10.183 -0.1048 -0.1306  0.0063
   25loPI    C2  386   4.462  14.258  10.380 -0.2212  0.0088  0.0586
   25loPI    C3  387   4.584  14.593  10.562 -0.1506  0.0356 -0.0377
   25loPI   PO4  388   4.892  14.372  10.159 -0.2286  0.2560  0.2172
   25loPI   GL1  389   5.185  14.165   9.906 -0.1060  0.4010  0.0874
   25loPI   GL2  390   5.088  13.852   9.758  0.2021  0.2017  0.0570
   25loPI   C1A  391   5.122  14.247   9.421 -0.0990 -0.1125 -0.1848
   25loPI   C2A  392   5.078  14.112   9.075 -0.4335  0.0011  0.2415
   25loPI   C3A  393   4.879  14.063   8.716  0.1061 -0.2121 -0.0237
   25loPI   C4A  394   4.787  13.713   8.405  0.0557 -0.1402  0.0916
   25loPI   C5A  395   4.731  13.658   7.976 -0.0887  0.0226  0.1075
   25loPI   C6A  396   5.052  13.813   7.673  0.0729 -0.0459  0.1328
   25loPI   C1B  397   5.256  13.744   9.304  0.1402 -0.0421 -0.2351
   25loPI   C2B  398   5.391  13.594   9.024 -0.0026  0.1544  0.1078
   25loPI   C3B  399   5.295  13.754   8.572  0.4082  0.4342  0.2307
   25loPI   C4B  400   5.557  13.763   8.171 -0.2922 -0.1424 -0.2739
   26loPI    C1  401   0.548   2.685  10.292 -0.1542  0.1687 -0.3219
   26loPI    C2  402   0.772   2.610   9.970  0.2080 -0.1012 -0.0158
   26loPI    C3  403   0.942   2.754  10.302 -0.1003 -0.1581  0.1699
   26loPI   PO4  404   0.311   2.701  10.083  0.0368  0.2323 -0.1912
   26loPI   GL1  405   0.134   2.588   9.705  0.2510  0.0665  0.0175
   26loPI   GL2  406   0.393   2.392   9.637 -0.0259 -0.3771 -0.0399
   26loPI   C1A  407   0.068   2.913   9.324 -0.0988  0.0396  0.2741
   26loPI   C2A  408   0.218   2.899   8.828 -0.0367  0.2879  0.3108
   26loPI   C3A  409   0.346   2.963   8.364  0.1146 -0.3193 -0.1294
   26loPI   C4A  410   0.305   3.001   7.956  0.0424 -0.0111  0.2544
   26loPI   C5A  411   0.434   3.278   7.605 -0.0114  0.0777 -0.0842
   26loPI   C6A  412   0.155   3.497   7.311  0.0131  0.0025  0.2495
   26loPI   C1B  413   0.455   2.644   9.213 -0.0564 -0.1434  0.1320
   26loPI   C2B  414   0.734   2.987   9.120  0.1036  0.6543 -0.1128
   26loPI   C3B  415   0.482   3.340   8.993 -0.0328 -0.3422  0.2221
   26loPI   C4B  416   0.295   3.422   8.606 -0.1638 -0.6248 -0.0925
   27loPI    C1  417   4.383  16.567   9.958  0.3330  0.0057 -0.1574
   27loPI    C2  418   4.265  16.370  10.285  0.1217  0.2338 -0.0936
   27loPI    C3  419   4.600  16.588  10.293  0.1859  0.1350 -0.0692
   27loPI   PO4  420   4.394  16.433   9.797  0.1426  0.1184 -0.3809
   27loPI   GL1  421   4.544  16.220   9.457 -0.2786  0.0043 -0.1906
   27loPI   GL2  422   4.453  16.461   9.263  0.0127 -0.4244  0.2543
   27loPI   C1A  423   4.324  15.958   9.335  0.0524 -0.0652 -0.1401
   27loPI   C2A  424   4.430  15.764   9.030  0.2002 -0.0488  0.1462
   27loPI   C3A  425   4.379  15.732   8.644  0.2610 -0.3333 -0.0787
   27loPI   C4A  426   4.347  15.947   8.371  0.2772  0.0892 -0.0549
   27loPI   C5A  427   4.193  16.159   8.048  0.0267 -0.1370  0.2130
   27loPI   C6A  428   4.157  16.509   7.772 -0.1542  0.2076  0.2099
   27loPI   C1B  429   4.588  16.414   8.857  0.1551 -0.0683  0.0909
   27loPI   C2B  430   4.826  16.535   8.515 -0.4194 -0.1638  0.4420
   27loPI   C3B  431   5.047  16.621   8.142 -0.1314  0.6623 -0.1081
   27loPI   C4B  432   5.443  16.482   7.949  0.0707  0.2805  0.2995
   28loPI    C1  433  17.023  12.551  10.122 -0.3635 -0.1565  0.1168
   28loPI    C2  434  16.867  12.919  10.118 -0.2609 -0.1135  0.0265
   28loPI    C3  435  16.626  12.600  10.117 -0.3484 -0.0474 -0.0933
   28loPI   PO4  436  17.240  12.660   9.946  0.2615 -0.2140  0.1644
   28loPI   GL1  437  17.228  12.665   9.486 -0.1960 -0.0446 -0.3838
   28loPI   GL2  438  16.825  12.679   9.618 -0.0576  0.2073 -0.3049
   28loPI   C1A  439  17.149  12.636   8.993 -0.4725 -0.0012 -0.3587
   28loPI   C2A  440  17.288  12.606   8.526  0.0495 -0.0350 -0.3544
   28loPI   C3A  441  17.316  12.767   8.192 -0.3198 -0.2823  0.0488
   28loPI   C4A  442  17.463  12.969   7.816  0.1960  0.0372  0.2591
   28loPI   C5A  443  17.476  13.075   7.378 -0.1011 -0.2218 -0.0181
   28loPI   C6A  444  17.897  13.128   7.060 -0.0857 -0.1185 -0.0341
   28loPI   C1B  445  16.579  12.913   9.328  0.1822  0.0072  0.0938
   28loPI   C2B  446  16.497  12.973   8.879  0.2101  0.0203 -0.0440
   28loPI   C3B  447  16.344  13.040   8.466  0.0618 -0.0198  0.2579
   28loPI   C4B  448  16.386  12.979   7.980 -0.0217  0.1085 -0.2033
   29loPI    C1  449  18.319   5.556  10.453 -0.1307  0.3977  0.1781
   29loPI    C2  450  18.522   5.580  10.797 -0.0424  0.0723  0.1521
   29loPI    C3  451  18.230   5.310  10.756  0.0001  0.0566 -0.0555
   29loPI   PO4  452  18.384   5.630  10.279 -0.0544  0.0574 -0.0642
   29loPI   GL1  453  18.698   5.700   9.917 -0.1294 -0.0982 -0.2044
   29loPI   GL2  454  18.514   5.883   9.738 -0.0567  0.1305 -0.0485
   29loPI   C1A  455  18.846   5.712   9.428 -0.1434 -0.0526  0.2985
   29loPI   C2A  456  18.735   5.723   8.965 -0.1708 -0.1083  0.3196
   29loPI   C3A  457  18.939   5.911   8.685  0.4473 -0.0215  0.1335
   29loPI   C4A  458  19.035   5.979   8.306 -0.2343 -0.1377  0.3123
   29loPI   C5A  459  19.109   6.066   7.954 -0.0075 -0.2426  0.2146
   29loPI   C6A  460  18.816   6.168   7.644 -0.3428  0.1611  0.2295
   29loPI   C1B  461  18.301   5.756   9.338 -0.2977 -0.2072  0.0392
   29loPI   C2B  462  18.248   5.773   8.947  0.0440 -0.1055 -0.3166
   29loPI   C3B  463  18.382   5.868   8.573  0.0033  0.3464  0.0117
   29loPI   C4B  464  18.590   5.733   8.161  0.1276  0.0346 -0.0449
   30loPI    C1  465  18.550  10.202  10.189 -0.1770  0.1137  0.0806
   30loPI    C2  466  18.665  10.451  10.480  0.3568  0.0710 -0.0822
   30loPI    C3  467  18.815  10.081  10.462  0.0837 -0.0361 -0.2317
   30loPI   PO4  468  18.636  10.299  10.002 -0.2322  0.1666 -0.2790
   30loPI   GL1  469  18.917  10.182   9.709  0.2352 -0.0401 -0.0658
   30loPI   GL2  470  18.672   9.888   9.680  0.1090 -0.0226  0.0014
   30loPI   C1A  471  18.900  10.316   9.253  0.0230  0.0820 -0.1478
   30loPI   C2A  472  18.910  10.613   8.910 -0.0429  0.3900 -0.0463
   30loPI   C3A  473  18.919  10.971   8.615 -0.1245  0.1613 -0.1319
   30loPI   C4A  474  18.996  11.080   8.204  0.0044 -0.2507  0.0451
   30loPI   C5A  475  19.234  10.953   7.815  0.4377  0.0258  0.1877
   30loPI   C6A  476  19.358  10.958   7.351 -0.1823  0.3353 -0.3451
   30loPI   C1B  477  18.420  10.187   9.390 -0.2625 -0.4553  0.0731
   30loPI   C2B  478  18.408  10.322   8.972  0.1433 -0.1587 -0.0529
   30loPI   C3B  479  18.508  10.406   8.610 -0.1878 -0.0729 -0.0152
   30loPI   C4B  480  18.587  10.811   8.262  0.1093 -0.3580  0.0361
   31loPI    C1  481   8.012   1.848  10.290 -0.2786 -0.1259  0.0174
   31loPI    C2  482   7.865   1.770  10.654 -0.1834  0.0381  0.0921
   31loPI    C3  483   8.221   1.949  10.616 -0.1689 -0.0261 -0.0829
   31loPI   PO4  484   8.033   1.652  10.184  0.0040  0.1961  0.1692
   31loPI   GL1  485   7.907   1.604   9.775  0.0252  0.0241  0.0379
   31loPI   GL2  486   7.726   1.895   9.675  0.2933  0.1029 -0.3457
   31loPI   C1A  487   7.699   1.553   9.337 -0.0746 -0.0205 -0.1439
   31loPI   C2A  488   7.702   1.636   8.915 -0.0802  0.1766  0.1365
   31loPI   C3A  489   7.959   1.616   8.491 -0.0989  0.1838  0.0766
   31loPI   C4A  490   7.985   1.562   7.995 -0.1354  0.0378 -0.2593
   31loPI   C5A  491   7.964   1.442   7.577  0.2164 -0.0040  0.0535
   31loPI   C6A  492   8.064   1.082   7.446  0.2103  0.2546 -0.0487
   31loPI   C1B  493   7.900   2.171   9.292  0.1859  0.1269  0.0969
   31loPI   C2B  494   7.801   2.586   9.088 -0.0519 -0.0927 -0.2303
   31loPI   C3B  495   7.794   2.862   8.773  0.1719  0.1954 -0.0758
   31loPI   C4B  496   7.966   3.157   8.465 -0.1116 -0.1299  0.1334
   32loPI    C1  497   5.012   3.793  10.389 -0.1178 -0.1035 -0.0765
   32loPI    C2  498   5.027   3.952  10.756  0.1072 -0.3834  0.0402
   32loPI    C3  499   4.838   3.605  10.696 -0.0330 -0.2792 -0.1348
   32loPI   PO4  500   4.993   3.959  10.237  0.1141  0.2753  0.0990
   32loPI   GL1  501   5.021   4.208   9.905  0.1896  0.4469 -0.1182
   32loPI   GL2  502   4.850   4.513   9.912 -0.1613 -0.0116  0.0239
   32loPI   C1A  503   5.292   4.282   9.665 -0.1362 -0.1832 -0.0667
   32loPI   C2A  504   5.463   4.315   9.217 -0.0122 -0.3342  0.0992
   32loPI   C3A  505   5.322   4.414   8.834 -0.0418  0.2519  0.2583
   32loPI   C4A  506   5.216   4.479   8.438  0.0030  0.3515  0.0551
   32loPI   C5A  507   4.944   4.615   8.188  0.0247 -0.0827  0.2361
   32loPI   C6A  508   5.104   4.716   7.731  0.3569 -0.0055 -0.1533
   32loPI   C1B  509   4.835   4.489   9.472  0.0321 -0.1965 -0.0540
   32loPI   C2B  510   4.911   4.579   8.990 -0.2351  0.1441  0.1518
   32loPI   C3B  511   4.607   4.602   8.577  0.0558  0.1231 -0.1558
   32loPI   C4B  512   4.485   4.608   8.096  0.1435 -0.1649  0.1425
   33loPI    C1  513   7.275   5.519  10.429 -0.1800  0.0697  0.3116
   33loPI    C2  514   7.564   5.759  10.293 -0.2301 -0.0886 -0.0869
   33loPI    C3  515   7.359   5.859  10.622 -0.0673  0.2757 -0.0913
   33loPI   PO4  516   7.189   5.347  10.196 -0.2775 -0.0496  0.0275
   33loPI   GL1  517   7.011   5.220   9.820  0.2004  0.2213  0.0338
   33loPI   GL2  518   6.741   5.088   9.904 -0.0796 -0.3405 -0.1382
   33loPI   C1A  519   7.038   5.120   9.473  0.0570  0.1904 -0.2493
   33loPI   C2A  520   7.214   5.201   9.102  0.2552 -0.0791  0.3008
   33loPI   C3A  521   7.309   5.441   8.737 -0.0075 -0.2865 -0.2391
   33loPI   C4A  522   7.227   5.362   8.322  0.0405  0.1446  0.0359
   33loPI   C5A  523   7.126   5.550   7.877 -0.3131  0.0864  0.1785
   33loPI   C6A  524   7.033   5.712   7.470  0.3159 -0.0628 -0.0042
   33loPI   C1B  525   6.523   5.165   9.563  0.2102 -0.1725  0.1880
   33loPI   C2B  526   6.446   5.391   9.126 -0.2021  0.2417 -0.1361
   33loPI   C3B  527   6.521   5.258   8.789  0.2612 -0.1730 -0.1001
   33loPI   C4B  528   6.919   5.095   8.660  0.1884 -0.0968 -0.2075
   34loPI    C1  529   1.722   1.701  10.280 -0.0575 -0.1850  0.1797
   34loPI    C2  530   1.931   2.042  10.273 -0.1052 -0.1585  0.0107
   34loPI    C3  531   2.077   1.722  10.463  0.0805 -0.1343 -0.0883
   34loPI   PO4  532   1.554   1.762  10.026 -0.2809  0.3109  0.1243
   34loPI   GL1  533   1.705   1.521   9.628  0.3123  0.2490 -0.3638
   34loPI   GL2  534   1.962   1.524   9.468  0.1138 -0.2393 -0.1550
   34loPI   C1A  535   1.521   1.606   9.285 -0.3297 -0.0805  0.0428
   34loPI   C2A  536   1.353   1.500   9.007 -0.0436  0.2977  0.0965
   34loPI   C3A  537   1.463   1.229   8.721 -0.4839 -0.1353  0.1000
   34loPI   C4A  538   1.461   1.277   8.205 -0.1632 -0.1239 -0.3633
   34loPI   C5A  539   1.334   1.049   7.870 -0.2615  0.2261  0.0581
   34loPI   C6A  540   1.493   1.181   7.481  0.1307 -0.0790 -0.2664
   34loPI   C1B  541   2.392   1.391   9.279  0.0658 -0.0568  0.0776
   34loPI   C2B  542   2.410   1.582   8.865 -0.3656  0.1601 -0.2303
   34loPI   C3B  543   2.381   1.765   8.407  0.1407  0.0895 -0.0460
   34loPI   C4B  544   2.339   1.750   7.969 -0.3104  0.0326  0.1092
   35loPI    C1  545   6.043   5.986  10.153  0.0438  0.1119  0.0713
   35loPI    C2  546   5.825   6.308  10.059 -0.1503  0.0290  0.2312
   35loPI    C3  547   5.681   6.036  10.315 -0.0052 -0.2064  0.0673
   35loPI   PO4  548   6.073   5.869   9.928  0.1399 -0.2729  0.1297
   35loPI   GL1  549   5.869   5.948   9.547 -0.0755 -0.2577 -0.2184
   35loPI   GL2  550   5.647   6.201   9.614 -0.1008  0.2961 -0.0617
   35loPI   C1A  551   5.955   5.678   9.153  0.0504  0.1442  0.0968
   35loPI   C2A  552   6.075   5.565   8.691 -0.0681 -0.1141  0.0895
   35loPI   C3A  553   6.329   5.511   8.373  0.0831  0.1261 -0.3236
   35loPI   C4A  554   6.165   5.563   8.000 -0.0866 -0.1088  0.0481
   35loPI   C5A  555   6.074   5.699   7.549  0.1190 -0.0169  0.0240
   35loPI   C6A  556   5.915   5.995   7.153  0.2338 -0.2313  0.0490
   35loPI   C1B  557   5.447   6.308   9.230 -0.0211 -0.0166  0.0651
   35loPI   C2B  558   5.348   6.346   8.768  0.0598  0.0634 -0.1277
   35loPI   C3B  559   5.457   6.242   8.311  0.1503 -0.0810  0.1715
   35loPI   C4B  560   5.265   5.939   8.042  0.0267 -0.1755  0.0789
   36loPI    C1  561  14.647  17.881   9.663 -0.0514  0.0370  0.0400
   36loPI    C2  562  14.888  17.797   9.971 -0.0245  0.2302  0.0729
   36loPI    C3  563  14.669  18.132   9.974 -0.0756  0.1990 -0.0875
   36loPI   PO4  564  14.485  17.592   9.599  0.0577  0.0403 -0.3150
   36loPI   GL1  565  14.261  17.366   9.401 -0.1309  0.0571  0.2961
   36loPI   GL2  566  13.948  17.436   9.312 -0.1312  0.1014  0.3608
   36loPI   C1A  567  14.344  17.402   8.969  0.1197 -0.2365  0.1653
   36loPI   C2A  568  14.403  17.385   8.639  0.1629 -0.0163 -0.1763
   36loPI   C3A  569  14.402  17.280   8.279 -0.2344  0.3677  0.1522
   36loPI   C4A  570  14.561  17.151   7.884 -0.0831 -0.0200  0.4332
   36loPI   C5A  571  14.706  17.030   7.499 -0.0309  0.1273 -0.4417
   36loPI   C6A  572  14.716  16.763   7.229  0.4250  0.1899  0.0293
   36loPI   C1B  573  13.864  17.488   8.831 -0.0127  0.0080 -0.0505
   36loPI   C2B  574  13.958  17.623   8.438  0.0538 -0.0827  0.1790
   36loPI   C3B  575  14.024  17.484   8.096 -0.0262 -0.2532  0.1576
   36loPI   C4B  576  13.574  17.544   8.069  0.0518  0.3481  0.0941
   37loPI    C1  577  13.133   2.931   9.684  0.1498  0.2331 -0.0990
   37loPI    C2  578  12.835   3.173   9.571  0.0568  0.1490 -0.0352
   37loPI    C3  579  13.186   3.328   9.686 -0.0109  0.2551  0.0307
   37loPI   PO4  580  13.088   2.748   9.441  0.2987  0.1436 -0.1205
   37loPI   GL1  581  12.930   2.602   9.111 -0.0472 -0.0222 -0.1968
   37loPI   GL2  582  13.261   2.771   8.921 -0.1025  0.0083  0.1630
   37loPI   C1A  583  12.798   2.569   8.695 -0.1598  0.3741 -0.3406
   37loPI   C2A  584  12.834   2.495   8.322 -0.1103 -0.1700  0.2434
   37loPI   C3A  585  12.583   2.590   7.932  0.1364  0.0453 -0.0454
   37loPI   C4A  586  12.239   2.802   7.761  0.0994  0.1248  0.1775
   37loPI   C5A  587  11.797   2.982   7.694 -0.1285  0.0630  0.0027
   37loPI   C6A  588  11.324   2.878   7.781  0.1706 -0.3834  0.0755
   37loPI   C1B  589  13.123   2.922   8.525  0.1880 -0.2448 -0.0033
   37loPI   C2B  590  13.013   2.838   8.074  0.1946 -0.1267  0.2173
   37loPI   C3B  591  12.869   3.016   7.676 -0.1133 -0.1720 -0.6696
   37loPI   C4B  592  13.244   2.940   7.429  0.0888  0.0261  0.2435
   38loPI    C1  593  13.235  12.926  10.119 -0.0479 -0.1883  0.2267
   38loPI    C2  594  13.518  13.056  10.370 -0.0014 -0.2738  0.2190
   38loPI    C3  595  13.175  12.911  10.514 -0.1659  0.1057  0.2223
   38loPI   PO4  596  13.181  13.143   9.871 -0.2435 -0.0118 -0.0437
   38loPI   GL1  597  13.053  13.246   9.551  0.3336 -0.0023 -0.0965
   38loPI   GL2  598  12.918  12.901   9.352  0.0060  0.4204 -0.0198
   38loPI   C1A  599  12.811  13.280   9.080 -0.2894 -0.1278 -0.0525
   38loPI   C2A  600  12.634  13.198   8.633  0.2651  0.1311  0.1123
   38loPI   C3A  601  12.493  13.291   8.272  0.2290 -0.1132  0.0021
   38loPI   C4A  602  12.607  13.258   7.889  0.0942  0.0947 -0.0256
   38loPI   C5A  603  12.441  13.466   7.499 -0.0327  0.0209 -0.2128
   38loPI   C6A  604  12.349  13.790   7.273  0.2177  0.4591 -0.2696
   38loPI   C1B  605  13.039  12.881   8.914  0.3037  0.3655 -0.2915
   38loPI   C2B  606  12.966  12.899   8.483 -0.0711  0.1692  0.1765
   38loPI   C3B  607  13.040  13.016   8.027  0.0360 -0.0622 -0.0652
   38loPI   C4B  608  13.051  13.200   7.570 -0.2375 -0.0303 -0.2768
   39loPI    C1  609  14.442   0.763   9.771 -0.1642 -0.0137  0.0392
   39loPI    C2  610  14.742   0.694  10.026  0.0164  0.2290 -0.1034
   39loPI    C3  611  14.452   0.422   9.980  0.2423 -0.0329 -0.0043
   39loPI   PO4  612  14.549   1.015   9.660  0.3811 -0.3989  0.2245
   39loPI   GL1  613  14.794   1.074   9.396 -0.1058  0.1139  0.3144
   39loPI   GL2  614  14.703   0.837   9.176  0.0608 -0.5376 -0.0002
   39loPI   C1A  615  14.919   1.278   8.930 -0.0900 -0.1902  0.2295
   39loPI   C2A  616  14.752   1.230   8.493 -0.1085 -0.0612 -0.1459
   39loPI   C3A  617  14.735   1.229   8.099 -0.1133 -0.3354  0.0146
   39loPI   C4A  618  14.827   1.061   7.653 -0.1282 -0.0685 -0.1031
   39loPI   C5A  619  14.577   0.800   7.344 -0.1247  0.2528 -0.0572
   39loPI   C6A  620  14.109   0.760   7.435  0.2212 -0.2827 -0.1774
   39loPI   C1B  621  14.961   0.755   8.876 -0.1495 -0.1816  0.0977
   39loPI   C2B  622  14.862   0.736   8.487 -0.5057  0.0568 -0.4199
   39loPI   C3B  623  14.829   0.725   8.066 -0.2520  0.0235  0.1195
   39loPI   C4B  624  14.516   0.521   7.729  0.1842  0.1108 -0.3169
   40loPI    C1  625   1.267   0.875  10.082  0.1298  0.0247 -0.0875
   40loPI    C2  626   1.075   1.049  10.386  0.3343  0.2306 -0.0738
   40loPI    C3  627   1.285   0.715  10.449  0.0084  0.0204 -0.0833
   40loPI   PO4  628   1.132   0.863   9.907 -0.1345  0.0706 -0.1327
   40loPI   GL1  629   1.078   1.022   9.538  0.0980 -0.1621 -0.0713
   40loPI   GL2  630   1.185   1.343   9.473 -0.2502 -0.1491 -0.0699
   40loPI   C1A  631   1.033   0.890   9.108 -0.0517 -0.1800 -0.0661
   40loPI   C2A  632   0.950   1.086   8.744  0.1858  0.1488 -0.1306
   40loPI   C3A  633   0.886   1.233   8.311  0.1152 -0.1977 -0.2370
   40loPI   C4A  634   0.616   1.141   7.946  0.0040 -0.0918  0.1998
   40loPI   C5A  635   0.406   1.383   7.619 -0.0089 -0.2441 -0.0624
   40loPI   C6A  636   0.172   1.765   7.442  0.2048  0.1836  0.0706
   40loPI   C1B  637   1.034   1.788   9.377 -0.1546  0.2212  0.1907
   40loPI   C2B  638   1.163   2.032   9.047 -0.1195 -0.3502  0.0307
   40loPI   C3B  639   1.162   2.261   8.687 -0.0774 -0.2958 -0.3587
   40loPI   C4B  640   1.251   2.214   8.258 -0.2051  0.2553 -0.0912
   41loPI    C1  641   5.018  17.105  10.277  0.2854 -0.0118  0.2494
   41loPI    C2  642   4.826  17.453  10.325  0.0366 -0.1277  0.1158
   41loPI    C3  643   5.008  17.280  10.637  0.3098  0.2046  0.1465
   41loPI   PO4  644   5.213  17.152  10.128  0.3133 -0.3610  0.4392
   41loPI   GL1  645   5.333  17.261   9.668 -0.1944 -0.0464  0.0521
   41loPI   GL2  646   5.161  17.376   9.489  0.1263 -0.1694  0.0512
   41loPI   C1A  647   5.705  17.106   9.379 -0.2868 -0.0185  0.0263
   41loPI   C2A  648   5.835  16.875   8.953  0.2071  0.0402  0.3680
   41loPI   C3A  649   6.130  16.888   8.570  0.2085 -0.1051  0.0215
   41loPI   C4A  650   6.525  17.125   8.369 -0.1192 -0.2969 -0.2800
   41loPI   C5A  651   6.490  17.535   8.010 -0.2052  0.1807 -0.0829
   41loPI   C6A  652   6.755  17.537   7.493  0.1370 -0.0638 -0.0113
   41loPI   C1B  653   5.087  17.432   9.067 -0.0826  0.0205  0.5072
   41loPI   C2B  654   5.053  17.821   8.851  0.0903 -0.0477 -0.0642
   41loPI   C3B  655   4.986  18.030   8.509  0.2130  0.1677  0.3680
   41loPI   C4B  656   4.987  18.296   8.146 -0.2348  0.0949  0.1393
   42loPI    C1  657   4.527  12.564  10.248  0.0679  0.2811  0.1842
   42loPI    C2  658   4.747  12.323  10.479  0.1061  0.0896 -0.0486
   42loPI    C3  659   4.544  12.626  10.643 -0.0431 -0.1739  0.2655
   42loPI   PO4  660   4.521  12.404  10.034  0.2949  0.1141  0.0741
   42loPI   GL1  661   4.463  12.423   9.575 -0.2225 -0.0737 -0.0893
   42loPI   GL2  662   4.571  11.990   9.654 -0.0624  0.0113 -0.0899
   42loPI   C1A  663   4.610  12.581   9.122  0.3124 -0.0146 -0.0666
   42loPI   C2A  664   4.812  12.557   8.802 -0.0696  0.1848  0.2767
   42loPI   C3A  665   4.771  12.567   8.324 -0.0590 -0.0894 -0.2053
   42loPI   C4A  666   4.769  12.768   7.816 -0.4364  0.2217 -0.2332
   42loPI   C5A  667   4.929  12.828   7.294  0.0933  0.0739 -0.3682
   42loPI   C6A  668   4.921  12.733   6.877 -0.0515 -0.2793 -0.0116
   42loPI   C1B  669   4.459  12.085   9.184  0.1482 -0.2041 -0.2944
   42loPI   C2B  670   4.353  11.998   8.734  0.0092 -0.1149  0.2406
   42loPI   C3B  671   4.239  11.885   8.375 -0.2201  0.2279 -0.0172
   42loPI   C4B  672   4.332  11.853   7.983 -0.0329 -0.0068  0.0716
   43loPI    C1  673  10.931   8.272  10.020 -0.0554  0.2553 -0.0852
   43loPI    C2  674  10.919   8.511  10.341 -0.1450 -0.0796  0.1661
   43loPI    C3  675  11.236   8.274  10.280 -0.0511  0.1077 -0.0885
   43loPI   PO4  676  10.788   8.465   9.844 -0.0515 -0.3000  0.0063
   43loPI   GL1  677  10.427   8.572   9.563  0.1239 -0.0293 -0.3903
   43loPI   GL2  678  10.237   8.389   9.733 -0.2045  0.0264 -0.0999
   43loPI   C1A  679  10.437   8.715   9.182  0.1693 -0.1060 -0.1399
   43loPI   C2A  680  10.503   8.986   8.813 -0.0090  0.4422 -0.3036
   43loPI   C3A  681  10.377   9.192   8.384 -0.1714 -0.4901  0.1146
   43loPI   C4A  682  10.389   9.018   8.021 -0.0699 -0.0445 -0.0871
   43loPI   C5A  683  10.279   8.845   7.751  0.2270 -0.0012  0.4411
   43loPI   C6A  684   9.909   8.572   7.597  0.1019  0.2674  0.3782
   43loPI   C1B  685  10.267   8.248   9.274 -0.3338 -0.1358  0.1534
   43loPI   C2B  686  10.277   8.333   8.788  0.0728 -0.1878  0.0174
   43loPI   C3B  687  10.407   8.209   8.421 -0.1211  0.1169  0.1026
   43loPI   C4B  688  10.638   8.420   8.178  0.1382  0.0780  0.1874
   44loPI    C1  689  15.920   8.270  10.199 -0.0939 -0.0392 -0.0405
   44loPI    C2  690  16.297   8.257  10.332 -0.1144  0.1693  0.0413
   44loPI    C3  691  16.003   8.089  10.546 -0.0423 -0.1709 -0.1210
   44loPI   PO4  692  15.934   8.178   9.947 -0.0009 -0.0706  0.2838
   44loPI   GL1  693  16.197   7.912   9.608 -0.5261 -0.0131 -0.2847
   44loPI   GL2  694  16.295   8.216   9.611  0.0116  0.1263 -0.0017
   44loPI   C1A  695  16.235   7.715   9.301 -0.0401  0.0583  0.3425
   44loPI   C2A  696  16.206   7.832   8.747  0.1696  0.0061  0.1058
   44loPI   C3A  697  16.242   7.742   8.399 -0.1246  0.1753  0.1984
   44loPI   C4A  698  16.272   7.912   7.910  0.2199 -0.1001  0.1133
   44loPI   C5A  699  16.226   7.900   7.385  0.2484  0.3168 -0.0727
   44loPI   C6A  700  16.153   7.639   6.936 -0.0253  0.0926  0.0961
   44loPI   C1B  701  16.219   8.214   9.162  0.0590  0.0959  0.1912
   44loPI   C2B  702  16.241   8.479   8.774  0.1603 -0.0750  0.1000
   44loPI   C3B  703  16.005   8.812   8.522  0.1700  0.4167 -0.1890
   44loPI   C4B  704  15.782   9.195   8.808  0.0687  0.0993 -0.0366
   45loPI    C1  705  15.743   2.625   9.886 -0.1392 -0.0635  0.2474
   45loPI    C2  706  16.126   2.638  10.001  0.0250  0.1784 -0.2933
   45loPI    C3  707  15.838   2.758  10.251  0.3049  0.0794  0.0868
   45loPI   PO4  708  15.811   2.578   9.572  0.0994  0.1858 -0.0271
   45loPI   GL1  709  16.052   2.347   9.283  0.0929 -0.1730 -0.0617
   45loPI   GL2  710  15.774   2.312   9.120  0.0775  0.0865  0.0438
   45loPI   C1A  711  16.276   2.338   9.019  0.1007  0.3693  0.0161
   45loPI   C2A  712  16.454   2.546   8.642 -0.3221  0.2155 -0.1849
   45loPI   C3A  713  16.452   2.612   8.192 -0.1119  0.2256 -0.4242
   45loPI   C4A  714  16.237   2.426   7.890 -0.2234 -0.0778  0.3996
   45loPI   C5A  715  16.307   2.157   7.609  0.0385  0.2290 -0.1909
   45loPI   C6A  716  16.253   2.063   7.199  0.0674  0.2783 -0.1544
   45loPI   C1B  717  15.752   2.163   8.763  0.1675  0.1036 -0.1281
   45loPI   C2B  718  15.754   2.019   8.241  0.0893  0.1597 -0.1104
   45loPI   C3B  719  15.783   2.331   7.813  0.1124  0.2245  0.2152
   45loPI   C4B  720  15.481   2.330   7.420  0.3225  0.2685 -0.2343
   46loPI    C1  721  11.588  11.213  10.297 -0.3391  0.1080 -0.0679
   46loPI    C2  722  11.246  11.206  10.505 -0.1363 -0.0064  0.2697
   46loPI    C3  723  11.594  11.255  10.695  0.0342  0.1520 -0.0753
   46loPI   PO4  724  11.485  11.145   9.990 -0.0754  0.1388 -0.0060
   46loPI   GL1  725  11.646  11.219   9.566  0.1190 -0.2042 -0.0677
   46loPI   GL2  726  11.556  11.474   9.588  0.0590 -0.1143 -0.1336
   46loPI   C1A  727  11.733  11.184   9.150 -0.3716  0.3932 -0.1488
   46loPI   C2A  728  11.913  10.976   8.886 -0.0747 -0.3241  0.1737
   46loPI   C3A  729  11.745  10.879   8.459 -0.0357 -0.3877 -0.0463
   46loPI   C4A  730  11.793  11.051   8.060 -0.0165 -0.2509 -0.0067
   46loPI   C5A  731  11.617  11.156   7.641  0.2310 -0.4305 -0.0294
   46loPI   C6A  732  11.393  11.535   7.437  0.2341 -0.1059 -0.2061
   46loPI   C1B  733  11.435  11.628   9.231  0.2936 -0.1735 -0.0934
   46loPI   C2B  734  11.583  11.757   8.824  0.1984  0.2342 -0.3154
   46loPI   C3B  735  11.713  11.850   8.440 -0.0379 -0.1811  0.1300
   46loPI   C4B  736  12.107  11.863   8.343 -0.1236  0.1873 -0.1650
   47loPI    C1  737   8.707  12.896  10.455  0.2092  0.0111  0.2611
   47loPI    C2  738   8.485  13.032  10.758  0.1406  0.1681  0.1418
   47loPI    C3  739   8.819  13.225  10.652  0.0498  0.2389 -0.0196
   47loPI   PO4  740   8.421  12.829  10.265 -0.1040 -0.1174  0.1081
   47loPI   GL1  741   8.273  12.724   9.764 -0.2063 -0.1394 -0.0974
   47loPI   GL2  742   8.527  13.018   9.740  0.1951  0.1989  0.0922
   47loPI   C1A  743   7.908  12.599   9.596  0.1227  0.0156 -0.1261
   47loPI   C2A  744   7.706  12.629   9.312 -0.1283  0.0410  0.1562
   47loPI   C3A  745   7.818  12.666   8.897 -0.1843  0.1724  0.0005
   47loPI   C4A  746   7.895  12.828   8.453 -0.2249 -0.2933 -0.0867
   47loPI   C5A  747   7.885  12.802   7.962  0.0792  0.3077  0.1149
   47loPI   C6A  748   7.557  12.994   7.727 -0.1634  0.0469  0.0681
   47loPI   C1B  749   8.420  12.940   9.322 -0.1721 -0.1255 -0.1044
   47loPI   C2B  750   8.302  12.926   8.958  0.1423 -0.1574 -0.1527
   47loPI   C3B  751   8.324  13.082   8.509 -0.3968 -0.0869 -0.1919
   47loPI   C4B  752   8.294  13.099   8.112 -0.0109 -0.1714 -0.3727
   48loPI    C1  753   7.788   5.167  10.055  0.0073  0.1270 -0.0170
   48loPI    C2  754   7.593   5.113  10.400  0.0089 -0.1403 -0.0556
   48loPI    C3  755   7.893   5.377  10.378 -0.1223  0.0229  0.0938
   48loPI   PO4  756   7.561   5.184   9.849  0.2329 -0.0208  0.0217
   48loPI   GL1  757   7.645   5.104   9.482  0.0409 -0.0224 -0.0680
   48loPI   GL2  758   7.461   5.463   9.399  0.0065 -0.1957 -0.1503
   48loPI   C1A  759   7.695   5.164   9.015  0.1134 -0.2684 -0.0372
   48loPI   C2A  760   7.752   5.196   8.515  0.0334  0.0674 -0.2337
   48loPI   C3A  761   7.700   5.252   8.097  0.4600 -0.4092  0.0254
   48loPI   C4A  762   7.973   5.296   7.638  0.0619  0.2409  0.0043
   48loPI   C5A  763   8.145   5.620   7.388  0.3079  0.2333 -0.1245
   48loPI   C6A  764   8.409   5.941   7.397 -0.0307 -0.2562 -0.1024
   48loPI   C1B  765   7.421   5.780   9.089  0.0499 -0.1118  0.2441
   48loPI   C2B  766   7.374   5.963   8.689  0.0022  0.0923  0.0838
   48loPI   C3B  767   7.207   5.907   8.199  0.0331 -0.2162  0.0292
   48loPI   C4B  768   7.202   6.079   7.786  0.1331 -0.0332  0.1172
   49loPI    C1  769   6.165  11.106  10.100 -0.0333  0.2848 -0.0211
   49loPI    C2  770   6.185  11.300  10.450 -0.0849 -0.0319  0.1618
   49loPI    C3  771   5.995  10.948  10.427  0.0334 -0.0787 -0.1569
   49loPI   PO4  772   6.066  11.297   9.897  0.1451  0.3061 -0.2117
   49loPI   GL1  773   5.830  11.467   9.429  0.1594 -0.2201 -0.1596
   49loPI   GL2  774   5.550  11.548   9.342 -0.2101  0.1382  0.1162
   49loPI   C1A  775   6.183  11.484   9.182  0.3716 -0.2304 -0.2528
   49loPI   C2A  776   6.312  11.569   8.719  0.0709  0.0910  0.1873
   49loPI   C3A  777   6.268  12.008   8.437 -0.0346 -0.2148  0.1289
   49loPI   C4A  778   6.300  12.058   7.946  0.0450 -0.2268  0.0585
   49loPI   C5A  779   6.520  12.055   7.477 -0.0265  0.0511 -0.2399
   49loPI   C6A  780   6.921  12.014   7.369 -0.0749 -0.2115  0.2455
   49loPI   C1B  781   5.325  11.531   9.032  0.0633  0.0011  0.3120
   49loPI   C2B  782   5.290  11.420   8.591  0.0691  0.2850 -0.0908
   49loPI   C3B  783   5.198  11.327   8.171 -0.0328 -0.0957 -0.1144
   49loPI   C4B  784   5.088  11.135   7.799 -0.0066  0.4499 -0.2165
   50loPI    C1  785  16.231  13.985   9.894  0.3690  0.0470  0.0116
   50loPI    C2  786  16.298  14.323  10.097  0.2354  0.0763  0.0078
   50loPI    C3  787  16.112  14.017  10.275 -0.1016  0.1902 -0.1401
   50loPI   PO4  788  16.059  14.091   9.664 -0.3715 -0.0752  0.1652
   50loPI   GL1  789  15.948  14.380   9.242 -0.1535 -0.0345 -0.0343
   50loPI   GL2  790  15.658  14.366   9.031 -0.3396 -0.0941 -0.1422
   50loPI   C1A  791  16.256  14.459   8.833 -0.0041  0.1339  0.3298
   50loPI   C2A  792  16.536  14.389   8.517  0.0949 -0.0853  0.0073
   50loPI   C3A  793  16.676  14.662   8.238 -0.1654  0.1875 -0.0973
   50loPI   C4A  794  16.746  14.922   7.868  0.1237 -0.1035 -0.2887
   50loPI   C5A  795  16.803  14.671   7.481 -0.2231  0.0413 -0.2819
   50loPI   C6A  796  16.602  14.427   7.299 -0.0788  0.3618  0.0769
   50loPI   C1B  797  15.797  14.152   8.659 -0.1823  0.2158 -0.2311
   50loPI   C2B  798  16.074  14.030   8.301  0.3450 -0.0529 -0.0846
   50loPI   C3B  799  16.257  14.009   7.941  0.0023  0.2173  0.0023
   50loPI   C4B  800  16.282  13.798   7.468 -0.0842  0.1891  0.0258
   51loPI    C1  801   2.748  18.382  10.089 -0.0502  0.3637 -0.0221
   51loPI    C2  802   3.076  18.461  10.304 -0.1552 -0.3163  0.4168
   51loPI    C3  803   2.715  18.544  10.453 -0.2033  0.3717 -0.0392
   51loPI   PO4  804   2.785  18.478   9.881  0.0182  0.2564  0.3344
   51loPI   GL1  805   2.853  18.393   9.423 -0.2533  0.1068 -0.0078
   51loPI   GL2  806   3.083  18.423   9.465  0.0955 -0.2291 -0.1051
   51loPI   C1A  807   2.878  18.585   9.061 -0.1542 -0.4558 -0.1620
   51loPI   C2A  808   3.066  18.791   8.647  0.2947 -0.2118 -0.3972
   51loPI   C3A  809   3.219  19.141   8.548  0.0698  0.1061  0.1508
   51loPI   C4A  810   3.147  19.410   8.175 -0.3284 -0.1706  0.4006
   51loPI   C5A  811   2.937  19.484   7.823 -0.4155 -0.0536  0.4025
   51loPI   C6A  812   2.714  19.785   7.625  0.1572 -0.3684  0.2440
   51loPI   C1B  813   3.263  18.154   9.202 -0.4396  0.1175  0.0546
   51loPI   C2B  814   3.321  17.700   9.071  0.0774  0.0013  0.1919
   51loPI   C3B  815   3.333  17.458   8.600  0.1713  0.1664  0.2429
   51loPI   C4B  816   3.425  17.195   8.226 -0.1907 -0.1275 -0.1357
   52loPI    C1  817   1.291  11.007  10.513  0.1784 -0.0617  0.0432
   52loPI    C2  818   1.270  11.182  10.871 -0.0468  0.2280 -0.1070
   52loPI    C3  819   1.607  11.205  10.657  0.1014  0.0214  0.0989
   52loPI   PO4  820   1.108  11.089  10.315 -0.1776 -0.2403  0.3619
   52loPI   GL1  821   1.164  10.967   9.873  0.0996  0.1557  0.3018
   52loPI   GL2  822   0.770  10.952   9.791 -0.0232  0.0601  0.0407
   52loPI   C1A  823   1.209  11.286   9.538  0.1274 -0.0295 -0.1146
   52loPI   C2A  824   1.295  11.240   8.972 -0.0030  0.1703 -0.0720
   52loPI   C3A  825   1.068  11.401   8.635 -0.0528  0.2729 -0.0361
   52loPI   C4A  826   0.866  11.489   8.307 -0.1646  0.0135  0.1390
   52loPI   C5A  827   0.794  11.666   7.999  0.0288  0.0003  0.3990
   52loPI   C6A  828   0.587  11.984   7.784 -0.1969 -0.0802  0.0342
   52loPI   C1B  829   0.759  11.124   9.390  0.1497 -0.0429 -0.3369
   52loPI   C2B  830   0.749  11.046   8.960 -0.0102 -0.4489  0.4725
   52loPI   C3B  831   0.636  11.208   8.613  0.1671 -0.0439 -0.1340
   52loPI   C4B  832   0.584  10.966   8.302 -0.0966 -0.1901  0.1649
   53loPI    C1  833   3.389   2.743  10.478 -0.1558  0.0880 -0.1754
   53loPI    C2  834   3.068   2.742  10.716  0.0371 -0.1375  0.0909
   53loPI    C3  835   3.187   2.403  10.540  0.1811 -0.0751  0.0667
   53loPI   PO4  836   3.446   2.926  10.297  0.0104 -0.2673 -0.0152
   53loPI   GL1  837   3.263   2.880   9.871  0.1696 -0.0730 -0.3260
   53loPI   GL2  838   3.596   2.793   9.796 -0.1349 -0.1221  0.3128
   53loPI   C1A  839   3.141   3.199   9.525 -0.3321  0.3230  0.2124
   53loPI   C2A  840   3.318   3.335   9.210 -0.0313  0.2642  0.2712
   53loPI   C3A  841   3.442   3.180   8.700  0.0069  0.1139 -0.1917
   53loPI   C4A  842   3.394   3.070   8.291  0.3419 -0.2236  0.1212
   53loPI   C5A  843   3.553   2.772   8.111  0.0138  0.1553 -0.2210
   53loPI   C6A  844   3.472   2.595   7.686 -0.0725  0.1267  0.1397
   53loPI   C1B  845   3.453   2.767   9.408  0.0906 -0.2213 -0.0054
   53loPI   C2B  846   3.248   2.817   9.006  0.3987  0.1271  0.1333
   53loPI   C3B  847   3.093   2.738   8.580  0.3694 -0.0052  0.0732
   53loPI   C4B  848   3.088   2.719   8.167  0.2205  0.2869 -0.1936
   54loPI    C1  849  13.157   9.118   9.709  0.1633 -0.0998  0.0572
   54loPI    C2  850  13.475   9.310   9.858 -0.1546  0.3043  0.2331
   54loPI    C3  851  13.149   9.257  10.084 -0.1526 -0.2685  0.1165
   54loPI   PO4  852  13.227   8.889   9.657 -0.0317  0.1516  0.4474
   54loPI   GL1  853  13.055   8.627   9.234  0.1269  0.1689  0.1925
   54loPI   GL2  854  13.262   8.981   9.145 -0.5738  0.0824 -0.0504
   54loPI   C1A  855  12.958   8.683   8.883  0.1761  0.0158  0.0382
   54loPI   C2A  856  13.027   8.560   8.551 -0.1729 -0.2274 -0.2007
   54loPI   C3A  857  12.633   8.501   8.224 -0.1586  0.3539 -0.0362
   54loPI   C4A  858  12.503   8.623   7.868 -0.0054  0.0959  0.1625
   54loPI   C5A  859  12.301   8.564   7.449 -0.1070 -0.1833 -0.2360
   54loPI   C6A  860  11.995   8.414   7.419  0.1753  0.2649  0.3471
   54loPI   C1B  861  13.383   8.988   8.797  0.1114 -0.0097 -0.0913
   54loPI   C2B  862  13.299   8.884   8.320 -0.1099 -0.3093  0.0642
   54loPI   C3B  863  13.328   9.232   7.944 -0.0531  0.2316  0.0110
   54loPI   C4B  864  13.206   9.261   7.468  0.2738  0.1637  0.0496
   55loPI    C1  865   5.637   6.806  10.141  0.1280  0.1378  0.0003
   55loPI    C2  866   5.350   6.948  10.380 -0.0451  0.0277 -0.1393
   55loPI    C3  867   5.646   6.726  10.533 -0.2561 -0.1990 -0.0525
   55loPI   PO4  868   5.485   6.668   9.999  0.2285 -0.0428 -0.1809
   55loPI   GL1  869   5.298   6.555   9.621  0.1287  0.3026  0.0608
   55loPI   GL2  870   4.971   6.399   9.649  0.1928 -0.1579 -0.0277
   55loPI   C1A  871   5.284   6.793   9.274  0.0193  0.1160 -0.1643
   55loPI   C2A  872   5.117   6.840   8.883  0.0019 -0.2291 -0.1993
   55loPI   C3A  873   5.077   6.967   8.514 -0.0599  0.0151  0.0985
   55loPI   C4A  874   4.812   6.960   8.111  0.3155 -0.0099  0.1448
   55loPI   C5A  875   4.607   6.645   7.939  0.0618  0.2488 -0.0344
   55loPI   C6A  876   4.594   6.222   7.749  0.0621  0.0797  0.1972
   55loPI   C1B  877   4.934   6.372   9.227  0.1181  0.0521  0.0341
   55loPI   C2B  878   5.039   6.073   9.010  0.1579  0.2325 -0.1824
   55loPI   C3B  879   4.727   5.922   8.780  0.1242  0.1777 -0.1693
   55loPI   C4B  880   4.311   5.779   8.690 -0.0518  0.0910  0.1994
   56loPI    C1  881   0.254  15.519   9.715 -0.1322  0.1310  0.0787
   56loPI    C2  882   0.129  15.257   9.990  0.0997  0.0435  0.1033
   56loPI    C3  883   0.243  15.625  10.100 -0.0403  0.0911  0.0924
   56loPI   PO4  884   0.034  15.687   9.514  0.2595  0.3487  0.0969
   56loPI   GL1  885   0.093  15.677   9.030  0.0338  0.0995  0.3764
   56loPI   GL2  886   0.004  16.055   8.934 -0.0607 -0.0516 -0.0471
   56loPI   C1A  887   0.119  15.682   8.493 -0.0406  0.1316 -0.2075
   56loPI   C2A  888   0.001  15.699   8.042  0.3074 -0.0560 -0.0049
   56loPI   C3A  889  -0.077  15.491   7.610 -0.0874 -0.0945 -0.0929
   56loPI   C4A  890  -0.048  15.104   7.390  0.2593  0.1670  0.2757
   56loPI   C5A  891  -0.282  14.740   7.385  0.0217  0.0014 -0.1405
   56loPI   C6A  892  -0.456  14.698   7.721  0.1907 -0.2611 -0.0594
   56loPI   C1B  893  -0.086  16.142   8.548 -0.0822  0.0230  0.1404
   56loPI   C2B  894  -0.235  16.374   8.123  0.0497 -0.1866 -0.0572
   56loPI   C3B  895  -0.289  16.707   7.735  0.1803  0.1067 -0.1300
   56loPI   C4B  896  -0.430  16.478   7.386 -0.0216 -0.0878 -0.2639
   57loPI    C1  897   0.233  13.175   9.957  0.3073  0.1244 -0.0790
   57loPI    C2  898   0.100  13.354   9.626 -0.0023  0.1445  0.0529
   57loPI    C3  899  -0.101  13.395   9.970  0.1020 -0.1903  0.1575
   57loPI   PO4  900   0.214  12.938   9.874 -0.0153 -0.1062  0.0647
   57loPI   GL1  901   0.128  12.662   9.568 -0.0418 -0.1487 -0.1608
   57loPI   GL2  902   0.269  12.377   9.713  0.0912 -0.2611 -0.0311
   57loPI   C1A  903   0.066  12.324   9.155 -0.2934 -0.0947 -0.2417
   57loPI   C2A  904  -0.004  12.297   8.753  0.2007 -0.2968  0.1897
   57loPI   C3A  905   0.152  12.138   8.325 -0.2819 -0.3167  0.1965
   57loPI   C4A  906   0.064  11.840   7.931  0.0852  0.2134  0.1784
   57loPI   C5A  907  -0.039  11.449   7.771  0.1492  0.0430  0.0517
   57loPI   C6A  908  -0.196  11.013   7.590  0.0763 -0.2201  0.1654
   57loPI   C1B  909   0.428  12.068   9.557 -0.0998  0.0229 -0.1204
   57loPI   C2B  910   0.544  11.670   9.453 -0.2580  0.0851 -0.2169
   57loPI   C3B  911   0.792  11.543   9.174  0.1468 -0.0693  0.1622
   57loPI   C4B  912   1.263  11.717   9.009  0.0180 -0.0651  0.1110
   58loPI    C1  913  10.039  12.158  10.303 -0.0701  0.3042 -0.2014
   58loPI    C2  914   9.659  12.119  10.423  0.1678 -0.2181  0.4518
   58loPI    C3  915   9.897  12.390  10.596  0.0623  0.2322 -0.0787
   58loPI   PO4  916  10.065  11.887  10.261 -0.1848 -0.0174 -0.1175
   58loPI   GL1  917   9.964  11.873   9.914 -0.3054  0.1356 -0.0286
   58loPI   GL2  918   9.641  12.086   9.925 -0.0846 -0.0271 -0.2412
   58loPI   C1A  919  10.130  12.032   9.531 -0.1354  0.0037 -0.1134
   58loPI   C2A  920  10.288  12.187   9.103 -0.3598  0.0251 -0.0402
   58loPI   C3A  921  10.156  12.044   8.701 -0.5628  0.1364 -0.1988
   58loPI   C4A  922  10.181  11.832   8.329  0.2372  0.2894  0.1611
   58loPI   C5A  923  10.082  11.417   8.324 -0.2736  0.0131  0.0335
   58loPI   C6A  924   9.977  11.028   8.021  0.0479  0.0549  0.1081
   58loPI   C1B  925   9.567  12.000   9.452  0.0074 -0.0732  0.1390
   58loPI   C2B  926   9.834  11.921   9.093  0.1314 -0.0395 -0.2465
   58loPI   C3B  927   9.873  11.642   8.754  0.0995 -0.1973  0.1102
   58loPI   C4B  928   9.678  11.248   8.564  0.0620  0.1416 -0.0033
   59loPI    C1  929  14.937  11.332  10.398 -0.0118  0.2316 -0.1084
   59loPI    C2  930  14.554  11.277  10.499 -0.0028  0.4034  0.0229
   59loPI    C3  931  14.810  11.434  10.764  0.1751  0.2232 -0.0399
   59loPI   PO4  932  14.909  11.421  10.222  0.0316 -0.0768 -0.0704
   59loPI   GL1  933  14.743  11.539   9.750 -0.1323 -0.1436  0.0978
   59loPI   GL2  934  14.975  11.421   9.707  0.0507 -0.1759  0.0001
   59loPI   C1A  935  14.765  11.644   9.292 -0.0676  0.1387 -0.0379
   59loPI   C2A  936  14.895  11.863   9.110  0.0831  0.2327 -0.1668
   59loPI   C3A  937  14.867  12.091   8.761 -0.2265  0.3593 -0.1163
   59loPI   C4A  938  15.072  11.994   8.386 -0.2083  0.3274 -0.1971
   59loPI   C5A  939  15.380  11.941   8.029 -0.0992  0.0690 -0.3305
   59loPI   C6A  940  15.704  11.875   7.764 -0.2883 -0.2272 -0.2441
   59loPI   C1B  941  15.111  11.308   9.332 -0.1350  0.2292 -0.1865
   59loPI   C2B  942  14.844  11.120   9.009  0.3251  0.0753  0.0005
   59loPI   C3B  943  14.837  10.743   8.851  0.1781  0.0011 -0.1559
   59loPI   C4B  944  14.625  10.443   8.760 -0.1827  0.2330  0.0182
   60loPI    C1  945  15.459  13.735   9.730 -0.3884  0.0583  0.2170
   60loPI    C2  946  15.462  13.528  10.072 -0.0066 -0.1495  0.0938
   60loPI    C3  947  15.729  13.819  10.012  0.1179 -0.3086 -0.1399
   60loPI   PO4  948  15.388  13.540   9.526 -0.3643  0.2038  0.1360
   60loPI   GL1  949  15.512  13.278   9.241  0.1371 -0.1032 -0.2264
   60loPI   GL2  950  15.741  13.391   9.016 -0.1875 -0.0155 -0.0563
   60loPI   C1A  951  15.438  13.175   8.728  0.1641  0.0821  0.2209
   60loPI   C2A  952  15.530  13.228   8.300  0.1740 -0.1343 -0.0945
   60loPI   C3A  953  15.910  13.095   8.051 -0.2082 -0.0129  0.0392
   60loPI   C4A  954  16.093  13.104   7.598  0.1931  0.3190 -0.0661
   60loPI   C5A  955  16.375  12.636   7.450 -0.2682  0.0745  0.0353
   60loPI   C6A  956  16.705  12.338   7.422 -0.0853 -0.2597  0.1102
   60loPI   C1B  957  15.508  13.730   8.882 -0.2886  0.0856  0.1772
   60loPI   C2B  958  15.479  13.830   8.413 -0.0497  0.4284 -0.0792
   60loPI   C3B  959  15.661  13.694   7.987 -0.2191 -0.1129  0.0084
   60loPI   C4B  960  15.823  13.538   7.458 -0.1558 -0.1969  0.0826
   61loPI    C1  961  11.108  10.382  10.220 -0.0697 -0.1547 -0.2049
   61loPI    C2  962  11.436  10.231  10.392  0.0458  0.1366 -0.1646
   61loPI    C3  963  11.078  10.069  10.467  0.1474 -0.0119  0.0066
   61loPI   PO4  964  11.216  10.472   9.992  0.1432  0.0817  0.1341
   61loPI   GL1  965  11.112  10.693   9.673  0.2485 -0.3435 -0.1878
   61loPI   GL2  966  11.408  10.754   9.577 -0.2976  0.0865 -0.1343
   61loPI   C1A  967  10.943  10.733   9.322 -0.1128  0.4167 -0.0530
   61loPI   C2A  968  11.046  10.791   8.836 -0.0442 -0.6045  0.2437
   61loPI   C3A  969  11.336  10.699   8.555  0.0120 -0.2997 -0.0664
   61loPI   C4A  970  11.305  10.905   8.232  0.1086  0.1094 -0.2006
   61loPI   C5A  971  11.159  10.894   7.806 -0.0273  0.0686  0.1779
   61loPI   C6A  972  11.032  11.189   7.456 -0.3111 -0.0369  0.1892
   61loPI   C1B  973  11.518  10.690   9.160 -0.3429 -0.0333  0.5463
   61loPI   C2B  974  11.671  10.329   8.877 -0.1801 -0.8358 -0.1218
   61loPI   C3B  975  12.034   9.922   8.791  0.0690 -0.0616  0.0875
   61loPI   C4B  976  11.983   9.568   8.664 -0.0306  0.5819  0.0087
   62loPI    C1  977   9.072  11.783  10.295 -0.0531 -0.0245  0.0803
   62loPI    C2  978   8.803  11.573  10.503  0.0061 -0.0991  0.0818
   62loPI    C3  979   9.148  11.681  10.674 -0.0281  0.0074  0.0838
   62loPI   PO4  980   8.836  11.989  10.174 -0.2235  0.3542  0.2322
   62loPI   GL1  981   8.772  12.144   9.715 -0.3980 -0.0873  0.2212
   62loPI   GL2  982   9.105  12.138   9.784 -0.0537  0.0231 -0.1464
   62loPI   C1A  983   8.734  12.399   9.306 -0.0858  0.0538  0.3471
   62loPI   C2A  984   8.949  12.333   8.966  0.1612 -0.2832  0.1099
   62loPI   C3A  985   8.946  12.336   8.604 -0.4472  0.0888 -0.2621
   62loPI   C4A  986   9.211  12.255   8.196  0.1232 -0.1917 -0.0394
   62loPI   C5A  987   9.659  12.196   8.001 -0.0711 -0.1517  0.1243
   62loPI   C6A  988   9.673  12.533   7.687  0.1839  0.2241  0.1327
   62loPI   C1B  989   9.025  11.935   9.353 -0.2567  0.3140  0.2814
   62loPI   C2B  990   8.895  11.878   8.943  0.1277 -0.1474 -0.2830
   62loPI   C3B  991   8.951  11.832   8.502  0.0994 -0.2105 -0.2762
   62loPI   C4B  992   9.126  11.756   8.173  0.4237 -0.0416  0.1296
   63loPI    C1  993  11.441   1.039   9.803  0.1092 -0.2020 -0.2171
   63loPI    C2  994  11.820   1.118   9.901 -0.0052 -0.0889  0.1526
   63loPI    C3  995  11.698   0.739   9.864  0.0790 -0.1314  0.3016
   63loPI   PO4  996  11.414   1.215   9.616  0.4805 -0.1977  0.0590
   63loPI   GL1  997  11.291   1.274   9.304 -0.2063 -0.3276 -0.3717
   63loPI   GL2  998  11.094   1.058   9.219 -0.5886  0.1869 -0.3868
   63loPI   C1A  999  11.514   1.425   8.964  0.3271 -0.0158 -0.1136
   63loPI   C2A 1000  11.674   1.412   8.524 -0.1711  0.2851 -0.1566
   63loPI   C3A 1001  11.686   1.391   8.084 -0.0731  0.2290  0.1661
   63loPI   C4A 1002  11.525   1.195   7.675  0.4145 -0.0138  0.2009
   63loPI   C5A 1003  11.205   0.931   7.553 -0.1886 -0.0645 -0.0114
   63loPI   C6A 1004  10.935   0.620   7.452  0.0107  0.0058 -0.0721
   63loPI   C1B 1005  11.437   0.962   8.888 -0.1163  0.2522 -0.2126
   63loPI   C2B 1006  11.499   0.877   8.434  0.0654  0.1583  0.2509
   63loPI   C3B 1007  11.542   0.809   8.005 -0.1374  0.3939  0.0076
   63loPI   C4B 1008  11.630   0.728   7.656  0.0115  0.1249  0.0222
   64loPI    C1 1009  11.659  17.013   9.730 -0.1414  0.1976  0.2049
   64loPI    C2 1010  11.276  16.963   9.834 -0.1518 -0.0077  0.0749
   64loPI    C3 1011  11.567  16.814  10.064 -0.1636 -0.1739 -0.0159
   64loPI   PO4 1012  11.727  17.180   9.578 -0.0374  0.2440 -0.0409
   64loPI   GL1 1013  11.703  17.348   9.240 -0.1646  0.1404 -0.0058
   64loPI   GL2 1014  11.407  17.110   9.174 -0.0316 -0.1915  0.0709
   64loPI   C1A 1015  11.932  17.439   8.881 -0.0059 -0.0974 -0.2970
   64loPI   C2A 1016  11.642  17.439   8.373 -0.2153  0.0699 -0.5639
   64loPI   C3A 1017  11.647  17.376   7.956 -0.2193 -0.0309  0.0561
   64loPI   C4A 1018  11.719  17.274   7.547 -0.0572 -0.5578  0.0538
   64loPI   C5A 1019  12.035  17.146   7.361 -0.0796 -0.0879  0.1921
   64loPI   C6A 1020  12.454  17.169   7.096 -0.0791 -0.1042  0.0389
   64loPI   C1B 1021  11.528  17.007   8.714 -0.1555 -0.2442 -0.1914
   64loPI   C2B 1022  11.473  16.790   8.308 -0.0843 -0.0587  0.0837
   64loPI   C3B 1023  11.621  16.850   7.848 -0.0112 -0.3279  0.1018
   64loPI   C4B 1024  11.605  16.853   7.407  0.2206  0.0614 -0.0717
   65loPI    C1 1025   4.865  11.319  10.054  0.1413  0.0475 -0.0491
   65loPI    C2 1026   4.944  11.452  10.423 -0.1653 -0.0211  0.0437
   65loPI    C3 1027   5.242  11.401  10.161  0.0448  0.1072  0.2540
   65loPI   PO4 1028   4.712  11.423   9.962 -0.1056  0.0238  0.0615
   65loPI   GL1 1029   4.626  11.366   9.656 -0.0352 -0.0266  0.3337
   65loPI   GL2 1030   4.798  11.048   9.440  0.1557  0.3010  0.2130
   65loPI   C1A 1031   4.470  11.564   9.283  0.1242  0.2430 -0.0410
   65loPI   C2A 1032   4.411  11.321   8.940 -0.1158  0.0359 -0.0434
   65loPI   C3A 1033   4.050  11.027   8.650  0.0583 -0.1589 -0.1261
   65loPI   C4A 1034   4.076  10.797   8.333  0.0396 -0.6062  0.1313
   65loPI   C5A 1035   4.029  10.933   7.932 -0.1404  0.0727 -0.1211
   65loPI   C6A 1036   4.280  10.978   7.750 -0.0702 -0.3669  0.1406
   65loPI   C1B 1037   4.914  11.235   9.097  0.0350 -0.0760  0.3375
   65loPI   C2B 1038   4.828  11.603   8.859  0.2384  0.1785 -0.2081
   65loPI   C3B 1039   4.588  11.567   8.529 -0.0442 -0.2277 -0.0101
   65loPI   C4B 1040   4.700  11.470   8.157 -0.1544 -0.1007 -0.0942
   66loPI    C1 1041  18.072  14.537   9.844 -0.1853  0.2058 -0.1590
   66loPI    C2 1042  18.229  14.612  10.204 -0.0012  0.0070 -0.1955
   66loPI    C3 1043  18.096  14.913   9.977  0.2430  0.1721 -0.1247
   66loPI   PO4 1044  18.032  14.293   9.845  0.0955  0.0299 -0.1068
   66loPI   GL1 1045  18.112  14.071   9.433 -0.2239  0.6155  0.1405
   66loPI   GL2 1046  18.219  14.426   9.370 -0.1150  0.5535 -0.1686
   66loPI   C1A 1047  18.571  14.099   9.137 -0.0489 -0.4552  0.3549
   66loPI   C2A 1048  18.701  14.150   8.734  0.4621 -0.1902  0.4257
   66loPI   C3A 1049  19.053  14.225   8.442 -0.1897 -0.0761 -0.0194
   66loPI   C4A 1050  19.399  14.018   8.301 -0.0005  0.1753 -0.0930
   66loPI   C5A 1051  19.805  14.099   8.156 -0.4637 -0.1128  0.1812
   66loPI   C6A 1052  20.198  13.994   8.063  0.1323 -0.0399 -0.1883
   66loPI   C1B 1053  18.246  14.460   9.031  0.0513  0.2072  0.1369
   66loPI   C2B 1054  18.323  14.503   8.598  0.0449  0.3450  0.1438
   66loPI   C3B 1055  18.601  14.389   8.263 -0.0346  0.2346 -0.1533
   66loPI   C4B 1056  18.952  14.394   7.935 -0.1923  0.0255  0.1172
   67loPI    C1 1057   5.425   3.501  10.507 -0.1657  0.0063 -0.0115
   67loPI    C2 1058   5.313   3.131  10.609  0.0531 -0.1007 -0.1514
   67loPI    C3 1059   5.260   3.434  10.865 -0.1925 -0.2149 -0.0642
   67loPI   PO4 1060   5.370   3.451  10.211 -0.0526  0.2651 -0.0074
   67loPI   GL1 1061   5.181   3.656   9.832 -0.3241 -0.2037 -0.1068
   67loPI   GL2 1062   5.276   3.382   9.695 -0.3748  0.0664 -0.1559
   67loPI   C1A 1063   5.367   3.813   9.447 -0.1003 -0.1814 -0.2364
   67loPI   C2A 1064   5.335   3.805   9.000 -0.3709  0.2763 -0.1560
   67loPI   C3A 1065   5.528   3.636   8.697  0.1034  0.0545 -0.1724
   67loPI   C4A 1066   5.565   3.705   8.338 -0.2690  0.3382 -0.0648
   67loPI   C5A 1067   5.450   3.736   7.969 -0.0198  0.2974 -0.0805
   67loPI   C6A 1068   5.086   3.577   7.778  0.0083  0.0760  0.2378
   67loPI   C1B 1069   5.356   3.354   9.195 -0.1971  0.0449 -0.2677
   67loPI   C2B 1070   5.230   3.265   8.924 -0.0248 -0.2025  0.0090
   67loPI   C3B 1071   5.415   3.050   8.673  0.2667  0.0309 -0.0948
   67loPI   C4B 1072   5.625   2.720   8.462  0.1904 -0.3523 -0.0302
   68loPI    C1 1073   5.840  10.442  10.082 -0.0613 -0.5281 -0.2570
   68loPI    C2 1074   6.121  10.293  10.325 -0.0245  0.0281  0.0594
   68loPI    C3 1075   5.761  10.388  10.471  0.0030  0.3838 -0.0950
   68loPI   PO4 1076   5.950  10.635   9.936 -0.2437 -0.2105  0.1282
   68loPI   GL1 1077   6.008  10.852   9.685 -0.0515  0.4117 -0.3062
   68loPI   GL2 1078   5.804  10.918   9.492  0.3923 -0.0393 -0.0890
   68loPI   C1A 1079   6.384  10.947   9.460 -0.1777 -0.1617 -0.1454
   68loPI   C2A 1080   6.369  11.050   9.066 -0.1132 -0.1714 -0.1194
   68loPI   C3A 1081   6.538  11.008   8.676  0.1166 -0.0570 -0.0375
   68loPI   C4A 1082   6.760  11.172   8.255 -0.0404 -0.0141  0.0930
   68loPI   C5A 1083   6.537  11.016   7.854 -0.0615  0.0155 -0.0792
   68loPI   C6A 1084   6.202  11.122   7.609 -0.0951 -0.1530 -0.0360
   68loPI   C1B 1085   5.988  10.690   9.176 -0.2513  0.1290  0.2041
   68loPI   C2B 1086   6.126  10.747   8.692 -0.5050  0.1280  0.0338
   68loPI   C3B 1087   6.254  10.732   8.206  0.1911 -0.1925  0.4023
   68loPI   C4B 1088   6.078  10.643   7.738  0.2413  0.1535 -0.4172
   69loPI    C1 1089   9.674  16.351  10.280 -0.0981 -0.1088  0.1031
   69loPI    C2 1090  10.071  16.303  10.285 -0.0649  0.1242 -0.1166
   69loPI    C3 1091   9.871  16.346  10.628  0.0574 -0.3049  0.0144
   69loPI   PO4 1092   9.624  16.370  10.010 -0.1228 -0.1936  0.4084
   69loPI   GL1 1093   9.470  16.252   9.571 -0.3091  0.1096  0.0311
   69loPI   GL2 1094   9.808  16.415   9.469  0.0215  0.1846  0.1648
   69loPI   C1A 1095   9.454  16.324   9.100 -0.1787  0.1439 -0.0483
   69loPI   C2A 1096   9.433  16.280   8.584  0.2186  0.1437  0.1203
   69loPI   C3A 1097   9.538  16.250   8.096 -0.0414 -0.3129 -0.0131
   69loPI   C4A 1098   9.600  16.509   7.784  0.2800 -0.0265 -0.1115
   69loPI   C5A 1099   9.949  16.492   7.473 -0.0841 -0.0030  0.2210
   69loPI   C6A 1100  10.277  16.552   7.166 -0.2910  0.1333 -0.2493
   69loPI   C1B 1101   9.556  16.781   9.191  0.0057  0.0646 -0.1927
   69loPI   C2B 1102   9.603  17.024   8.852  0.1426 -0.1641 -0.0874
   69loPI   C3B 1103   9.550  17.199   8.413  0.1511 -0.2056 -0.2451
   69loPI   C4B 1104   9.888  17.359   8.041  0.0554  0.2570 -0.1362
   70loPI    C1 1105  15.984  15.024  10.045  0.0136  0.0539  0.0726
   70loPI    C2 1106  15.814  14.706   9.871  0.0578 -0.1467  0.3881
   70loPI    C3 1107  15.599  14.939  10.115  0.0608 -0.0091  0.2607
   70loPI   PO4 1108  16.121  15.145   9.892 -0.0525  0.5280 -0.1347
   70loPI   GL1 1109  16.188  15.364   9.578  0.0978  0.2997  0.0315
   70loPI   GL2 1110  16.505  15.594   9.533 -0.0258  0.0468  0.0866
   70loPI   C1A 1111  16.175  15.425   9.218  0.0988 -0.1142 -0.0562
   70loPI   C2A 1112  16.013  15.401   8.795  0.2578  0.1827 -0.1526
   70loPI   C3A 1113  15.931  15.248   8.374 -0.1322 -0.1531  0.0905
   70loPI   C4A 1114  15.729  15.450   8.054 -0.1075 -0.1059 -0.2333
   70loPI   C5A 1115  15.844  15.603   7.626 -0.0245 -0.0675  0.2677
   70loPI   C6A 1116  15.877  15.546   7.268  0.1269 -0.1355  0.0598
   70loPI   C1B 1117  16.659  15.427   9.109 -0.1403 -0.2573  0.0793
   70loPI   C2B 1118  16.779  15.398   8.628 -0.4759 -0.0722  0.2316
   70loPI   C3B 1119  17.085  15.535   8.340 -0.1499  0.3408 -0.2105
   70loPI   C4B 1120  17.525  15.443   8.117 -0.3051  0.1675  0.0272
   71loPI    C1 1121  14.052   9.997  10.024  0.1712 -0.0274 -0.0382
   71loPI    C2 1122  14.340   9.835  10.249 -0.0553 -0.1594  0.1610
   71loPI    C3 1123  14.004   9.969  10.420 -0.0117  0.2209 -0.0403
   71loPI   PO4 1124  14.126   9.968   9.783 -0.2197 -0.1288 -0.1323
   71loPI   GL1 1125  14.245   9.806   9.354 -0.0078  0.2539 -0.1166
   71loPI   GL2 1126  14.421  10.017   9.421 -0.1521 -0.1956 -0.2651
   71loPI   C1A 1127  14.405  10.008   8.955  0.6555 -0.0240  0.0791
   71loPI   C2A 1128  14.474  10.041   8.518  0.3535 -0.2358 -0.4389
   71loPI   C3A 1129  14.830   9.815   8.221 -0.0335 -0.2675 -0.0842
   71loPI   C4A 1130  15.211   9.609   8.345  0.1885 -0.1384 -0.1052
   71loPI   C5A 1131  15.635   9.613   8.302  0.0669 -0.0607 -0.1034
   71loPI   C6A 1132  15.930   9.781   7.962  0.0269 -0.0323  0.0570
   71loPI   C1B 1133  13.996  10.210   9.198  0.0393  0.1806 -0.0452
   71loPI   C2B 1134  13.605  10.331   8.861 -0.2148 -0.0171 -0.0721
   71loPI   C3B 1135  13.558  10.520   8.505  0.2645 -0.1475  0.2986
   71loPI   C4B 1136  13.413  10.561   8.145  0.1153  0.1586  0.3855
   72loPI    C1 1137   3.740   7.424  10.435 -0.0966 -0.1733  0.1927
   72loPI    C2 1138   3.562   7.781  10.405 -0.0294 -0.1598 -0.0711
   72loPI    C3 1139   3.588   7.600  10.760  0.0384  0.1500  0.0852
   72loPI   PO4 1140   3.660   7.282  10.179  0.3075 -0.3095 -0.0989
   72loPI   GL1 1141   3.912   7.095   9.797 -0.1117  0.0511  0.3293
   72loPI   GL2 1142   4.137   6.903   9.665  0.1677  0.2008 -0.0939
   72loPI   C1A 1143   3.659   7.041   9.382 -0.1715 -0.1375  0.0122
   72loPI   C2A 1144   3.808   7.049   8.960 -0.1768 -0.1848 -0.1799
   72loPI   C3A 1145   4.074   6.782   8.729 -0.0034 -0.0321  0.1155
   72loPI   C4A 1146   4.331   6.539   8.500  0.1399 -0.1544 -0.0194
   72loPI   C5A 1147   4.537   6.191   8.326 -0.1702  0.0995 -0.0508
   72loPI   C6A 1148   4.706   5.824   8.085  0.0239  0.1223 -0.0285
   72loPI   C1B 1149   4.193   6.999   9.314 -0.0644  0.0767 -0.0296
   72loPI   C2B 1150   4.286   7.237   8.872 -0.1658 -0.0051  0.1952
   72loPI   C3B 1151   4.233   7.237   8.504 -0.0580  0.2135 -0.0110
   72loPI   C4B 1152   4.093   7.408   8.084 -0.2210  0.1834  0.0266
   73loPI    C1 1153  10.488  13.503  10.692  0.0631 -0.0388 -0.1282
   73loPI    C2 1154  10.132  13.320  10.694 -0.0561  0.1902 -0.0789
   73loPI    C3 1155  10.169  13.688  10.847  0.2383  0.1017  0.0709
   73loPI   PO4 1156  10.580  13.319  10.455  0.5895  0.0304 -0.1886
   73loPI   GL1 1157  10.357  13.187   9.976  0.0690 -0.3839 -0.1073
   73loPI   GL2 1158  10.678  13.378   9.646 -0.0194 -0.3064  0.0995
   73loPI   C1A 1159  10.279  13.040   9.510  0.0145 -0.1043  0.0636
   73loPI   C2A 1160  10.183  13.126   9.040 -0.2321 -0.0756  0.1401
   73loPI   C3A 1161  10.134  13.131   8.627  0.2282 -0.1954 -0.0143
   73loPI   C4A 1162  10.174  13.127   8.339  0.0504 -0.0067  0.0107
   73loPI   C5A 1163  10.289  13.200   8.027  0.1211  0.1575 -0.0848
   73loPI   C6A 1164  10.613  13.037   7.857  0.2268 -0.0303  0.2030
   73loPI   C1B 1165  10.901  13.603   9.262  0.0666  0.3166 -0.1119
   73loPI   C2B 1166  11.041  13.671   8.892  0.2290 -0.0784  0.3068
   73loPI   C3B 1167  10.825  13.581   8.477 -0.4212 -0.0242 -0.0031
   73loPI   C4B 1168  10.719  13.460   8.111 -0.1609  0.0344 -0.0497
   74loPI    C1 1169  17.269  10.279   9.903 -0.0589 -0.0996 -0.0719
   74loPI    C2 1170  17.330   9.968  10.147 -0.1718 -0.0694 -0.0042
   74loPI    C3 1171  16.962  10.118  10.104 -0.1184  0.0521 -0.0402
   74loPI   PO4 1172  17.466  10.268   9.763  0.3077 -0.1588 -0.0251
   74loPI   GL1 1173  17.656  10.470   9.439  0.2053 -0.2032 -0.5518
   74loPI   GL2 1174  18.035  10.539   9.398  0.3605  0.1703  0.0079
   74loPI   C1A 1175  17.651  10.433   8.998  0.0114  0.0341 -0.0694
   74loPI   C2A 1176  18.057  10.167   8.702  0.1348  0.2492  0.0775
   74loPI   C3A 1177  18.142   9.982   8.356 -0.1821 -0.1737  0.0251
   74loPI   C4A 1178  17.986   9.629   8.072 -0.0364 -0.3357 -0.2829
   74loPI   C5A 1179  17.781   9.579   7.765  0.1104 -0.0429  0.0663
   74loPI   C6A 1180  17.406   9.698   7.648 -0.3478  0.3422 -0.0658
   74loPI   C1B 1181  18.360  10.756   9.178  0.0229 -0.1511 -0.0525
   74loPI   C2B 1182  18.436  10.893   8.752  0.3788  0.4198 -0.1328
   74loPI   C3B 1183  18.529  11.319   8.652 -0.3026  0.0622 -0.0727
   74loPI   C4B 1184  18.672  11.420   8.245 -0.3337 -0.2214 -0.4442
   75loPI    C1 1185  13.081   9.944   9.630 -0.1262 -0.1493 -0.0461
   75loPI    C2 1186  13.328  10.163   9.855  0.1458 -0.2568 -0.2355
   75loPI    C3 1187  13.051  10.343   9.630  0.3247 -0.1085 -0.3403
   75loPI   PO4 1188  13.181   9.671   9.620 -0.1613  0.1366  0.0477
   75loPI   GL1 1189  13.385   9.420   9.386  0.0517  0.0930  0.1743
   75loPI   GL2 1190  13.594   9.250   9.329  0.1167 -0.3982  0.0091
   75loPI   C1A 1191  13.373   9.494   8.892 -0.1051  0.0176 -0.0913
   75loPI   C2A 1192  13.377   9.424   8.436  0.0438 -0.1921  0.1937
   75loPI   C3A 1193  13.261   9.757   8.179 -0.0662 -0.1940  0.1882
   75loPI   C4A 1194  13.520  10.080   7.996 -0.1224 -0.4457 -0.1920
   75loPI   C5A 1195  13.637   9.937   7.691 -0.0386 -0.1711  0.1316
   75loPI   C6A 1196  14.053   9.815   7.653 -0.3414  0.2401  0.2969
   75loPI   C1B 1197  13.868   9.268   8.875 -0.2182  0.0071  0.0276
   75loPI   C2B 1198  13.851   9.339   8.395 -0.2667  0.1005 -0.1694
   75loPI   C3B 1199  13.724   9.591   8.028  0.0181  0.0886 -0.3011
   75loPI   C4B 1200  13.669   9.415   7.589 -0.3144  0.0481 -0.3579
   76loPI    C1 1201  11.998   0.184   9.810 -0.0008 -0.2292 -0.0704
   76loPI    C2 1202  12.271  -0.059   9.973  0.0341 -0.1392  0.0065
   76loPI    C3 1203  11.984  -0.209   9.737  0.0312 -0.2598  0.0859
   76loPI   PO4 1204  12.150   0.414   9.637 -0.1889  0.0267  0.3649
   76loPI   GL1 1205  12.020   0.420   9.207  0.1041  0.4211 -0.0091
   76loPI   GL2 1206  11.942   0.655   9.133 -0.0257 -0.2788  0.1827
   76loPI   C1A 1207  11.977   0.373   8.744  0.0551  0.1617  0.0882
   76loPI   C2A 1208  12.124   0.264   8.449 -0.1737  0.2135 -0.4270
   76loPI   C3A 1209  12.205   0.264   8.108  0.0235  0.0824 -0.2484
   76loPI   C4A 1210  12.045   0.212   7.723 -0.0727  0.0986 -0.1352
   76loPI   C5A 1211  11.871   0.328   7.364  0.0959 -0.0441 -0.3172
   76loPI   C6A 1212  11.831   0.705   7.201 -0.5059 -0.1888 -0.0708
   76loPI   C1B 1213  11.921   0.858   8.729  0.1548  0.0688 -0.1363
   76loPI   C2B 1214  11.954   0.732   8.309 -0.4913  0.1908  0.0460
   76loPI   C3B 1215  12.054   0.805   7.965 -0.0685 -0.0676 -0.0704
   76loPI   C4B 1216  12.169   0.760   7.610 -0.3161 -0.2714 -0.2740
   77loPI    C1 1217   2.789   6.307  10.328  0.0257 -0.0989 -0.0782
   77loPI    C2 1218   2.625   6.466  10.657 -0.1191 -0.0521 -0.1724
   77loPI    C3 1219   2.817   6.116  10.679 -0.0122  0.0154 -0.0123
   77loPI   PO4 1220   2.726   6.327  10.040 -0.1027  0.1258  0.1495
   77loPI   GL1 1221   2.883   6.441   9.534 -0.3605 -0.3385  0.0196
   77loPI   GL2 1222   3.182   6.322   9.750 -0.2531 -0.0321 -0.1438
   77loPI   C1A 1223   2.709   6.491   9.093  0.0006  0.1245 -0.0131
   77loPI   C2A 1224   2.666   6.412   8.665  0.1788 -0.6247  0.0309
   77loPI   C3A 1225   2.818   6.535   8.268  0.0415 -0.1994 -0.3537
   77loPI   C4A 1226   2.998   6.764   7.921  0.0755 -0.3830 -0.0767
   77loPI   C5A 1227   3.296   6.611   7.705 -0.5354  0.0332 -0.1922
   77loPI   C6A 1228   3.438   6.516   7.408  0.1543  0.1559 -0.1189
   77loPI   C1B 1229   3.372   6.571   9.432  0.0957  0.1886 -0.1378
   77loPI   C2B 1230   3.259   6.510   9.062 -0.0058 -0.1817 -0.0024
   77loPI   C3B 1231   3.136   6.603   8.667  0.2112  0.0008 -0.1379
   77loPI   C4B 1232   3.384   6.647   8.251 -0.1113  0.2930  0.3434
   78loPI    C1 1233   3.181   9.675  10.237  0.2159  0.1525  0.0529
   78loPI    C2 1234   3.459   9.470  10.034 -0.2158 -0.1617 -0.2398
   78loPI    C3 1235   3.179   9.275  10.242 -0.1103  0.1530  0.2139
   78loPI   PO4 1236   3.170   9.862  10.019  0.3168  0.2696  0.0620
   78loPI   GL1 1237   3.133   9.661   9.646 -0.0116 -0.0302 -0.1730
   78loPI   GL2 1238   2.914   9.442   9.780 -0.1213 -0.1021 -0.1761
   78loPI   C1A 1239   3.378   9.786   9.260  0.3059 -0.0544 -0.2690
   78loPI   C2A 1240   3.515   9.850   8.869  0.0852  0.1101 -0.2457
   78loPI   C3A 1241   3.322   9.883   8.540  0.1139 -0.0586  0.0603
   78loPI   C4A 1242   3.396   9.641   8.226 -0.2133 -0.1508 -0.0116
   78loPI   C5A 1243   3.520   9.314   7.886  0.0432  0.3580  0.2305
   78loPI   C6A 1244   3.707   9.268   7.486 -0.1353  0.0390  0.0811
   78loPI   C1B 1245   3.056   9.381   9.323  0.2868  0.2274  0.3325
   78loPI   C2B 1246   3.100   9.558   8.892  0.2760 -0.1413  0.1067
   78loPI   C3B 1247   2.976   9.355   8.403 -0.0337  0.3274 -0.0091
   78loPI   C4B 1248   2.630   9.459   8.100  0.2237 -0.2435 -0.0044
   79loPI    C1 1249  12.957   1.889  10.038 -0.0738 -0.0166  0.1218
   79loPI    C2 1250  12.581   1.764  10.095 -0.0743 -0.0784 -0.0124
   79loPI    C3 1251  12.784   1.934  10.396 -0.1907 -0.0934  0.0753
   79loPI   PO4 1252  12.952   1.850   9.676  0.2784 -0.0462  0.1288
   79loPI   GL1 1253  12.812   1.630   9.313  0.0211  0.1982  0.0088
   79loPI   GL2 1254  12.491   1.603   9.202 -0.3668  0.1066 -0.0588
   79loPI   C1A 1255  12.948   1.675   9.014 -0.1818  0.1873  0.0933
   79loPI   C2A 1256  12.959   1.521   8.585 -0.1013  0.2441  0.2622
   79loPI   C3A 1257  12.846   1.475   8.161 -0.0534  0.1881  0.1800
   79loPI   C4A 1258  12.969   1.215   7.803 -0.1826 -0.1443  0.0818
   79loPI   C5A 1259  13.256   1.259   7.556 -0.0856 -0.2690 -0.1974
   79loPI   C6A 1260  13.640   1.004   7.439  0.1118 -0.1210 -0.0956
   79loPI   C1B 1261  12.474   1.748   8.822 -0.1647 -0.0426 -0.2148
   79loPI   C2B 1262  12.499   1.763   8.371  0.2622 -0.0731  0.1396
   79loPI   C3B 1263  12.409   1.630   7.961  0.1552 -0.1244  0.2467
   79loPI   C4B 1264  12.636   1.525   7.573  0.0226  0.3923 -0.0882
   80loPI    C1 1265   9.156  18.190   9.941  0.2904  0.0615  0.2424
   80loPI    C2 1266   9.535  18.066   9.968  0.2422 -0.0904  0.2334
   80loPI    C3 1267   9.236  17.806  10.020  0.1397  0.0003  0.1048
   80loPI   PO4 1268   9.133  18.366   9.758 -0.2365 -0.0087 -0.1378
   80loPI   GL1 1269   9.263  18.692   9.525 -0.2693 -0.0516 -0.2471
   80loPI   GL2 1270   8.953  18.809   9.398 -0.0082  0.0796  0.0203
   80loPI   C1A 1271   9.369  18.472   9.157 -0.1273  0.0739  0.3564
   80loPI   C2A 1272   9.596  18.282   8.873  0.0130  0.0134 -0.2204
   80loPI   C3A 1273   9.574  18.210   8.480 -0.0875  0.1256  0.0134
   80loPI   C4A 1274   9.662  18.111   7.986 -0.0590 -0.1496  0.0379
   80loPI   C5A 1275   9.891  17.987   7.551  0.4705 -0.1987 -0.3189
   80loPI   C6A 1276  10.242  18.068   7.348 -0.2432  0.1239  0.4177
   80loPI   C1B 1277   8.814  18.754   8.897 -0.1678  0.2790 -0.2194
   80loPI   C2B 1278   8.608  18.723   8.490 -0.1171 -0.5584 -0.1321
   80loPI   C3B 1279   8.687  18.890   8.075  0.1633 -0.0872 -0.1494
   80loPI   C4B 1280   8.844  19.164   7.770 -0.1698 -0.4087  0.0391
   81loPI    C1 1281  10.334   1.948   9.893 -0.2136 -0.1145  0.0480
   81loPI    C2 1282  10.206   2.115  10.233  0.0368 -0.0690  0.1225
   81loPI    C3 1283  10.256   1.719  10.211  0.1512 -0.0583  0.1835
   81loPI   PO4 1284  10.203   1.992   9.729 -0.0822 -0.2141 -0.2764
   81loPI   GL1 1285  10.299   1.813   9.323  0.1386  0.2945  0.0978
   81loPI   GL2 1286  10.135   2.161   9.296  0.2643 -0.0656  0.3753
   81loPI   C1A 1287  10.542   1.901   8.887 -0.0363 -0.2431 -0.3374
   81loPI   C2A 1288  10.460   2.061   8.544 -0.0360  0.0364  0.0891
   81loPI   C3A 1289  10.307   2.426   8.471  0.2782  0.0450 -0.1808
   81loPI   C4A 1290  10.083   2.641   8.309  0.5014 -0.0933  0.1129
   81loPI   C5A 1291   9.756   3.019   8.381 -0.2026 -0.0253 -0.1915
   81loPI   C6A 1292   9.417   2.952   8.102  0.0372  0.2674  0.2054
   81loPI   C1B 1293  10.017   2.168   8.801 -0.2155  0.1401 -0.2077
   81loPI   C2B 1294   9.941   2.058   8.353  0.0084  0.1559 -0.0492
   81loPI   C3B 1295  10.185   2.133   8.029 -0.1394 -0.0325 -0.1723
   81loPI   C4B 1296  10.562   1.924   7.856  0.1215  0.3074  0.0576
   82loPI    C1 1297  12.224  17.812   9.974 -0.3372 -0.3393 -0.0136
   82loPI    C2 1298  11.904  18.000  10.123 -0.3578 -0.2019 -0.2267
   82loPI    C3 1299  12.126  17.765  10.359 -0.3655  0.0425  0.0296
   82loPI   PO4 1300  12.244  17.912   9.702  0.0601 -0.0506 -0.3226
   82loPI   GL1 1301  12.312  17.749   9.256 -0.3504 -0.3071 -0.2557
   82loPI   GL2 1302  12.081  17.925   9.252 -0.3117  0.0858 -0.0745
   82loPI   C1A 1303  12.449  17.656   8.875 -0.1141  0.5094  0.0791
   82loPI   C2A 1304  12.609  17.595   8.406 -0.0944 -0.0740 -0.3278
   82loPI   C3A 1305  12.581  17.732   7.986  0.1473  0.1916 -0.0616
   82loPI   C4A 1306  12.576  17.832   7.544  0.0079  0.0931  0.4110
   82loPI   C5A 1307  12.766  18.166   7.262 -0.2299 -0.0476 -0.1002
   82loPI   C6A 1308  13.088  18.673   7.265 -0.1059  0.0168 -0.1142
   82loPI   C1B 1309  11.700  17.882   9.077 -0.1013 -0.0970  0.0857
   82loPI   C2B 1310  11.538  17.935   8.692  0.1465 -0.1287 -0.3800
   82loPI   C3B 1311  11.549  17.912   8.334 -0.0338 -0.1682  0.1117
   82loPI   C4B 1312  11.569  18.051   7.849  0.1195 -0.0549 -0.0080
   83loPI    C1 1313   7.721  10.708  10.222 -0.0954 -0.0366 -0.1019
   83loPI    C2 1314   7.857  10.673  10.597 -0.1861  0.1532 -0.0498
   83loPI    C3 1315   7.583  10.417  10.458 -0.0159 -0.0318 -0.0489
   83loPI   PO4 1316   7.707  11.007  10.203  0.2156  0.0549  0.0498
   83loPI   GL1 1317   8.050  11.236   9.967 -0.0977  0.1053 -0.2715
   83loPI   GL2 1318   7.828  11.330   9.833  0.0110 -0.0103 -0.0727
   83loPI   C1A 1319   8.325  11.256   9.686 -0.0929 -0.1962 -0.0406
   83loPI   C2A 1320   8.606  11.372   9.507  0.1806  0.1066 -0.1911
   83loPI   C3A 1321   8.550  11.730   9.375  0.0330 -0.0862  0.4582
   83loPI   C4A 1322   8.428  11.987   9.059  0.1094  0.1301 -0.1391
   83loPI   C5A 1323   8.483  12.030   8.633 -0.1410  0.2407  0.2254
   83loPI   C6A 1324   8.657  12.028   8.143  0.0074 -0.0909 -0.1534
   83loPI   C1B 1325   7.630  11.209   9.426  0.0162  0.1086 -0.0524
   83loPI   C2B 1326   7.714  11.113   9.066  0.1120 -0.0659  0.3034
   83loPI   C3B 1327   7.780  11.199   8.661  0.1694  0.0854 -0.3684
   83loPI   C4B 1328   7.772  11.437   8.168 -0.4443  0.1068 -0.2010
   84loPI    C1 1329   3.931  13.710  10.114 -0.4043 -0.1399 -0.0149
   84loPI    C2 1330   4.244  13.926   9.991 -0.2048 -0.4449 -0.0539
   84loPI    C3 1331   3.958  14.097  10.212 -0.1664 -0.0884 -0.2718
   84loPI   PO4 1332   3.910  13.528   9.849  0.3536  0.0175 -0.3452
   84loPI   GL1 1333   3.880  13.493   9.425  0.1832 -0.1884 -0.0916
   84loPI   GL2 1334   3.718  13.725   9.313 -0.0661  0.1602  0.5301
   84loPI   C1A 1335   4.220  13.441   9.167 -0.0571 -0.1881 -0.0474
   84loPI   C2A 1336   4.455  13.406   8.764 -0.0723 -0.0977  0.2007
   84loPI   C3A 1337   4.328  13.443   8.264  0.0447 -0.1933 -0.2020
   84loPI   C4A 1338   4.398  13.222   7.884 -0.0726 -0.2390 -0.0290
   84loPI   C5A 1339   4.765  13.368   7.588  0.0666  0.0336 -0.0109
   84loPI   C6A 1340   5.270  13.387   7.516  0.1575  0.2336 -0.0327
   84loPI   C1B 1341   3.778  13.732   8.851 -0.1732 -0.0855  0.0162
   84loPI   C2B 1342   4.111  13.850   8.543 -0.0866 -0.0796 -0.3283
   84loPI   C3B 1343   4.352  13.964   8.184  0.1091 -0.3977 -0.1010
   84loPI   C4B 1344   4.373  14.300   7.846 -0.3528 -0.0691  0.0213
   85loPI    C1 1345   3.269  10.700   9.940  0.0580  0.1787 -0.0118
   85loPI    C2 1346   3.405  10.350  10.078  0.0264  0.0916 -0.1978
   85loPI    C3 1347   3.284  10.633  10.334 -0.1412 -0.1105 -0.0505
   85loPI   PO4 1348   3.499  10.764   9.767  0.1224 -0.4022  0.0355
   85loPI   GL1 1349   3.821  10.720   9.606  0.0485  0.0078  0.0105
   85loPI   GL2 1350   3.823  10.347   9.581 -0.1775 -0.1460 -0.0133
   85loPI   C1A 1351   3.828  10.800   9.138 -0.2173 -0.1517 -0.2459
   85loPI   C2A 1352   3.570  10.699   8.841  0.0710 -0.0462 -0.1091
   85loPI   C3A 1353   3.444  10.538   8.408 -0.1424 -0.1345  0.3788
   85loPI   C4A 1354   3.384  10.124   8.071  0.1192 -0.1303 -0.2602
   85loPI   C5A 1355   3.147   9.720   7.851 -0.0441 -0.1765  0.1355
   85loPI   C6A 1356   3.030   9.246   7.873  0.4661  0.1745  0.1229
   85loPI   C1B 1357   3.543  10.285   9.303 -0.0921  0.2308  0.0173
   85loPI   C2B 1358   3.202  10.215   9.038 -0.1597 -0.1252  0.3058
   85loPI   C3B 1359   2.981  10.065   8.786  0.0737  0.0795 -0.1528
   85loPI   C4B 1360   2.946  10.283   8.402 -0.0258 -0.1364  0.1994
   86loPI    C1 1361   2.038  10.576  10.186 -0.2239 -0.2672 -0.0120
   86loPI    C2 1362   2.256  10.522  10.518  0.0328 -0.0510 -0.1418
   86loPI    C3 1363   1.859  10.476  10.530  0.0398 -0.0491  0.1940
   86loPI   PO4 1364   2.156  10.724  10.052  0.0681  0.2598  0.1595
   86loPI   GL1 1365   2.355  10.587   9.670  0.0700  0.0927 -0.0888
   86loPI   GL2 1366   2.318  10.926   9.617  0.3051  0.2804 -0.0095
   86loPI   C1A 1367   2.352  10.281   9.307  0.1650  0.1933 -0.0768
   86loPI   C2A 1368   2.403  10.115   8.859  0.4095 -0.1555 -0.0496
   86loPI   C3A 1369   2.288  10.259   8.471  0.1641  0.0661  0.1389
   86loPI   C4A 1370   2.488  10.234   8.158 -0.0424  0.0044 -0.1198
   86loPI   C5A 1371   2.600   9.900   7.847 -0.1119  0.0139  0.1533
   86loPI   C6A 1372   2.820   9.808   7.482 -0.0424  0.2042 -0.1021
   86loPI   C1B 1373   2.514  10.885   9.200  0.2526  0.1447  0.0624
   86loPI   C2B 1374   2.788  10.920   8.912 -0.0356 -0.0940  0.1948
   86loPI   C3B 1375   3.100  10.855   8.619 -0.1419  0.0462 -0.0602
   86loPI   C4B 1376   3.081  10.779   8.164 -0.0019  0.0377  0.1632
   87loPI    C1 1377   7.700  15.463  10.035  0.2251 -0.0899  0.1558
   87loPI    C2 1378   7.822  15.289  10.374  0.3592 -0.0438  0.1318
   87loPI    C3 1379   7.650  15.650  10.385 -0.0098 -0.2171  0.1920
   87loPI   PO4 1380   7.941  15.424   9.847  0.1953 -0.4319 -0.1071
   87loPI   GL1 1381   8.207  15.475   9.422  0.1884 -0.4222 -0.1264
   87loPI   GL2 1382   7.842  15.576   9.321  0.0270  0.1399 -0.0844
   87loPI   C1A 1383   8.334  15.694   9.119  0.2598 -0.0112 -0.2238
   87loPI   C2A 1384   8.426  15.730   8.712  0.2083 -0.0434 -0.1534
   87loPI   C3A 1385   8.527  15.771   8.316  0.2694 -0.2677 -0.0505
   87loPI   C4A 1386   8.673  15.945   7.854 -0.1430  0.4261 -0.0106
   87loPI   C5A 1387   8.893  15.827   7.479  0.1323 -0.0827 -0.0472
   87loPI   C6A 1388   9.259  15.780   7.326  0.0102 -0.0413 -0.1398
   87loPI   C1B 1389   7.909  15.303   9.062  0.2684 -0.2373 -0.1145
   87loPI   C2B 1390   8.010  15.006   8.624  0.2246 -0.1447  0.1199
   87loPI   C3B 1391   8.123  15.075   8.219 -0.0925 -0.1330 -0.0566
   87loPI   C4B 1392   8.116  15.049   7.692  0.3085  0.2318  0.1037
   88loPI    C1 1393   6.719  17.679  10.493 -0.0307 -0.0324 -0.1980
   88loPI    C2 1394   6.949  17.810  10.794 -0.1169  0.1625 -0.2161
   88loPI    C3 1395   7.031  17.461  10.617 -0.1289 -0.0057  0.1044
   88loPI   PO4 1396   6.715  17.835  10.284  0.0298  0.0160  0.0945
   88loPI   GL1 1397   6.483  17.909   9.916 -0.1575  0.0481  0.2913
   88loPI   GL2 1398   6.639  17.694   9.807  0.1741  0.0598 -0.1066
   88loPI   C1A 1399   6.639  18.221   9.677  0.2564  0.3793 -0.4135
   88loPI   C2A 1400   6.671  18.319   9.187 -0.0975  0.0777 -0.1373
   88loPI   C3A 1401   6.439  18.364   8.775  0.1820 -0.1099  0.3299
   88loPI   C4A 1402   6.291  18.560   8.439 -0.1146 -0.1065 -0.0814
   88loPI   C5A 1403   6.160  18.415   8.068  0.1727 -0.0697  0.1509
   88loPI   C6A 1404   6.180  17.978   7.910  0.0099 -0.0734 -0.0334
   88loPI   C1B 1405   6.927  17.858   9.445  0.1074  0.2249  0.1049
   88loPI   C2B 1406   7.254  17.769   9.348 -0.0099  0.0194  0.0447
   88loPI   C3B 1407   7.491  17.908   8.999  0.1918 -0.0387  0.0538
   88loPI   C4B 1408   7.484  17.810   8.653  0.2987  0.0331  0.1147
   89loPI    C1 1409  12.282   6.054  10.014 -0.3399  0.2142  0.0302
   89loPI    C2 1410  12.418   5.677  10.013  0.0163  0.3387 -0.0657
   89loPI    C3 1411  12.164   5.797  10.298 -0.0460  0.0464  0.0054
   89loPI   PO4 1412  12.194   6.140   9.771  0.0163  0.2685 -0.0015
   89loPI   GL1 1413  12.115   6.459   9.458  0.2083  0.1002  0.0480
   89loPI   GL2 1414  12.317   6.835   9.392 -0.1040  0.1700 -0.3263
   89loPI   C1A 1415  11.960   6.472   9.061 -0.2925  0.3041 -0.1279
   89loPI   C2A 1416  11.836   6.266   8.618  0.1455  0.1315  0.1035
   89loPI   C3A 1417  11.479   6.172   8.274  0.3665  0.0458 -0.4688
   89loPI   C4A 1418  11.463   6.025   7.799 -0.3799  0.1343 -0.0079
   89loPI   C5A 1419  11.836   5.894   7.534  0.1234  0.3066 -0.2304
   89loPI   C6A 1420  12.133   6.152   7.514  0.1402 -0.1603  0.3356
   89loPI   C1B 1421  12.443   6.677   9.092  0.4624  0.0068  0.1236
   89loPI   C2B 1422  12.301   6.692   8.647  0.3276  0.2983 -0.0852
   89loPI   C3B 1423  12.285   6.616   8.210 -0.3529  0.0926  0.0049
   89loPI   C4B 1424  12.238   6.580   7.737  0.0599  0.0063  0.0449
   90loPI    C1 1425  10.729   8.957   9.750 -0.0774 -0.0410 -0.1105
   90loPI    C2 1426  10.784   9.038  10.138  0.1459 -0.1272 -0.1227
   90loPI    C3 1427  11.093   8.922   9.912  0.0190 -0.0681 -0.3294
   90loPI   PO4 1428  10.587   9.244   9.621 -0.0262  0.0597  0.0237
   90loPI   GL1 1429  10.578   9.332   9.231 -0.1893  0.0807 -0.1774
   90loPI   GL2 1430  10.833   9.414   9.067 -0.1457  0.1299 -0.1786
   90loPI   C1A 1431  10.309   9.559   8.919 -0.1025  0.1752 -0.0338
   90loPI   C2A 1432   9.858   9.716   8.872  0.1524 -0.2535 -0.1883
   90loPI   C3A 1433   9.623   9.834   8.578 -0.1232  0.1307 -0.0674
   90loPI   C4A 1434   9.720   9.793   8.125 -0.4640 -0.0001  0.1887
   90loPI   C5A 1435   9.449   9.755   7.745 -0.0733 -0.1423  0.1987
   90loPI   C6A 1436   9.470   9.378   7.518  0.2834 -0.2505 -0.2083
   90loPI   C1B 1437  10.819   9.490   8.668  0.0291 -0.0374 -0.1495
   90loPI   C2B 1438  10.768   9.506   8.210 -0.1623 -0.1895  0.0126
   90loPI   C3B 1439  10.707   9.437   7.858 -0.0063 -0.1230  0.1375
   90loPI   C4B 1440  10.295   9.313   7.559 -0.1518  0.3820 -0.3234
   91loPI    C1 1441   4.413   7.154  10.011 -0.0281 -0.2456 -0.0296
   91loPI    C2 1442   4.446   6.847  10.266 -0.0847 -0.2614 -0.0413
   91loPI    C3 1443   4.169   7.130  10.326  0.1314 -0.0781  0.1094
   91loPI   PO4 1444   4.709   7.096   9.909  0.0897 -0.1448  0.0272
   91loPI   GL1 1445   4.788   7.091   9.456  0.0090 -0.1157  0.0954
   91loPI   GL2 1446   4.658   6.867   9.452 -0.1092  0.0920  0.0156
   91loPI   C1A 1447   4.809   7.282   9.047  0.0773 -0.1944  0.0771
   91loPI   C2A 1448   4.851   7.669   8.850 -0.1707  0.1511 -0.0068
   91loPI   C3A 1449   4.800   8.057   8.658  0.1130 -0.0461 -0.0732
   91loPI   C4A 1450   5.041   8.120   8.267 -0.1794 -0.1231 -0.0442
   91loPI   C5A 1451   5.242   8.042   7.896 -0.0275 -0.1202 -0.1819
   91loPI   C6A 1452   5.470   7.657   7.930 -0.1616 -0.0034  0.1241
   91loPI   C1B 1453   4.545   6.801   9.002 -0.1346 -0.1151 -0.3071
   91loPI   C2B 1454   4.569   6.958   8.584 -0.2273 -0.0040 -0.3173
   91loPI   C3B 1455   4.723   7.348   8.480  0.1301 -0.3132  0.1439
   91loPI   C4B 1456   4.721   7.696   8.333 -0.0532 -0.0944 -0.2639
   92loPI    C1 1457   0.666  10.400  10.630 -0.1898 -0.0012 -0.2578
   92loPI    C2 1458   0.272  10.426  10.697 -0.1715 -0.1076 -0.1031
   92loPI    C3 1459   0.501  10.200  10.935 -0.0136 -0.0314 -0.1812
   92loPI   PO4 1460   0.652  10.288  10.302  0.0513 -0.0150 -0.0353
   92loPI   GL1 1461   0.686  10.427   9.906 -0.1854 -0.1000  0.1339
   92loPI   GL2 1462   0.866  10.510   9.625 -0.0032  0.0464 -0.2035
   92loPI   C1A 1463   0.428  10.181   9.504 -0.0402 -0.0287  0.0402
   92loPI   C2A 1464   0.365  10.266   9.064  0.2526  0.3790  0.2410
   92loPI   C3A 1465   0.413  10.226   8.601  0.1465  0.0559  0.0673
   92loPI   C4A 1466   0.311  10.124   8.186  0.2361 -0.2763 -0.1571
   92loPI   C5A 1467   0.001  10.070   7.853 -0.2407 -0.0912  0.2854
   92loPI   C6A 1468  -0.216  10.127   7.476 -0.1559 -0.0432  0.1410
   92loPI   C1B 1469   0.849  10.530   9.135  0.2167  0.2446  0.1983
   92loPI   C2B 1470   0.871  10.462   8.725 -0.0531  0.0582  0.1236
   92loPI   C3B 1471   0.714  10.437   8.267  0.0611  0.0837 -0.4366
   92loPI   C4B 1472   0.720  10.654   7.880 -0.0286 -0.3218  0.0445
   93loPI    C1 1473  14.009  10.646  10.455 -0.0837  0.1630  0.1795
   93loPI    C2 1474  13.721  10.777  10.210 -0.0218  0.0917  0.0675
   93loPI    C3 1475  13.650  10.743  10.602 -0.1345  0.1679  0.0542
   93loPI   PO4 1476  14.150  10.487  10.203  0.2012  0.3363  0.0057
   93loPI   GL1 1477  13.885  10.473   9.772  0.0908  0.1957  0.2044
   93loPI   GL2 1478  13.775  10.845   9.623 -0.2936  0.3155  0.1517
   93loPI   C1A 1479  13.534  10.394   9.481 -0.1776 -0.0639 -0.0674
   93loPI   C2A 1480  13.235  10.373   9.159 -0.1503  0.0496  0.0775
   93loPI   C3A 1481  13.037  10.243   8.875 -0.1363  0.0002 -0.2024
   93loPI   C4A 1482  12.907   9.883   8.700 -0.1410 -0.2172 -0.1320
   93loPI   C5A 1483  12.801   9.637   8.337  0.0399  0.2558 -0.1433
   93loPI   C6A 1484  12.972   9.583   7.836  0.0486  0.0699  0.0984
   93loPI   C1B 1485  13.865  10.674   9.119 -0.0876  0.3330 -0.1995
   93loPI   C2B 1486  14.132  10.470   8.796  0.1329 -0.0579  0.1594
   93loPI   C3B 1487  14.331  10.530   8.345  0.1481 -0.0693  0.0166
   93loPI   C4B 1488  14.318  10.852   8.034  0.0374  0.0387  0.2844
   94loPI    C1 1489   2.944  15.144  10.001 -0.1656  0.1243 -0.0682
   94loPI    C2 1490   2.687  15.390  10.186 -0.1580  0.1258 -0.0597
   94loPI    C3 1491   3.081  15.429  10.246 -0.1600  0.0712 -0.0092
   94loPI   PO4 1492   2.754  14.984   9.858 -0.0702  0.1396  0.0191
   94loPI   GL1 1493   2.741  14.659   9.408  0.2321 -0.0837  0.2803
   94loPI   GL2 1494   2.734  14.964   9.198 -0.1890 -0.1349  0.0299
   94loPI   C1A 1495   2.745  14.554   8.882 -0.0953 -0.2945  0.0687
   94loPI   C2A 1496   3.040  14.360   8.569 -0.1196  0.3381  0.2952
   94loPI   C3A 1497   3.185  14.529   8.162  0.1479  0.0508  0.2117
   94loPI   C4A 1498   3.247  14.485   7.831 -0.0607  0.0724  0.0189
   94loPI   C5A 1499   3.557  14.314   7.588  0.5051  0.4132  0.0573
   94loPI   C6A 1500   4.021  14.083   7.375  0.1308  0.0834 -0.0333
   94loPI   C1B 1501   3.056  15.104   8.846  0.2411 -0.2375 -0.0540
   94loPI   C2B 1502   2.953  14.869   8.501 -0.0732 -0.1403  0.1339
   94loPI   C3B 1503   2.614  14.551   8.276  0.1675  0.2646  0.0396
   94loPI   C4B 1504   2.758  14.324   7.946 -0.1090 -0.2143  0.3103
   95loPI    C1 1505   2.008   7.363  10.129  0.1563 -0.2035  0.0017
   95loPI    C2 1506   1.832   7.235  10.464 -0.0487 -0.0371 -0.0402
   95loPI    C3 1507   1.908   6.978  10.168 -0.0171 -0.1531  0.0674
   95loPI   PO4 1508   1.922   7.618  10.059 -0.0922 -0.0077 -0.0455
   95loPI   GL1 1509   1.758   7.591   9.618  0.0177  0.2864 -0.0213
   95loPI   GL2 1510   1.571   7.818   9.737 -0.2187 -0.1912  0.1877
   95loPI   C1A 1511   2.019   7.723   9.354  0.2227  0.0034  0.1176
   95loPI   C2A 1512   1.979   7.992   8.963 -0.0318  0.0839 -0.2439
   95loPI   C3A 1513   1.985   7.885   8.636 -0.0116 -0.1318  0.1369
   95loPI   C4A 1514   2.047   7.786   8.291 -0.0667 -0.0584 -0.0160
   95loPI   C5A 1515   1.913   7.664   7.767 -0.1015 -0.2394 -0.0154
   95loPI   C6A 1516   1.957   7.998   7.567 -0.2108  0.2967  0.0740
   95loPI   C1B 1517   1.647   8.051   9.329 -0.2224  0.1666 -0.4538
   95loPI   C2B 1518   1.482   7.974   8.933 -0.2001  0.1653 -0.0354
   95loPI   C3B 1519   1.591   7.941   8.391 -0.1265  0.1315  0.1029
   95loPI   C4B 1520   1.493   8.002   7.872  0.1124 -0.0163  0.4559
   96loPI    C1 1521  16.535  16.780  10.291 -0.0338  0.0731 -0.0800
   96loPI    C2 1522  16.931  16.791  10.348 -0.0296  0.1514 -0.1242
   96loPI    C3 1523  16.698  17.077  10.504 -0.1005 -0.0464  0.1402
   96loPI   PO4 1524  16.555  16.709   9.989  0.1009 -0.0494  0.0301
   96loPI   GL1 1525  16.565  16.686   9.510 -0.0319 -0.3231  0.2107
   96loPI   GL2 1526  16.249  16.714   9.625  0.1377  0.1117  0.2757
   96loPI   C1A 1527  16.811  16.683   9.157 -0.1321  0.0938 -0.0855
   96loPI   C2A 1528  17.004  16.842   8.942 -0.2025 -0.1193 -0.3482
   96loPI   C3A 1529  17.242  17.111   8.820 -0.2527 -0.0952  0.3343
   96loPI   C4A 1530  17.389  17.255   8.472 -0.0868  0.1328  0.0749
   96loPI   C5A 1531  17.687  17.109   8.269 -0.2715  0.0001  0.0969
   96loPI   C6A 1532  17.894  16.737   8.278 -0.0964 -0.0342  0.0166
   96loPI   C1B 1533  16.178  17.133   9.417 -0.2364  0.3995  0.2938
   96loPI   C2B 1534  16.179  17.411   9.114  0.1953  0.1883  0.0689
   96loPI   C3B 1535  16.323  17.589   8.805  0.2080  0.2125 -0.5311
   96loPI   C4B 1536  16.564  17.731   8.485  0.3792 -0.1540  0.0072
   97loPI    C1 1537  11.820   2.548   9.863 -0.2633 -0.1033  0.0371
   97loPI    C2 1538  12.139   2.577  10.102 -0.2338  0.3047 -0.0455
   97loPI    C3 1539  11.771   2.614  10.255 -0.2409 -0.0531  0.0315
   97loPI   PO4 1540  11.835   2.755   9.725  0.0474 -0.2350  0.5103
   97loPI   GL1 1541  11.849   2.809   9.223 -0.2766 -0.0621 -0.0920
   97loPI   GL2 1542  12.041   3.078   9.400 -0.0688  0.1719  0.2847
   97loPI   C1A 1543  11.581   2.969   8.907 -0.1771 -0.2958 -0.0243
   97loPI   C2A 1544  11.483   3.195   8.469 -0.0328 -0.0240  0.3011
   97loPI   C3A 1545  11.624   3.354   8.020 -0.3245  0.0636 -0.0128
   97loPI   C4A 1546  11.533   3.489   7.645 -0.0267  0.2687 -0.1552
   97loPI   C5A 1547  11.732   3.310   7.293  0.0305  0.0247  0.0778
   97loPI   C6A 1548  12.073   2.931   7.278 -0.0803 -0.2027 -0.1365
   97loPI   C1B 1549  12.041   3.193   8.857 -0.1260  0.2356 -0.2126
   97loPI   C2B 1550  12.222   3.251   8.431 -0.0452  0.1926 -0.0065
   97loPI   C3B 1551  12.111   3.216   8.114 -0.0264  0.0717  0.0835
   97loPI   C4B 1552  12.217   3.275   7.749  0.2815  0.0460  0.3638
   98loPI    C1 1553   6.590   3.895  10.110  0.0445 -0.0010 -0.1681
   98loPI    C2 1554   6.341   3.703   9.862 -0.0279  0.0548 -0.1389
   98loPI    C3 1555   6.203   3.998  10.095  0.0310 -0.0257 -0.0011
   98loPI   PO4 1556   6.829   3.945   9.915 -0.0282  0.1454  0.0479
   98loPI   GL1 1557   6.706   3.903   9.547  0.0480  0.1927  0.1888
   98loPI   GL2 1558   6.409   4.130   9.623 -0.0600  0.0827 -0.1417
   98loPI   C1A 1559   7.051   4.066   9.173  0.3368 -0.0673 -0.2208
   98loPI   C2A 1560   7.122   4.205   8.753 -0.0076  0.2233 -0.3043
   98loPI   C3A 1561   7.034   4.577   8.450 -0.0207  0.0868  0.3227
   98loPI   C4A 1562   7.016   4.769   8.071  0.2854 -0.0411  0.1319
   98loPI   C5A 1563   6.633   4.922   7.863 -0.1627  0.1785 -0.0409
   98loPI   C6A 1564   6.167   4.744   7.663  0.0209 -0.3165 -0.0014
   98loPI   C1B 1565   6.481   4.266   9.306 -0.1243 -0.3186  0.1776
   98loPI   C2B 1566   6.682   4.364   8.882  0.0781  0.4656  0.1976
   98loPI   C3B 1567   6.645   4.240   8.457  0.1439 -0.2843 -0.2232
   98loPI   C4B 1568   6.798   4.280   8.080 -0.0550  0.2287 -0.1694
   99loPI    C1 1569   8.267   3.823  10.301  0.0831 -0.0292  0.1710
   99loPI    C2 1570   8.375   4.207  10.339  0.1266 -0.0324  0.0819
   99loPI    C3 1571   8.491   3.938  10.612 -0.0189  0.0421  0.2183
   99loPI   PO4 1572   8.158   3.868  10.030  0.0662 -0.1336 -0.3057
   99loPI   GL1 1573   8.156   3.766   9.656 -0.0044 -0.0471 -0.2490
   99loPI   GL2 1574   7.998   3.456   9.597 -0.1570 -0.1170 -0.0540
   99loPI   C1A 1575   8.381   3.840   9.262 -0.2690 -0.1746  0.3665
   99loPI   C2A 1576   8.353   3.789   8.720  0.2548  0.0315 -0.0201
   99loPI   C3A 1577   8.251   3.617   8.385  0.1341  0.1585 -0.2450
   99loPI   C4A 1578   8.415   3.277   8.085  0.3465  0.0161 -0.3302
   99loPI   C5A 1579   8.647   3.117   7.722 -0.2340  0.0657  0.0447
   99loPI   C6A 1580   8.981   2.879   7.794 -0.3234 -0.1325  0.0464
   99loPI   C1B 1581   7.944   3.632   9.198 -0.0554 -0.2610  0.0787
   99loPI   C2B 1582   7.839   3.613   8.688  0.1284  0.3103  0.1777
   99loPI   C3B 1583   7.781   3.852   8.257  0.0127 -0.1998 -0.1443
   99loPI   C4B 1584   7.747   4.267   7.961 -0.0739 -0.1562  0.2998
  100loPI    C1 1585   5.325  17.559  10.444  0.1596 -0.0927 -0.0895
  100loPI    C2 1586   5.056  17.782  10.640 -0.0075 -0.4031  0.0413
  100loPI    C3 1587   5.434  17.762  10.771  0.0075 -0.2028  0.0312
  100loPI   PO4 1588   5.222  17.690  10.143 -0.2924 -0.2344  0.0641
  100loPI   GL1 1589   5.435  17.777   9.771  0.2002 -0.0661  0.0970
  100loPI   GL2 1590   5.175  17.871   9.692 -0.1822  0.0286 -0.1892
  100loPI   C1A 1591   5.477  17.637   9.290  0.0206  0.1127  0.1371
  100loPI   C2A 1592   5.608  17.391   8.971  0.1769  0.0097 -0.2906
  100loPI   C3A 1593   5.796  17.245   8.586 -0.2429  0.2623  0.1700
  100loPI   C4A 1594   6.042  17.290   8.220  0.1361 -0.2002  0.0536
  100loPI   C5A 1595   5.914  17.467   7.815 -0.2604 -0.2303  0.0731
  100loPI   C6A 1596   5.506  17.742   7.647  0.3537  0.0438 -0.3081
  100loPI   C1B 1597   4.895  17.851   9.318 -0.0567  0.1398  0.0679
  100loPI   C2B 1598   4.507  18.008   9.024  0.1245  0.0833 -0.0514
  100loPI   C3B 1599   4.506  17.920   8.613  0.1789  0.3065  0.3179
  100loPI   C4B 1600   4.585  18.008   8.172  0.0937 -0.0047 -0.0072
  101loPI    C1 1601   9.135  12.638  10.094  0.0184  0.0445  0.0826
  101loPI    C2 1602   8.914  12.468  10.382  0.0804  0.1164  0.1732
  101loPI    C3 1603   9.261  12.302  10.271  0.0704  0.1043  0.1599
  101loPI   PO4 1604   8.943  12.687   9.906  0.1168 -0.0202 -0.0957
  101loPI   GL1 1605   9.001  12.911   9.500 -0.3509  0.1175  0.3682
  101loPI   GL2 1606   8.981  13.175   9.574  0.2909  0.0631  0.0489
  101loPI   C1A 1607   9.172  12.831   9.143 -0.0092 -0.0051  0.0051
  101loPI   C2A 1608   9.303  12.623   8.729  0.1176 -0.1510  0.1888
  101loPI   C3A 1609   9.416  12.773   8.332  0.1690  0.0080  0.0938
  101loPI   C4A 1610   9.297  12.725   7.946 -0.0758 -0.2580 -0.1024
  101loPI   C5A 1611   9.070  12.711   7.584  0.1716  0.2798 -0.0460
  101loPI   C6A 1612   8.866  12.425   7.231 -0.0948 -0.0388 -0.1134
  101loPI   C1B 1613   8.796  13.212   9.175 -0.2190  0.2414 -0.0576
  101loPI   C2B 1614   8.783  12.861   8.847  0.0373  0.0104 -0.0807
  101loPI   C3B 1615   8.811  12.773   8.449  0.0490  0.0284 -0.2301
  101loPI   C4B 1616   8.719  12.955   7.971 -0.0690  0.1161 -0.0710
  102loPI    C1 1617  10.378  14.342  10.334 -0.2046  0.0227 -0.2762
  102loPI    C2 1618  10.212  14.268  10.690 -0.1882  0.0868 -0.2550
  102loPI    C3 1619  10.356  13.966  10.470 -0.0516  0.0633 -0.1349
  102loPI   PO4 1620  10.227  14.498  10.207  0.0310 -0.0415 -0.0773
  102loPI   GL1 1621  10.143  14.593   9.782  0.1577  0.3005 -0.1686
  102loPI   GL2 1622   9.936  14.629   9.498  0.0888 -0.1878  0.0545
  102loPI   C1A 1623  10.447  14.795   9.460  0.3751 -0.0422  0.1018
  102loPI   C2A 1624  10.501  14.969   9.025 -0.0156 -0.0102 -0.0333
  102loPI   C3A 1625  10.485  15.057   8.638 -0.1393 -0.2807  0.0176
  102loPI   C4A 1626  10.612  14.872   8.214  0.0588 -0.2119 -0.0641
  102loPI   C5A 1627  10.611  14.769   7.836  0.0326 -0.2472  0.2880
  102loPI   C6A 1628  10.489  14.750   7.422  0.1681 -0.1252 -0.0327
  102loPI   C1B 1629  10.063  14.576   9.091  0.1915  0.2982  0.1806
  102loPI   C2B 1630  10.035  14.700   8.652  0.0150  0.3193  0.0686
  102loPI   C3B 1631  10.043  15.082   8.395  0.0352 -0.0001 -0.0115
  102loPI   C4B 1632  10.260  15.194   7.984 -0.0977  0.2598 -0.0901
  103loPI    C1 1633   1.623   2.297   9.937  0.0415 -0.1874  0.2213
  103loPI    C2 1634   1.410   2.233  10.269 -0.3065 -0.1614  0.0078
  103loPI    C3 1635   1.248   2.434   9.963  0.0358 -0.1207 -0.1509
  103loPI   PO4 1636   1.914   2.488  10.000  0.3510  0.0457  0.0413
  103loPI   GL1 1637   2.165   2.515   9.608  0.0611 -0.0639 -0.1834
  103loPI   GL2 1638   1.831   2.521   9.497 -0.0874  0.1605 -0.2645
  103loPI   C1A 1639   2.345   2.910   9.337  0.2181  0.0743  0.2416
  103loPI   C2A 1640   2.266   3.106   9.014 -0.2892  0.1461  0.2448
  103loPI   C3A 1641   2.054   3.209   8.626 -0.0329 -0.1040 -0.2620
  103loPI   C4A 1642   1.847   3.163   8.138  0.0313 -0.0275 -0.3043
  103loPI   C5A 1643   1.826   3.247   7.711 -0.0925 -0.0420  0.1055
  103loPI   C6A 1644   1.597   3.022   7.318 -0.1016 -0.1173 -0.0395
  103loPI   C1B 1645   2.055   2.604   9.069 -0.0263  0.0224  0.1070
  103loPI   C2B 1646   2.201   2.761   8.650 -0.0698  0.0655 -0.2078
  103loPI   C3B 1647   2.265   2.899   8.260  0.1708 -0.2763  0.0427
  103loPI   C4B 1648   2.062   2.654   7.858  0.0059 -0.1555 -0.2998
  104loPI    C1 1649  17.727  11.737  10.260 -0.3299 -0.3091 -0.0355
  104loPI    C2 1650  17.461  11.796  10.552 -0.0108  0.0540  0.1916
  104loPI    C3 1651  17.790  11.580  10.622  0.0860  0.1751  0.1144
  104loPI   PO4 1652  17.637  11.708  10.100  0.2351 -0.2141  0.1132
  104loPI   GL1 1653  17.643  11.721   9.719  0.1073  0.1619 -0.0038
  104loPI   GL2 1654  17.297  11.745   9.646  0.0174 -0.1503  0.0057
  104loPI   C1A 1655  17.787  11.604   9.370  0.1297 -0.0100 -0.2462
  104loPI   C2A 1656  17.793  11.750   9.005  0.1152 -0.1144  0.2299
  104loPI   C3A 1657  17.712  11.744   8.486 -0.0383  0.2461 -0.2945
  104loPI   C4A 1658  17.841  11.531   8.184  0.0229  0.0466 -0.1915
  104loPI   C5A 1659  17.832  11.603   7.695  0.1535 -0.0506  0.3320
  104loPI   C6A 1660  17.612  11.474   7.332  0.3094 -0.0818  0.3113
  104loPI   C1B 1661  17.311  11.746   9.194  0.0630 -0.3430  0.1341
  104loPI   C2B 1662  17.258  11.765   8.744  0.1149 -0.2529  0.2951
  104loPI   C3B 1663  17.275  11.762   8.309 -0.3080  0.1205 -0.0762
  104loPI   C4B 1664  17.409  11.763   7.899 -0.0882  0.0262  0.0343
  105loPI    C1 1665   1.840  14.603   9.742  0.0540 -0.0341 -0.0834
  105loPI    C2 1666   1.850  14.989   9.849 -0.2666 -0.0928  0.1711
  105loPI    C3 1667   1.911  14.704  10.122  0.0231 -0.2250 -0.0265
  105loPI   PO4 1668   1.871  14.625   9.464  0.0265 -0.3793 -0.0582
  105loPI   GL1 1669   1.958  14.269   9.128  0.5027 -0.0109 -0.0223
  105loPI   GL2 1670   1.638  14.162   9.197 -0.0673 -0.1479  0.0990
  105loPI   C1A 1671   1.956  14.063   8.690 -0.4135 -0.3578 -0.3345
  105loPI   C2A 1672   1.635  13.910   8.417  0.3068  0.1316  0.0807
  105loPI   C3A 1673   1.371  13.565   8.156  0.0830 -0.2928 -0.0738
  105loPI   C4A 1674   1.172  13.377   7.845  0.0411  0.0308 -0.1922
  105loPI   C5A 1675   1.141  13.000   7.730  0.2669 -0.0661  0.1251
  105loPI   C6A 1676   1.207  12.649   7.447 -0.0815 -0.1471  0.1627
  105loPI   C1B 1677   1.585  14.382   8.797 -0.0837  0.1934 -0.0165
  105loPI   C2B 1678   1.601  14.379   8.405 -0.3642  0.1484 -0.0883
  105loPI   C3B 1679   1.563  14.453   7.881 -0.0233 -0.1086  0.0436
  105loPI   C4B 1680   1.808  14.639   7.610  0.1089  0.0385 -0.3400
  106loPI    C1 1681  11.077   1.522   9.896  0.0371 -0.0893 -0.1242
  106loPI    C2 1682  11.435   1.449  10.058  0.0132  0.1323  0.0317
  106loPI    C3 1683  11.108   1.276  10.210  0.0252  0.1168  0.0399
  106loPI   PO4 1684  11.178   1.682   9.625  0.0916  0.0117 -0.2432
  106loPI   GL1 1685  11.372   1.836   9.275 -0.0534 -0.2177 -0.1871
  106loPI   GL2 1686  11.160   2.139   9.331 -0.2010  0.2425  0.0351
  106loPI   C1A 1687  11.484   1.980   8.871  0.0722  0.1679  0.0872
  106loPI   C2A 1688  11.586   1.951   8.492  0.1353  0.0857 -0.2086
  106loPI   C3A 1689  11.456   1.864   8.108  0.0600 -0.3729  0.1473
  106loPI   C4A 1690  11.384   1.681   7.762 -0.1148 -0.4650  0.0800
  106loPI   C5A 1691  11.550   1.596   7.337  0.0106 -0.2010 -0.3545
  106loPI   C6A 1692  11.917   1.501   7.119  0.1384 -0.0394  0.0523
  106loPI   C1B 1693  10.992   2.109   8.950  0.1315  0.1254  0.0731
  106loPI   C2B 1694  11.089   2.114   8.550  0.2776 -0.1876 -0.0214
  106loPI   C3B 1695  10.856   1.825   8.292  0.1290  0.1783  0.2011
  106loPI   C4B 1696  10.750   1.467   8.059  0.4846 -0.0699  0.0760
  107loPI    C1 1697   1.576  16.504  10.005  0.1190 -0.3456  0.2421
  107loPI    C2 1698   1.685  16.702  10.335 -0.1743  0.2871 -0.0237
  107loPI    C3 1699   1.366  16.461  10.342  0.0168  0.0350  0.2315
  107loPI   PO4 1700   1.757  16.417   9.746 -0.0909  0.3708 -0.2046
  107loPI   GL1 1701   2.172  16.554   9.570 -0.1206 -0.1527 -0.3572
  107loPI   GL2 1702   1.947  16.783   9.472  0.0704  0.0295 -0.1098
  107loPI   C1A 1703   2.264  16.682   9.138  0.1309  0.3187  0.0028
  107loPI   C2A 1704   2.169  16.790   8.683  0.0238  0.2063  0.1367
  107loPI   C3A 1705   2.016  17.091   8.450  0.1729  0.0224  0.1034
  107loPI   C4A 1706   1.893  17.450   8.213 -0.1454  0.2091 -0.0251
  107loPI   C5A 1707   1.810  17.551   7.878  0.3778  0.0685  0.1941
  107loPI   C6A 1708   1.594  17.808   7.498  0.0868 -0.4300  0.1629
  107loPI   C1B 1709   1.886  17.054   9.143 -0.2310 -0.2725  0.1531
  107loPI   C2B 1710   2.032  17.325   8.910 -0.0641  0.3563 -0.0702
  107loPI   C3B 1711   2.384  17.491   8.600  0.0257 -0.0004  0.0040
  107loPI   C4B 1712   2.571  17.717   8.438 -0.3560  0.1449  0.0949
  108loPI    C1 1713   3.030  11.585  10.351  0.0038 -0.2630 -0.1688
  108loPI    C2 1714   2.874  11.329  10.616  0.1678 -0.0550  0.1347
  108loPI    C3 1715   2.803  11.721  10.651 -0.0515 -0.0498 -0.3051
  108loPI   PO4 1716   3.029  11.511  10.132 -0.0847  0.0574 -0.0388
  108loPI   GL1 1717   2.852  11.692   9.685 -0.2133 -0.0926 -0.2240
  108loPI   GL2 1718   2.753  11.940   9.569  0.1062  0.0060 -0.0965
  108loPI   C1A 1719   2.753  11.366   9.400  0.0581  0.0187 -0.0063
  108loPI   C2A 1720   2.584  11.348   8.960  0.0101  0.1251  0.0007
  108loPI   C3A 1721   2.615  11.287   8.449 -0.1530  0.2095  0.0108
  108loPI   C4A 1722   2.697  11.143   8.061 -0.2911  0.1160 -0.0368
  108loPI   C5A 1723   2.352  11.109   7.781 -0.2763 -0.1480 -0.2843
  108loPI   C6A 1724   1.917  11.040   7.770 -0.1803  0.0371  0.0885
  108loPI   C1B 1725   2.517  11.789   9.248  0.3374  0.1390 -0.0041
  108loPI   C2B 1726   2.473  11.824   8.797 -0.1018  0.0115  0.0512
  108loPI   C3B 1727   2.450  11.779   8.391  0.0728  0.1957  0.0244
  108loPI   C4B 1728   2.372  11.547   7.996 -0.2357 -0.1266  0.1023
  109loPI    C1 1729  13.360   6.451   9.966  0.2501 -0.1563 -0.2680
  109loPI    C2 1730  13.348   6.086  10.129 -0.0669 -0.0366 -0.0112
  109loPI    C3 1731  13.412   6.406  10.360 -0.2056  0.1081 -0.1704
  109loPI   PO4 1732  13.154   6.460   9.842  0.4196  0.1781 -0.0260
  109loPI   GL1 1733  13.065   6.296   9.481  0.1654  0.0402 -0.2453
  109loPI   GL2 1734  13.433   6.486   9.444 -0.0739 -0.1283  0.0769
  109loPI   C1A 1735  12.931   6.345   9.146  0.1473  0.2436 -0.0433
  109loPI   C2A 1736  12.857   6.477   8.757  0.3487  0.4547 -0.0811
  109loPI   C3A 1737  12.763   6.596   8.372  0.0901 -0.1249  0.1092
  109loPI   C4A 1738  12.657   6.759   7.955 -0.2948 -0.2816  0.0888
  109loPI   C5A 1739  12.738   6.941   7.664  0.1218  0.2125  0.0063
  109loPI   C6A 1740  12.889   7.014   7.201 -0.1693 -0.2731 -0.4646
  109loPI   C1B 1741  13.273   6.704   9.138 -0.0601 -0.4544 -0.0593
  109loPI   C2B 1742  13.247   6.873   8.677  0.0332 -0.0345 -0.2580
  109loPI   C3B 1743  13.471   6.917   8.299 -0.2265 -0.0732  0.5661
  109loPI   C4B 1744  13.302   6.866   7.879 -0.1294 -0.1443 -0.1615
  110loPI    C1 1745   1.922  16.049  10.047  0.1535 -0.1217  0.2112
  110loPI    C2 1746   2.179  15.966  10.341  0.2232  0.0423  0.1976
  110loPI    C3 1747   1.929  16.276  10.376 -0.1478 -0.2623  0.3189
  110loPI   PO4 1748   2.024  16.000   9.764  0.3059 -0.0818 -0.2424
  110loPI   GL1 1749   2.011  16.145   9.309 -0.1426  0.2431  0.1207
  110loPI   GL2 1750   1.699  16.235   9.268 -0.1035  0.0110 -0.1377
  110loPI   C1A 1751   2.204  16.200   8.815 -0.1059  0.0168 -0.1068
  110loPI   C2A 1752   2.165  16.372   8.411 -0.1984  0.1081  0.0494
  110loPI   C3A 1753   2.084  16.754   8.149  0.0750  0.2939 -0.1723
  110loPI   C4A 1754   1.782  17.005   7.978  0.2233 -0.2320 -0.0019
  110loPI   C5A 1755   1.612  17.182   7.609 -0.0184 -0.2231 -0.0485
  110loPI   C6A 1756   1.556  17.177   7.128 -0.1235 -0.2172  0.0955
  110loPI   C1B 1757   1.745  16.402   8.859  0.1813  0.2407  0.1681
  110loPI   C2B 1758   1.695  16.587   8.440 -0.1708  0.0067  0.4660
  110loPI   C3B 1759   1.669  16.475   7.909 -0.0482  0.3213 -0.0390
  110loPI   C4B 1760   1.451  16.735   7.646  0.0332 -0.1391 -0.0041
  111loPI    C1 1761   6.807  12.882  10.017 -0.1191  0.0965  0.0847
  111loPI    C2 1762   6.569  12.598  10.170  0.0862 -0.0418  0.1516
  111loPI    C3 1763   6.802  12.816  10.412  0.2797 -0.1394  0.0549
  111loPI   PO4 1764   6.996  12.820   9.781 -0.0591  0.0876  0.3255
  111loPI   GL1 1765   7.091  12.773   9.366  0.2141 -0.1065 -0.2868
  111loPI   GL2 1766   6.888  13.001   9.274 -0.4573 -0.3360 -0.4354
  111loPI   C1A 1767   7.313  12.728   9.067  0.0827 -0.1569 -0.1977
  111loPI   C2A 1768   7.440  12.909   8.725  0.1259  0.5072 -0.3155
  111loPI   C3A 1769   7.305  12.949   8.353 -0.1052  0.2496  0.1511
  111loPI   C4A 1770   7.106  13.082   8.031 -0.2673  0.1280  0.1468
  111loPI   C5A 1771   6.738  13.292   7.893  0.3789 -0.0793  0.1660
  111loPI   C6A 1772   6.658  13.562   7.628 -0.0271 -0.0001 -0.0091
  111loPI   C1B 1773   6.935  12.992   8.772 -0.1210  0.0053 -0.1329
  111loPI   C2B 1774   6.619  12.891   8.464 -0.2396  0.1370 -0.0425
  111loPI   C3B 1775   6.377  13.024   8.080  0.2354  0.1954  0.1118
  111loPI   C4B 1776   6.181  13.152   7.760 -0.0930  0.1605  0.1368
  112loPI    C1 1777  13.973  15.588  10.164  0.0196 -0.0047  0.0452
  112loPI    C2 1778  14.252  15.863  10.243  0.0837 -0.0176 -0.1329
  112loPI    C3 1779  14.333  15.475  10.297  0.0068 -0.0049  0.0794
  112loPI   PO4 1780  13.828  15.718   9.865  0.0159  0.1098 -0.1364
  112loPI   GL1 1781  13.669  15.587   9.446  0.2425 -0.0190  0.0436
  112loPI   GL2 1782  13.518  15.423   9.292 -0.1000  0.1610  0.2343
  112loPI   C1A 1783  14.010  15.665   9.096  0.1564  0.1674  0.1222
  112loPI   C2A 1784  14.207  15.552   8.756  0.2060  0.1182 -0.0785
  112loPI   C3A 1785  14.566  15.346   8.470  0.1224  0.2517  0.1383
  112loPI   C4A 1786  14.712  15.375   8.032  0.0853 -0.0211  0.0037
  112loPI   C5A 1787  14.781  15.235   7.593 -0.1693 -0.0706  0.0099
  112loPI   C6A 1788  15.114  15.102   7.308  0.2272  0.4241  0.0545
  112loPI   C1B 1789  13.181  15.537   9.045 -0.0492 -0.2117 -0.0254
  112loPI   C2B 1790  13.235  15.573   8.631 -0.1581  0.0207  0.3378
  112loPI   C3B 1791  13.336  15.626   8.180 -0.1364 -0.2334 -0.1804
  112loPI   C4B 1792  13.589  15.472   7.920 -0.0283  0.2352 -0.0352
  113loPI    C1 1793   6.152   9.910  10.002 -0.0468 -0.1267 -0.0062
  113loPI    C2 1794   5.757   9.941  10.055 -0.0142 -0.0241  0.1859
  113loPI    C3 1795   5.984   9.772  10.338  0.1228  0.2357  0.2341
  113loPI   PO4 1796   6.199  10.148   9.883  0.2654 -0.1194 -0.4125
  113loPI   GL1 1797   6.132  10.381   9.560 -0.0393  0.1012 -0.1747
  113loPI   GL2 1798   6.373  10.503   9.588  0.2476  0.1372  0.3671
  113loPI   C1A 1799   6.255  10.198   9.171 -0.0354  0.1491 -0.4606
  113loPI   C2A 1800   6.124  10.159   8.831 -0.0884 -0.2356  0.1891
  113loPI   C3A 1801   6.259  10.288   8.458  0.1232  0.3680 -0.0305
  113loPI   C4A 1802   6.305  10.058   8.151 -0.3058 -0.0031  0.1794
  113loPI   C5A 1803   6.294  10.033   7.666 -0.2929 -0.1110  0.1342
  113loPI   C6A 1804   6.454   9.783   7.324  0.0087 -0.3531  0.4175
  113loPI   C1B 1805   6.589  10.615   9.197  0.1422  0.0400 -0.2626
  113loPI   C2B 1806   6.541  10.507   8.801  0.1014  0.4571  0.1507
  113loPI   C3B 1807   6.747  10.588   8.387 -0.1527 -0.2669  0.0014
  113loPI   C4B 1808   7.046  10.705   8.014 -0.3301 -0.0114 -0.3394
  114loPI    C1 1809   0.962  15.373   9.569 -0.1627 -0.2007 -0.0322
  114loPI    C2 1810   1.022  15.220   9.934  0.1449  0.0971  0.0481
  114loPI    C3 1811   0.761  15.519   9.882  0.3930  0.3267  0.0995
  114loPI   PO4 1812   1.259  15.500   9.485  0.0044  0.0162  0.2531
  114loPI   GL1 1813   1.614  15.520   9.144 -0.1956 -0.1115 -0.6636
  114loPI   GL2 1814   1.775  15.726   9.246 -0.3326  0.1980  0.1053
  114loPI   C1A 1815   1.344  15.539   8.744  0.0652  0.0426 -0.1202
  114loPI   C2A 1816   1.390  15.194   8.462 -0.1011  0.1856 -0.3214
  114loPI   C3A 1817   1.520  14.885   8.334  0.2604  0.2455  0.3184
  114loPI   C4A 1818   1.883  14.775   8.109  0.0523  0.1761 -0.4960
  114loPI   C5A 1819   2.233  14.624   7.909 -0.1301 -0.2872 -0.2002
  114loPI   C6A 1820   2.592  14.724   7.637 -0.1535 -0.1712 -0.2339
  114loPI   C1B 1821   1.773  15.890   8.839 -0.1864 -0.1031  0.1796
  114loPI   C2B 1822   1.697  15.630   8.428  0.1017 -0.0529  0.1269
  114loPI   C3B 1823   1.825  15.240   8.234 -0.1010 -0.0801 -0.0907
  114loPI   C4B 1824   2.081  15.125   7.840  0.0638 -0.1677  0.1358
  115loPI    C1 1825   0.645   4.433  10.407  0.1587  0.0278  0.0712
  115loPI    C2 1826   0.857   4.651  10.667  0.1032  0.3003 -0.1081
  115loPI    C3 1827   0.457   4.649  10.686  0.1031  0.2245 -0.1154
  115loPI   PO4 1828   0.727   4.518  10.208 -0.1667  0.3356  0.0242
  115loPI   GL1 1829   0.678   4.467   9.767 -0.0610 -0.0639 -0.0445
  115loPI   GL2 1830   0.314   4.573   9.688 -0.1049  0.2720 -0.0691
  115loPI   C1A 1831   0.793   4.570   9.331  0.2447 -0.1420  0.0099
  115loPI   C2A 1832   0.764   4.715   8.961  0.1695  0.0045 -0.1924
  115loPI   C3A 1833   0.750   4.634   8.622 -0.0764 -0.1175 -0.0259
  115loPI   C4A 1834   0.746   4.661   8.238  0.0406  0.0115  0.0890
  115loPI   C5A 1835   0.823   4.898   7.950 -0.3182  0.1019  0.1469
  115loPI   C6A 1836   1.056   4.883   7.628 -0.3699  0.0390 -0.2398
  115loPI   C1B 1837   0.319   4.714   9.296  0.0200 -0.0509  0.0770
  115loPI   C2B 1838   0.255   4.739   8.856 -0.2036  0.1707  0.2035
  115loPI   C3B 1839   0.361   4.897   8.467 -0.1125  0.0488 -0.2784
  115loPI   C4B 1840   0.482   5.221   8.307  0.2698 -0.0451  0.1447
  116loPI    C1 1841   3.128   4.387  10.227 -0.0273 -0.1519 -0.2094
  116loPI    C2 1842   3.101   4.244  10.599 -0.0263 -0.0327 -0.1632
  116loPI    C3 1843   2.826   4.144  10.327 -0.0388 -0.1034 -0.1248
  116loPI   PO4 1844   3.313   4.546  10.200  0.0108  0.0104 -0.1395
  116loPI   GL1 1845   3.468   4.553   9.830 -0.0835  0.2758 -0.0676
  116loPI   GL2 1846   3.378   4.220   9.768  0.1001  0.1732 -0.0672
  116loPI   C1A 1847   3.389   4.792   9.466 -0.0846  0.1674  0.0066
  116loPI   C2A 1848   3.232   4.946   9.113  0.1053  0.0830  0.3938
  116loPI   C3A 1849   3.253   5.146   8.734  0.0140  0.0277  0.4015
  116loPI   C4A 1850   3.550   5.303   8.428  0.0450  0.0740  0.2165
  116loPI   C5A 1851   3.804   5.491   8.095  0.0786  0.0449  0.2964
  116loPI   C6A 1852   4.046   5.389   7.766  0.0560 -0.0505  0.2633
  116loPI   C1B 1853   3.439   4.243   9.359  0.1566 -0.1682 -0.0494
  116loPI   C2B 1854   3.382   4.341   8.905  0.0446 -0.2081 -0.1737
  116loPI   C3B 1855   3.271   4.314   8.464 -0.2485 -0.1050 -0.3397
  116loPI   C4B 1856   3.302   4.160   8.002 -0.0690  0.2993 -0.1588
  117loPI    C1 1857  17.882  18.021   9.877  0.3965 -0.0301 -0.0477
  117loPI    C2 1858  17.761  18.166  10.230  0.2821 -0.0697 -0.0701
  117loPI    C3 1859  17.759  17.771  10.165 -0.0396 -0.0436 -0.2383
  117loPI   PO4 1860  18.085  18.172   9.781  0.0036  0.2969  0.1517
  117loPI   GL1 1861  18.387  18.237   9.419  0.2780 -0.5022 -0.2872
  117loPI   GL2 1862  18.461  17.988   9.171  0.0215  0.1746 -0.0241
  117loPI   C1A 1863  18.566  18.411   9.079  0.3096 -0.2930  0.1544
  117loPI   C2A 1864  18.529  18.299   8.613 -0.2102  0.0676  0.0025
  117loPI   C3A 1865  18.575  18.426   8.158 -0.5194  0.1933  0.1182
  117loPI   C4A 1866  18.395  18.583   7.867  0.0316 -0.1093 -0.1417
  117loPI   C5A 1867  18.059  18.623   7.565 -0.1936 -0.1303 -0.2530
  117loPI   C6A 1868  17.646  18.419   7.363 -0.3598 -0.2571  0.0009
  117loPI   C1B 1869  18.092  18.092   8.827 -0.1238  0.0122  0.0652
  117loPI   C2B 1870  17.866  18.129   8.557 -0.3318  0.0854  0.3403
  117loPI   C3B 1871  17.692  18.105   8.183 -0.1806  0.0465  0.3585
  117loPI   C4B 1872  17.537  18.226   7.823  0.0305  0.1265 -0.1284
  118loPI    C1 1873   6.435  13.127  10.226 -0.2160  0.3883  0.1922
  118loPI    C2 1874   6.113  12.964  10.397 -0.1488 -0.1062 -0.1326
  118loPI    C3 1875   6.418  13.088  10.623 -0.3206 -0.1722  0.1405
  118loPI   PO4 1876   6.308  13.290  10.006 -0.1214 -0.0681  0.2294
  118loPI   GL1 1877   6.154  13.204   9.558 -0.0692 -0.1763 -0.0923
  118loPI   GL2 1878   5.978  13.044   9.634  0.4893 -0.0699 -0.1154
  118loPI   C1A 1879   6.375  13.164   9.204 -0.0358 -0.0718  0.0673
  118loPI   C2A 1880   6.431  12.876   8.931  0.0188  0.1065  0.0267
  118loPI   C3A 1881   6.749  12.546   8.971  0.0690  0.2148 -0.2200
  118loPI   C4A 1882   7.045  12.386   8.886  0.1750  0.0018 -0.2301
  118loPI   C5A 1883   7.203  12.488   8.532 -0.0179  0.0709 -0.1642
  118loPI   C6A 1884   6.945  12.594   8.278 -0.4563  0.1332 -0.0798
  118loPI   C1B 1885   5.985  12.828   9.246 -0.1089  0.1477 -0.0390
  118loPI   C2B 1886   5.962  12.866   8.812  0.1418 -0.3508 -0.0548
  118loPI   C3B 1887   5.967  12.914   8.323  0.0851  0.0216 -0.0462
  118loPI   C4B 1888   5.780  12.949   7.947  0.2317  0.0913 -0.0032
  119loPI    C1 1889   5.528  13.943  10.196  0.1847 -0.0226  0.1958
  119loPI    C2 1890   5.399  14.257  10.408 -0.1237  0.1978 -0.2975
  119loPI    C3 1891   5.156  13.947  10.343  0.1247 -0.0785  0.0470
  119loPI   PO4 1892   5.604  14.028   9.985 -0.0107  0.0860  0.0018
  119loPI   GL1 1893   5.585  14.149   9.501  0.2869  0.0043 -0.1442
  119loPI   GL2 1894   5.744  14.391   9.354 -0.0925  0.1668  0.1842
  119loPI   C1A 1895   5.614  14.055   8.995  0.0953 -0.0264  0.0878
  119loPI   C2A 1896   5.361  14.215   8.681 -0.0446  0.1883 -0.0209
  119loPI   C3A 1897   5.344  14.192   8.265  0.1134 -0.0982 -0.0102
  119loPI   C4A 1898   5.441  14.185   7.859 -0.0783 -0.2238  0.0887
  119loPI   C5A 1899   5.458  14.031   7.441 -0.1911  0.0091 -0.3499
  119loPI   C6A 1900   5.799  13.788   7.246  0.1158  0.0514  0.2606
  119loPI   C1B 1901   5.601  14.509   8.975 -0.0132 -0.0903  0.1632
  119loPI   C2B 1902   5.586  14.851   8.830  0.1090  0.0822  0.1959
  119loPI   C3B 1903   5.594  15.309   8.825 -0.1493  0.2924 -0.1112
  119loPI   C4B 1904   5.776  15.685   8.642 -0.1087 -0.0869  0.1237
  120loPI    C1 1905  15.633   5.531   9.958 -0.0335 -0.0553 -0.1414
  120loPI    C2 1906  15.619   5.915  10.070 -0.0034 -0.1010  0.0211
  120loPI    C3 1907  15.636   5.626  10.346 -0.0175 -0.2194 -0.1007
  120loPI   PO4 1908  15.450   5.544   9.747  0.0836  0.1825  0.0869
  120loPI   GL1 1909  15.201   5.508   9.336  0.1414  0.1238  0.3567
  120loPI   GL2 1910  15.261   5.136   9.076 -0.3535 -0.1954  0.1419
  120loPI   C1A 1911  15.215   5.792   8.953  0.3560 -0.0441  0.3423
  120loPI   C2A 1912  15.207   5.797   8.479 -0.0028  0.0106  0.5665
  120loPI   C3A 1913  15.367   5.613   8.062  0.0840  0.0723  0.1028
  120loPI   C4A 1914  15.439   5.726   7.730 -0.1517 -0.0063  0.1543
  120loPI   C5A 1915  15.708   5.660   7.298 -0.1185  0.1692  0.2638
  120loPI   C6A 1916  15.924   5.423   7.043  0.1368  0.0962 -0.1786
  120loPI   C1B 1917  15.314   5.314   8.778 -0.1468  0.2005  0.1057
  120loPI   C2B 1918  15.275   5.181   8.354 -0.2951  0.0298  0.1442
  120loPI   C3B 1919  15.187   5.219   7.857 -0.1426  0.1648  0.0051
  120loPI   C4B 1920  15.253   5.389   7.451 -0.0069 -0.0724 -0.0599
  121loPI    C1 1921   3.935   4.557   9.979 -0.2308  0.0083 -0.2665
  121loPI    C2 1922   3.928   4.511  10.376  0.1610 -0.0068 -0.2574
  121loPI    C3 1923   3.797   4.851  10.212 -0.0905 -0.0369 -0.1247
  121loPI   PO4 1924   4.192   4.462   9.883 -0.0693  0.1703 -0.0893
  121loPI   GL1 1925   4.247   4.487   9.496 -0.3694  0.2002  0.1403
  121loPI   GL2 1926   3.870   4.547   9.480 -0.1626 -0.0380  0.1117
  121loPI   C1A 1927   4.308   4.329   9.110  0.1814  0.1202 -0.3868
  121loPI   C2A 1928   4.352   4.207   8.700 -0.1147  0.3239 -0.0893
  121loPI   C3A 1929   4.244   4.216   8.293 -0.0383  0.2318  0.1444
  121loPI   C4A 1930   3.945   4.474   8.009  0.0400 -0.0775 -0.1205
  121loPI   C5A 1931   3.544   4.549   7.791  0.1907  0.3240 -0.1593
  121loPI   C6A 1932   3.222   4.807   7.956  0.1123 -0.1150 -0.0848
  121loPI   C1B 1933   3.761   4.754   9.113 -0.1195  0.2882 -0.1121
  121loPI   C2B 1934   3.587   4.717   8.707 -0.2871 -0.3542 -0.0723
  121loPI   C3B 1935   3.557   4.680   8.281  0.1552  0.0701  0.0196
  121loPI   C4B 1936   3.758   4.969   8.059 -0.2500 -0.2002 -0.4765
  122loPI    C1 1937   3.500   1.201  10.419 -0.2930 -0.0232 -0.2213
  122loPI    C2 1938   3.600   0.814  10.394 -0.2954 -0.0306 -0.1180
  122loPI    C3 1939   3.720   1.032  10.708 -0.2642  0.0615 -0.1935
  122loPI   PO4 1940   3.539   1.254  10.122 -0.0215 -0.1494 -0.0264
  122loPI   GL1 1941   3.601   1.163   9.694  0.2435 -0.2115 -0.0875
  122loPI   GL2 1942   3.684   0.867   9.809  0.0058  0.2104  0.3405
  122loPI   C1A 1943   3.452   1.255   9.244 -0.1897  0.0494 -0.1872
  122loPI   C2A 1944   3.391   1.263   8.811  0.3667  0.0868 -0.1988
  122loPI   C3A 1945   3.515   1.038   8.421  0.2781 -0.0599 -0.4620
  122loPI   C4A 1946   3.825   1.057   8.035  0.2955 -0.0428 -0.1144
  122loPI   C5A 1947   4.184   1.046   7.703  0.1531  0.0919  0.0467
  122loPI   C6A 1948   4.300   0.736   7.338  0.3039 -0.0873  0.0117
  122loPI   C1B 1949   3.764   0.808   9.301  0.0861  0.0219  0.0882
  122loPI   C2B 1950   3.824   0.956   8.780  0.3202 -0.0775  0.1064
  122loPI   C3B 1951   4.062   0.799   8.449  0.1831  0.1605  0.0217
  122loPI   C4B 1952   4.208   0.640   7.987 -0.0230 -0.1582  0.1738
  123loPI    C1 1953  11.045   5.533  10.227  0.1134 -0.0462 -0.0594
  123loPI    C2 1954  11.267   5.816  10.402  0.1241 -0.0682 -0.0376
  123loPI    C3 1955  10.952   5.661  10.594  0.0353  0.0279 -0.1047
  123loPI   PO4 1956  10.966   5.680   9.989  0.0520 -0.1550  0.0746
  123loPI   GL1 1957  10.890   5.722   9.511 -0.3517  0.2385 -0.0668
  123loPI   GL2 1958  10.851   5.916   9.226  0.3073  0.1385  0.2409
  123loPI   C1A 1959  11.017   5.482   9.043 -0.0744  0.1761 -0.3452
  123loPI   C2A 1960  11.130   5.258   8.662 -0.0559  0.2417 -0.1608
  123loPI   C3A 1961  11.402   5.149   8.261  0.0724 -0.1490 -0.3336
  123loPI   C4A 1962  11.724   5.033   8.110 -0.1890 -0.0150  0.0780
  123loPI   C5A 1963  11.844   5.042   7.799 -0.2391 -0.1354 -0.0420
  123loPI   C6A 1964  11.882   5.340   7.562  0.2094 -0.2375  0.2600
  123loPI   C1B 1965  10.849   5.858   8.729 -0.1740  0.2367  0.0525
  123loPI   C2B 1966  10.906   5.772   8.344  0.1913  0.2875  0.0155
  123loPI   C3B 1967  11.033   5.717   7.898  0.0587  0.0646  0.1058
  123loPI   C4B 1968  10.757   5.863   7.573  0.0053 -0.0796  0.0136
  124loPI    C1 1969   8.824  17.861  10.335  0.1191  0.2092 -0.1440
  124loPI    C2 1970   9.171  17.727  10.484 -0.0757  0.1726  0.2911
  124loPI    C3 1971   9.111  18.120  10.439  0.0455  0.1759  0.1523
  124loPI   PO4 1972   8.807  17.629  10.145 -0.1126  0.1710  0.0453
  124loPI   GL1 1973   8.993  17.493   9.738  0.0465  0.0227  0.1046
  124loPI   GL2 1974   9.242  17.230   9.641 -0.0039  0.1142  0.1882
  124loPI   C1A 1975   9.316  17.767   9.483  0.3407  0.2262 -0.0512
  124loPI   C2A 1976   9.380  17.870   9.046  0.0180  0.2217  0.0281
  124loPI   C3A 1977   9.166  17.957   8.652 -0.1147  0.1467  0.1608
  124loPI   C4A 1978   8.920  17.985   8.323 -0.2575 -0.0352 -0.1519
  124loPI   C5A 1979   8.570  17.915   8.085 -0.0526  0.0394 -0.2382
  124loPI   C6A 1980   8.137  18.057   7.841 -0.0232  0.1421 -0.0736
  124loPI   C1B 1981   9.177  17.305   9.279 -0.2672 -0.2582 -0.0212
  124loPI   C2B 1982   9.209  17.437   8.796  0.3006 -0.1194 -0.1326
  124loPI   C3B 1983   9.186  17.561   8.335  0.2394  0.3928  0.1237
  124loPI   C4B 1984   9.465  17.695   8.034  0.3462 -0.0651  0.1058
  125loPI    C1 1985  13.362  18.058   9.548 -0.0235  0.1939 -0.0598
  125loPI    C2 1986  13.354  18.148   9.937 -0.0874  0.0038 -0.0162
  125loPI    C3 1987  13.695  18.182   9.732  0.0212 -0.1896  0.1284
  125loPI   PO4 1988  13.143  17.880   9.545 -0.1050 -0.1462 -0.3125
  125loPI   GL1 1989  12.796  17.959   9.399 -0.3776 -0.0382 -0.3449
  125loPI   GL2 1990  12.488  18.244   9.371 -0.1809  0.2074  0.0568
  125loPI   C1A 1991  12.819  17.961   8.969 -0.2636 -0.1824 -0.2460
  125loPI   C2A 1992  12.961  17.879   8.537 -0.2558 -0.1211  0.1586
  125loPI   C3A 1993  13.057  17.740   8.172  0.0325  0.0026 -0.0074
  125loPI   C4A 1994  13.296  17.952   7.815  0.3622  0.1621  0.1318
  125loPI   C5A 1995  13.453  17.669   7.436 -0.0061 -0.1488 -0.1919
  125loPI   C6A 1996  13.650  17.286   7.392  0.0667  0.1753 -0.1729
  125loPI   C1B 1997  12.316  18.201   8.920 -0.2876 -0.0091 -0.5735
  125loPI   C2B 1998  12.450  18.106   8.562  0.1277 -0.0256  0.0960
  125loPI   C3B 1999  12.605  18.170   8.212  0.0560  0.1614  0.1050
  125loPI   C4B 2000  12.857  18.140   7.834  0.0265  0.3900 -0.1718
  126loPI    C1 2001   2.930  14.103   9.796  0.2518  0.0428 -0.1249
  126loPI    C2 2002   2.875  14.497   9.835  0.0859  0.0102 -0.0210
  126loPI    C3 2003   3.121  14.304  10.084 -0.1299 -0.0148  0.1755
  126loPI   PO4 2004   2.954  14.108   9.483  0.1403  0.2438  0.1662
  126loPI   GL1 2005   2.772  14.186   9.148 -0.0404  0.1961  0.4534
  126loPI   GL2 2006   2.419  14.203   9.008  0.0157 -0.2397 -0.1413
  126loPI   C1A 2007   2.817  13.916   8.829 -0.4255  0.1688 -0.1573
  126loPI   C2A 2008   2.683  13.497   8.627 -0.0968  0.1745 -0.0478
  126loPI   C3A 2009   2.774  13.479   8.209 -0.0347 -0.0608 -0.0694
  126loPI   C4A 2010   2.896  13.597   7.803 -0.1245 -0.1074  0.2278
  126loPI   C5A 2011   3.143  13.592   7.439 -0.1316 -0.1277 -0.0344
  126loPI   C6A 2012   3.317  13.512   7.197 -0.0290  0.0292  0.3765
  126loPI   C1B 2013   2.486  14.131   8.541 -0.1260 -0.0865 -0.0349
  126loPI   C2B 2014   2.849  13.975   8.357  0.2774  0.1262  0.0892
  126loPI   C3B 2015   3.166  14.031   8.024 -0.0152 -0.0360 -0.0906
  126loPI   C4B 2016   3.445  13.683   7.867 -0.1753  0.1406  0.0901
  127loPI    C1 2017   6.641   9.802  10.000 -0.1364 -0.2793 -0.0555
  127loPI    C2 2018   6.471   9.849  10.359  0.0361  0.0050 -0.0082
  127loPI    C3 2019   6.656  10.157  10.183  0.1848 -0.2035 -0.2226
  127loPI   PO4 2020   6.709   9.563   9.933 -0.2792 -0.2953 -0.2572
  127loPI   GL1 2021   6.758   9.502   9.471 -0.0051  0.0035 -0.2979
  127loPI   GL2 2022   7.024   9.274   9.601  0.0891  0.1154  0.2487
  127loPI   C1A 2023   6.740   9.408   9.084  0.1859 -0.2335 -0.2427
  127loPI   C2A 2024   6.684   9.432   8.679  0.2577 -0.0455  0.0024
  127loPI   C3A 2025   6.576   9.153   8.483  0.2405  0.1615  0.4175
  127loPI   C4A 2026   6.492   9.117   8.103  0.1294 -0.1911  0.0553
  127loPI   C5A 2027   6.404   9.019   7.648 -0.2024 -0.4351 -0.0398
  127loPI   C6A 2028   6.570   9.275   7.343 -0.4208 -0.1152 -0.0545
  127loPI   C1B 2029   7.197   9.214   9.249 -0.0317 -0.0962  0.1578
  127loPI   C2B 2030   7.555   9.308   8.985 -0.1106 -0.2054 -0.0868
  127loPI   C3B 2031   7.638   9.626   8.637  0.2803  0.0395  0.1006
  127loPI   C4B 2032   7.696   9.983   8.320  0.3143  0.1733  0.3747
  128loPI    C1 2033   4.704   8.717  10.100  0.0495  0.0302 -0.1435
  128loPI    C2 2034   4.813   9.100  10.140 -0.1427  0.0785 -0.0704
  128loPI    C3 2035   4.980   8.820  10.370  0.1749  0.0822 -0.2900
  128loPI   PO4 2036   4.717   8.642   9.851 -0.0380 -0.0951  0.0702
  128loPI   GL1 2037   4.589   8.875   9.563  0.1814  0.3157  0.0739
  128loPI   GL2 2038   4.262   8.799   9.547  0.2094 -0.0389  0.0426
  128loPI   C1A 2039   4.476   8.770   9.043 -0.0792  0.0179  0.0495
  128loPI   C2A 2040   4.277   8.777   8.536 -0.3031  0.1261  0.2270
  128loPI   C3A 2041   4.137   8.791   8.119  0.0137  0.0304  0.1958
  128loPI   C4A 2042   4.114   9.121   7.752  0.1666 -0.2353  0.1405
  128loPI   C5A 2043   4.154   9.512   7.560 -0.1261 -0.0421 -0.4594
  128loPI   C6A 2044   4.155   9.930   7.528 -0.0507  0.2149 -0.0896
  128loPI   C1B 2045   4.133   9.130   9.253 -0.2437  0.2590 -0.2213
  128loPI   C2B 2046   4.316   9.264   8.989  0.5898  0.0695 -0.1542
  128loPI   C3B 2047   4.213   9.314   8.505  0.1271 -0.1159  0.0736
  128loPI   C4B 2048   3.798   9.186   8.253 -0.0438  0.4181 -0.3024
  129loPI    C1 2049   3.591   2.363  10.109 -0.1512 -0.3995 -0.0592
  129loPI    C2 2050   3.644   2.336  10.504  0.0720  0.0521 -0.0518
  129loPI    C3 2051   3.884   2.134  10.256 -0.0612 -0.2232  0.0384
  129loPI   PO4 2052   3.353   2.428  10.108 -0.2717  0.3687  0.0164
  129loPI   GL1 2053   3.260   2.411   9.688  0.1878 -0.1372 -0.0558
  129loPI   GL2 2054   3.425   2.128   9.657  0.1253  0.2024 -0.0568
  129loPI   C1A 2055   3.109   2.250   9.282  0.0563 -0.0570 -0.4532
  129loPI   C2A 2056   3.109   2.336   8.847 -0.2235  0.2019  0.0310
  129loPI   C3A 2057   3.246   2.178   8.443 -0.1083  0.0243  0.3009
  129loPI   C4A 2058   3.420   2.275   8.134 -0.1698  0.2135 -0.0404
  129loPI   C5A 2059   3.863   2.297   8.081  0.1050  0.3525 -0.0326
  129loPI   C6A 2060   4.225   2.498   8.167 -0.2891  0.0154  0.0377
  129loPI   C1B 2061   3.341   1.783   9.253  0.1461  0.2992  0.1070
  129loPI   C2B 2062   3.257   1.745   8.804 -0.1528  0.0690  0.0526
  129loPI   C3B 2063   3.288   1.625   8.459  0.1265 -0.1764 -0.1267
  129loPI   C4B 2064   3.578   1.763   8.114  0.0584  0.2630  0.1928
  130loPI    C1 2065  14.741  10.944  10.132  0.3383  0.1364  0.0154
  130loPI    C2 2066  14.490  10.790  10.403  0.1541 -0.1265 -0.2979
  130loPI    C3 2067  14.882  10.803  10.478  0.0858 -0.0189  0.0575
  130loPI   PO4 2068  14.690  10.910   9.950 -0.0929 -0.1726 -0.0798
  130loPI   GL1 2069  14.932  10.805   9.603 -0.2401 -0.0058  0.3404
  130loPI   GL2 2070  14.781  10.996   9.471  0.0500  0.0996  0.2240
  130loPI   C1A 2071  14.846  10.555   9.300 -0.0787 -0.2167 -0.3380
  130loPI   C2A 2072  14.840  10.164   9.092  0.2615 -0.1126  0.0831
  130loPI   C3A 2073  15.024  10.067   8.635 -0.1987 -0.1609 -0.1625
  130loPI   C4A 2074  14.840  10.371   8.275 -0.0170  0.2340  0.2814
  130loPI   C5A 2075  15.188  10.661   7.969  0.0401 -0.0903 -0.1827
  130loPI   C6A 2076  15.434  10.735   7.534  0.0464  0.0423 -0.3288
  130loPI   C1B 2077  14.348  10.945   9.267 -0.1152  0.0544 -0.0890
  130loPI   C2B 2078  14.250  10.960   8.883  0.0524 -0.0432 -0.0786
  130loPI   C3B 2079  14.473  10.948   8.496  0.3257 -0.1670 -0.0925
  130loPI   C4B 2080  14.788  10.843   8.185 -0.2157  0.0422 -0.0288
  131loPI    C1 2081  17.317   5.087  10.233 -0.2334  0.3132 -0.1656
  131loPI    C2 2082  17.374   5.481  10.266  0.0854  0.2578 -0.0189
  131loPI    C3 2083  17.294   5.263  10.591  0.3431  0.1383 -0.0331
  131loPI   PO4 2084  17.156   5.064  10.081 -0.1698  0.1024  0.1448
  131loPI   GL1 2085  17.245   5.134   9.727  0.0055 -0.2514 -0.1692
  131loPI   GL2 2086  16.971   5.013   9.629 -0.0894 -0.3768 -0.1729
  131loPI   C1A 2087  17.353   5.348   9.445  0.0923 -0.2942 -0.2597
  131loPI   C2A 2088  17.208   5.528   9.037 -0.1544  0.1192  0.2629
  131loPI   C3A 2089  17.395   5.548   8.637 -0.1249  0.1913 -0.1642
  131loPI   C4A 2090  17.499   5.470   8.180  0.0061  0.0084  0.0149
  131loPI   C5A 2091  17.576   5.258   7.693 -0.2214 -0.2710  0.0761
  131loPI   C6A 2092  17.727   5.059   7.364  0.1769  0.1836 -0.1025
  131loPI   C1B 2093  17.025   5.030   9.214  0.1840 -0.2644  0.4594
  131loPI   C2B 2094  17.143   5.059   8.776 -0.0957 -0.1170 -0.0279
  131loPI   C3B 2095  17.023   4.898   8.407 -0.0298 -0.0984  0.0961
  131loPI   C4B 2096  16.673   4.705   8.320  0.2570  0.0811  0.1153
  132loPI    C1 2097   9.368   3.905  10.085  0.1973 -0.0566 -0.2221
  132loPI    C2 2098   9.764   3.848  10.086  0.2126  0.0227  0.2019
  132loPI    C3 2099   9.525   3.595  10.282  0.0551  0.0030 -0.0119
  132loPI   PO4 2100   9.302   3.990   9.808  0.1436  0.0220 -0.1375
  132loPI   GL1 2101   8.892   3.919   9.427 -0.3440 -0.0826 -0.0006
  132loPI   GL2 2102   9.241   3.680   9.443 -0.0293  0.0338 -0.2672
  132loPI   C1A 2103   8.864   4.027   9.029 -0.1401  0.3223  0.3534
  132loPI   C2A 2104   8.786   3.977   8.639  0.1756 -0.3262 -0.1156
  132loPI   C3A 2105   8.861   4.339   8.242 -0.1254  0.1183 -0.1822
  132loPI   C4A 2106   9.076   4.592   7.964  0.1408  0.1771 -0.1291
  132loPI   C5A 2107   9.436   4.610   7.791 -0.1413  0.1484 -0.1762
  132loPI   C6A 2108   9.671   4.302   7.539 -0.1467  0.1232  0.1020
  132loPI   C1B 2109   9.328   3.819   9.061 -0.2179 -0.1038  0.0989
  132loPI   C2B 2110   9.277   3.953   8.654  0.3319  0.0792  0.0126
  132loPI   C3B 2111   9.249   3.748   8.213 -0.3943  0.1415  0.0819
  132loPI   C4B 2112   8.798   3.643   8.237  0.1060 -0.0393 -0.0411
  133loPI    C1 2113  15.841  11.576  10.218 -0.0034 -0.1818 -0.1183
  133loPI    C2 2114  16.149  11.452  10.442 -0.0192  0.1087  0.0690
  133loPI    C3 2115  15.838  11.638  10.614 -0.2304 -0.0462 -0.1391
  133loPI   PO4 2116  15.779  11.414   9.991 -0.0850 -0.0518 -0.1641
  133loPI   GL1 2117  16.081  11.459   9.664  0.0065 -0.4176 -0.2579
  133loPI   GL2 2118  15.987  11.127   9.577  0.1240 -0.0747  0.1813
  133loPI   C1A 2119  15.997  11.508   9.280 -0.2015 -0.0030 -0.3568
  133loPI   C2A 2120  15.973  11.545   8.851  0.3218 -0.2750  0.1689
  133loPI   C3A 2121  15.809  11.282   8.604  0.0876 -0.0204 -0.0143
  133loPI   C4A 2122  15.743  11.393   8.141  0.0841 -0.1336  0.1744
  133loPI   C5A 2123  15.831  11.367   7.782  0.1495 -0.0143 -0.2245
  133loPI   C6A 2124  16.233  11.500   7.571  0.5170  0.0010  0.2467
  133loPI   C1B 2125  16.256  10.996   9.251 -0.1637  0.1268 -0.4026
  133loPI   C2B 2126  16.193  10.957   8.838  0.1557  0.0108  0.0681
  133loPI   C3B 2127  16.171  11.073   8.269 -0.0295 -0.0422  0.1718
  133loPI   C4B 2128  16.306  11.517   8.087  0.1251 -0.3093 -0.2734
  134loPI    C1 2129  16.615   0.735  10.143  0.0800  0.1966 -0.0621
  134loPI    C2 2130  16.634   1.033  10.409  0.1422 -0.0121  0.1714
  134loPI    C3 2131  16.398   0.717  10.478  0.1519 -0.0642 -0.0266
  134loPI   PO4 2132  16.574   0.790   9.904 -0.2651  0.1011 -0.0718
  134loPI   GL1 2133  16.574   1.024   9.566  0.1390  0.1473  0.0173
  134loPI   GL2 2134  16.891   1.031   9.594 -0.1188  0.0680 -0.1243
  134loPI   C1A 2135  16.327   1.000   9.097 -0.2821  0.1212  0.1576
  134loPI   C2A 2136  16.279   0.842   8.645 -0.1504 -0.3102  0.0983
  134loPI   C3A 2137  15.899   0.625   8.522 -0.3562 -0.1716 -0.0037
  134loPI   C4A 2138  15.804   0.489   8.113 -0.0842 -0.4828 -0.0725
  134loPI   C5A 2139  15.738   0.449   7.669 -0.1243 -0.0265 -0.3748
  134loPI   C6A 2140  15.580   0.772   7.384 -0.0144  0.0936 -0.0163
  134loPI   C1B 2141  16.947   0.947   9.266 -0.0672  0.2320  0.0852
  134loPI   C2B 2142  16.744   0.823   8.802 -0.0174  0.0948  0.2548
  134loPI   C3B 2143  16.657   0.550   8.404  0.1036  0.0203 -0.1294
  134loPI   C4B 2144  16.301   0.623   8.063  0.1185 -0.1868 -0.1583
  135loPI    C1 2145  12.123   9.266  10.076  0.2069 -0.1753 -0.2801
  135loPI    C2 2146  12.003   8.885  10.089 -0.1157 -0.0705 -0.0508
  135loPI    C3 2147  12.108   9.073  10.426  0.1842  0.0020 -0.1817
  135loPI   PO4 2148  11.939   9.397   9.894  0.0369 -0.0412  0.2181
  135loPI   GL1 2149  12.134   9.620   9.521 -0.0302 -0.1600 -0.0443
  135loPI   GL2 2150  11.864   9.741   9.372  0.1024  0.0060  0.2811
  135loPI   C1A 2151  12.306   9.674   9.095 -0.1463  0.1091  0.3313
  135loPI   C2A 2152  12.486   9.633   8.792  0.0959  0.2573  0.0546
  135loPI   C3A 2153  12.418   9.378   8.498 -0.1734  0.0247  0.1128
  135loPI   C4A 2154  12.452   9.356   7.980  0.1694 -0.1942  0.0966
  135loPI   C5A 2155  12.462   9.661   7.657 -0.1543  0.2309  0.0264
  135loPI   C6A 2156  12.165  10.084   7.578 -0.2626  0.0137 -0.1875
  135loPI   C1B 2157  11.596   9.896   9.057  0.2205  0.1692  0.1878
  135loPI   C2B 2158  11.549   9.907   8.644 -0.0391 -0.0538 -0.4103
  135loPI   C3B 2159  11.537  10.271   8.398 -0.0113  0.0933 -0.0054
  135loPI   C4B 2160  11.474  10.329   8.011  0.2375 -0.1992  0.3118
  136loPI    C1 2161  15.740  15.761   9.911 -0.2560  0.1257  0.2933
  136loPI    C2 2162  15.733  15.401   9.738  0.1699  0.2812 -0.0656
  136loPI    C3 2163  15.692  15.433  10.134  0.2319 -0.1696 -0.0172
  136loPI   PO4 2164  15.564  15.887   9.731  0.1313 -0.2538 -0.1105
  136loPI   GL1 2165  15.414  15.921   9.295 -0.0188  0.1373 -0.1915
  136loPI   GL2 2166  15.253  16.131   9.403  0.0878  0.0548 -0.0030
  136loPI   C1A 2167  15.390  15.797   8.892 -0.0494 -0.2605 -0.2864
  136loPI   C2A 2168  15.725  15.792   8.588 -0.0924  0.2174 -0.0174
  136loPI   C3A 2169  16.074  15.840   8.314  0.0325  0.1480  0.0282
  136loPI   C4A 2170  16.197  15.821   7.857 -0.1168 -0.2204 -0.1897
  136loPI   C5A 2171  16.392  15.642   7.495 -0.2956 -0.0716 -0.1226
  136loPI   C6A 2172  16.581  15.270   7.543  0.0811  0.0894  0.2380
  136loPI   C1B 2173  15.137  16.257   8.968  0.4038  0.1807  0.1702
  136loPI   C2B 2174  15.022  16.622   8.731 -0.0136 -0.5801  0.1537
  136loPI   C3B 2175  15.072  16.696   8.314  0.2765  0.0788  0.0939
  136loPI   C4B 2176  14.904  16.664   7.943 -0.0269  0.0006 -0.0609
  137loPI    C1 2177  10.906   4.839   9.856  0.1663  0.2589  0.0379
  137loPI    C2 2178  11.098   4.490   9.889 -0.0686  0.0951 -0.2757
  137loPI    C3 2179  10.874   4.624  10.192  0.1682  0.0650 -0.0846
  137loPI   PO4 2180  10.784   4.860   9.734  0.0986 -0.0567  0.0083
  137loPI   GL1 2181  10.731   4.630   9.391 -0.0490 -0.0065  0.2531
  137loPI   GL2 2182  11.084   4.492   9.368 -0.0023  0.1745 -0.1479
  137loPI   C1A 2183  10.606   4.663   8.986 -0.0333  0.3405  0.1652
  137loPI   C2A 2184  10.636   4.556   8.692  0.1391  0.0840  0.0893
  137loPI   C3A 2185  10.709   4.636   8.193 -0.0406 -0.0111 -0.1582
  137loPI   C4A 2186  11.039   4.921   7.987  0.2280  0.1006  0.0987
  137loPI   C5A 2187  11.262   5.210   7.758 -0.2515 -0.5049 -0.1780
  137loPI   C6A 2188  11.420   5.566   7.549 -0.0427 -0.0405 -0.1170
  137loPI   C1B 2189  11.027   4.284   8.961 -0.0729 -0.2258 -0.0815
  137loPI   C2B 2190  10.999   4.221   8.585  0.1687  0.1101  0.1080
  137loPI   C3B 2191  11.038   4.045   8.244 -0.1915  0.1429 -0.0353
  137loPI   C4B 2192  11.105   4.190   7.761  0.1669  0.0591  0.1143
  138loPI    C1 2193   5.601   0.110  10.453  0.1332  0.0698  0.1970
  138loPI    C2 2194   6.001   0.107  10.467  0.1343 -0.0642  0.1554
  138loPI    C3 2195   5.791   0.262  10.770  0.2136 -0.1963  0.2795
  138loPI   PO4 2196   5.460   0.296  10.279  0.1247 -0.3003 -0.1875
  138loPI   GL1 2197   5.576   0.304   9.882 -0.3437  0.1647  0.2090
  138loPI   GL2 2198   5.257   0.395   9.706 -0.1771  0.2316 -0.1258
  138loPI   C1A 2199   5.623   0.235   9.464 -0.2040  0.2039  0.0810
  138loPI   C2A 2200   5.598   0.157   8.991 -0.0540  0.0331  0.0045
  138loPI   C3A 2201   5.384   0.072   8.556  0.1469  0.2251 -0.2532
  138loPI   C4A 2202   5.536   0.201   8.212 -0.0128 -0.2198 -0.0925
  138loPI   C5A 2203   5.881   0.388   7.922  0.1251 -0.1435 -0.0643
  138loPI   C6A 2204   5.842   0.641   7.554  0.1099 -0.2166  0.0754
  138loPI   C1B 2205   5.230   0.510   9.248  0.3930  0.1821 -0.1357
  138loPI   C2B 2206   5.195   0.518   8.801 -0.2820  0.2471 -0.0083
  138loPI   C3B 2207   5.209   0.571   8.294  0.3870 -0.1803 -0.3692
  138loPI   C4B 2208   4.838   0.820   8.053 -0.2947  0.0406  0.2641
  139loPI    C1 2209  10.383   1.083   9.801  0.0325  0.2300  0.0387
  139loPI    C2 2210  10.599   1.354  10.001  0.1275  0.1757  0.0107
  139loPI    C3 2211  10.301   1.160  10.185  0.3241  0.0021  0.1511
  139loPI   PO4 2212  10.500   0.924   9.633 -0.1953 -0.0454  0.4687
  139loPI   GL1 2213  10.614   0.892   9.290 -0.1300 -0.2360  0.0199
  139loPI   GL2 2214  10.555   0.523   9.334  0.0440  0.1624  0.2261
  139loPI   C1A 2215  10.632   0.977   8.938 -0.0926 -0.2329 -0.2271
  139loPI   C2A 2216  10.958   0.985   8.714  0.0349 -0.2179 -0.2089
  139loPI   C3A 2217  11.018   0.915   8.304 -0.1074  0.3922 -0.5668
  139loPI   C4A 2218  10.915   0.982   7.924  0.1226  0.1092 -0.0821
  139loPI   C5A 2219  10.560   0.842   7.736 -0.0695 -0.0630  0.1750
  139loPI   C6A 2220  10.289   1.251   7.746  0.1379  0.1347 -0.3009
  139loPI   C1B 2221  10.611   0.366   8.943  0.1419 -0.3321 -0.0681
  139loPI   C2B 2222  10.533   0.683   8.571 -0.2208  0.0644 -0.2300
  139loPI   C3B 2223  10.514   1.038   8.317 -0.0177 -0.1171 -0.0212
  139loPI   C4B 2224  10.045   1.219   8.259 -0.0079 -0.1024  0.0877
  140loPI    C1 2225   2.147  12.310  10.511  0.0615  0.0723  0.1319
  140loPI    C2 2226   1.756  12.241  10.466  0.1044 -0.2827  0.2708
  140loPI    C3 2227   1.956  12.448  10.188 -0.1350 -0.2957  0.0855
  140loPI   PO4 2228   2.314  12.054  10.418 -0.0738  0.0819  0.0477
  140loPI   GL1 2229   2.278  11.991   9.970  0.1112 -0.2996  0.3568
  140loPI   GL2 2230   2.309  11.647   9.766 -0.2647  0.0806 -0.1229
  140loPI   C1A 2231   2.021  11.955   9.531 -0.0601 -0.3689 -0.0377
  140loPI   C2A 2232   2.004  12.141   9.143  0.0796 -0.2000 -0.0648
  140loPI   C3A 2233   2.038  12.059   8.688 -0.2368  0.2658 -0.0807
  140loPI   C4A 2234   1.828  12.241   8.334 -0.0580  0.1935  0.0460
  140loPI   C5A 2235   1.630  12.150   7.922 -0.0699 -0.1781 -0.1120
  140loPI   C6A 2236   1.255  12.157   7.661 -0.1242 -0.0946 -0.4336
  140loPI   C1B 2237   2.256  11.445   9.429  0.0268  0.0292  0.2398
  140loPI   C2B 2238   2.114  11.202   9.205 -0.0638 -0.0442  0.0208
  140loPI   C3B 2239   2.175  11.103   8.728 -0.0206  0.1683 -0.1086
  140loPI   C4B 2240   2.155  11.115   8.230  0.0141  0.1189  0.1397
  141loPI    C1 2241   0.031  11.159  10.068  0.3397  0.1370 -0.0540
  141loPI    C2 2242  -0.147  11.045  10.408  0.3213  0.0764 -0.0837
  141loPI    C3 2243  -0.133  10.795  10.096 -0.0269  0.2803 -0.2681
  141loPI   PO4 2244  -0.009  11.443  10.097 -0.0866 -0.1613 -0.0159
  141loPI   GL1 2245   0.075  11.575   9.685 -0.0900 -0.1855 -0.0919
  141loPI   GL2 2246   0.396  11.338   9.805 -0.0103 -0.1085  0.1526
  141loPI   C1A 2247   0.074  11.733   9.338 -0.1495  0.0140 -0.1074
  141loPI   C2A 2248   0.392  11.894   9.065  0.0562 -0.0235  0.4045
  141loPI   C3A 2249   0.519  12.188   8.677 -0.0897 -0.1220 -0.2337
  141loPI   C4A 2250   0.661  12.174   8.306 -0.1106  0.0952 -0.7108
  141loPI   C5A 2251   0.404  12.572   8.067  0.0641 -0.2001 -0.0575
  141loPI   C6A 2252   0.182  12.909   8.224 -0.3319 -0.0569 -0.2068
  141loPI   C1B 2253   0.240  11.210   9.349 -0.1250  0.0136 -0.0545
  141loPI   C2B 2254   0.225  11.380   9.031  0.0638 -0.1357  0.0697
  141loPI   C3B 2255   0.341  11.579   8.602  0.1578 -0.1717 -0.0489
  141loPI   C4B 2256   0.340  11.435   8.086 -0.0859 -0.0133  0.0413
  142loPI    C1 2257   8.862  10.408  10.499  0.0649  0.2359  0.0686
  142loPI    C2 2258   9.047  10.298  10.162  0.1878  0.1995  0.1477
  142loPI    C3 2259   9.261  10.407  10.482  0.0755  0.0321  0.2814
  142loPI   PO4 2260   8.708  10.567  10.313 -0.1316  0.0664 -0.0298
  142loPI   GL1 2261   8.672  10.658   9.896 -0.0113 -0.0532  0.0773
  142loPI   GL2 2262   8.383  10.746   9.745 -0.0183  0.0277  0.0338
  142loPI   C1A 2263   8.821  10.482   9.485 -0.2018  0.1357  0.0050
  142loPI   C2A 2264   8.963  10.453   8.977  0.3223  0.0231  0.2591
  142loPI   C3A 2265   9.077  10.765   8.586  0.2789 -0.0715 -0.3108
  142loPI   C4A 2266   9.053  10.556   8.179  0.2398 -0.3409  0.0927
  142loPI   C5A 2267   9.060  10.145   7.989  0.2355  0.1435 -0.0706
  142loPI   C6A 2268   9.143   9.802   8.117 -0.2201 -0.1067 -0.0176
  142loPI   C1B 2269   8.588  10.909   9.360 -0.1614  0.1238  0.0011
  142loPI   C2B 2270   8.683  10.940   8.939 -0.3609 -0.1923 -0.3521
  142loPI   C3B 2271   8.583  11.000   8.508 -0.2347  0.2130  0.0400
  142loPI   C4B 2272   8.662  10.961   8.033  0.1429 -0.0294  0.1802
  143loPI    C1 2273  13.348   3.114  10.088 -0.0222 -0.1472 -0.1420
  143loPI    C2 2274  13.515   2.846  10.334 -0.0659  0.1452  0.2156
  143loPI    C3 2275  13.159   2.770  10.167  0.0695 -0.1540  0.0537
  143loPI   PO4 2276  13.595   3.168   9.917 -0.1996 -0.1568 -0.0681
  143loPI   GL1 2277  13.675   3.412   9.555 -0.1538  0.0110 -0.1875
  143loPI   GL2 2278  13.432   3.610   9.367  0.2791  0.0732  0.1301
  143loPI   C1A 2279  14.056   3.506   9.185 -0.0145  0.1499  0.1453
  143loPI   C2A 2280  14.046   3.334   8.746  0.0651 -0.4007 -0.0129
  143loPI   C3A 2281  14.006   2.970   8.434  0.3289  0.1150 -0.3960
  143loPI   C4A 2282  14.052   2.653   8.161 -0.0057  0.1260  0.1123
  143loPI   C5A 2283  14.292   2.440   7.886  0.1423 -0.0892  0.0275
  143loPI   C6A 2284  14.469   2.365   7.487  0.2739  0.1552 -0.1519
  143loPI   C1B 2285  13.623   3.643   8.986  0.1128 -0.0674  0.0742
  143loPI   C2B 2286  13.846   3.845   8.669  0.0010 -0.1736  0.2798
  143loPI   C3B 2287  13.836   3.725   8.278 -0.0296  0.0044 -0.0189
  143loPI   C4B 2288  13.789   3.369   8.095 -0.0168 -0.1354 -0.0842
  144loPI    C1 2289  15.606   4.001   9.893  0.0923  0.1949  0.1032
  144loPI    C2 2290  15.357   3.946  10.201 -0.1177  0.0477 -0.0891
  144loPI    C3 2291  15.741   3.837  10.232 -0.1405  0.0215  0.1146
  144loPI   PO4 2292  15.380   4.022   9.646  0.1913  0.1100 -0.4930
  144loPI   GL1 2293  15.526   4.074   9.252  0.0768 -0.0861  0.1438
  144loPI   GL2 2294  15.321   3.967   9.079  0.1456 -0.0856 -0.0873
  144loPI   C1A 2295  15.689   4.363   8.902 -0.1023 -0.1199 -0.0692
  144loPI   C2A 2296  15.938   4.433   8.562 -0.1852  0.3786 -0.1197
  144loPI   C3A 2297  16.102   4.038   8.343  0.2758  0.0175  0.2530
  144loPI   C4A 2298  16.331   3.782   8.087  0.1116  0.0338  0.0627
  144loPI   C5A 2299  16.266   3.577   7.655 -0.2599 -0.1101  0.1534
  144loPI   C6A 2300  16.434   3.566   7.290  0.0042  0.0296  0.0283
  144loPI   C1B 2301  15.051   3.778   8.775 -0.0721  0.1341 -0.0924
  144loPI   C2B 2302  14.809   3.602   8.465 -0.0625 -0.2680  0.3926
  144loPI   C3B 2303  14.848   3.542   8.048  0.2220 -0.0499 -0.1045
  144loPI   C4B 2304  14.970   3.535   7.735 -0.6192 -0.4652  0.0947
  145loPI    C1 2305  18.491  17.477   9.690  0.3272  0.3483 -0.0843
  145loPI    C2 2306  18.217  17.700   9.503 -0.0961 -0.0862 -0.0020
  145loPI    C3 2307  18.191  17.639   9.898  0.1532 -0.0888  0.0158
  145loPI   PO4 2308  18.499  17.248   9.526 -0.2597  0.1282  0.1350
  145loPI   GL1 2309  18.381  17.170   9.144  0.1929  0.0175  0.0174
  145loPI   GL2 2310  18.242  16.975   9.033  0.2346  0.2027  0.3488
  145loPI   C1A 2311  18.308  17.513   8.908 -0.1246  0.2551 -0.0731
  145loPI   C2A 2312  18.407  17.748   8.646  0.0353 -0.0037 -0.0228
  145loPI   C3A 2313  18.229  18.025   8.249 -0.0814 -0.0444  0.2526
  145loPI   C4A 2314  18.110  18.114   7.829 -0.3186  0.1060 -0.0185
  145loPI   C5A 2315  18.075  18.119   7.345  0.1200 -0.2383 -0.2533
  145loPI   C6A 2316  18.043  18.396   6.988 -0.1776 -0.0608 -0.1467
  145loPI   C1B 2317  18.044  16.648   8.761  0.0816 -0.0901 -0.1657
  145loPI   C2B 2318  17.764  16.365   8.659 -0.0530 -0.2731  0.0821
  145loPI   C3B 2319  17.657  16.312   8.234  0.1596 -0.0376 -0.0381
  145loPI   C4B 2320  17.730  16.473   7.841 -0.1236  0.0060 -0.2666
  146loPI    C1 2321   3.141  14.935   9.532 -0.0447  0.1136  0.2109
  146loPI    C2 2322   3.533  14.888   9.595 -0.0574 -0.1299  0.1201
  146loPI    C3 2323   3.275  14.844   9.897 -0.0324 -0.1949  0.1319
  146loPI   PO4 2324   3.122  15.261   9.475  0.0690 -0.1195 -0.2553
  146loPI   GL1 2325   3.426  15.778   9.258 -0.0405  0.1578  0.1244
  146loPI   GL2 2326   3.314  15.494   9.037  0.3175  0.0127 -0.0309
  146loPI   C1A 2327   3.497  15.929   8.810 -0.1901 -0.0086 -0.0114
  146loPI   C2A 2328   3.559  15.858   8.265  0.0174  0.0834 -0.0747
  146loPI   C3A 2329   3.597  15.573   7.856  0.3160 -0.2819  0.2381
  146loPI   C4A 2330   3.374  15.469   7.515  0.0054  0.3432  0.0879
  146loPI   C5A 2331   3.075  15.628   7.245  0.0803  0.0509 -0.1424
  146loPI   C6A 2332   2.813  15.879   7.331 -0.0387 -0.2674  0.0960
  146loPI   C1B 2333   3.352  15.492   8.644 -0.2276  0.0526  0.0271
  146loPI   C2B 2334   3.397  15.208   8.352  0.2416  0.0962 -0.2718
  146loPI   C3B 2335   3.488  15.047   8.028  0.3362  0.0559  0.0836
  146loPI   C4B 2336   3.591  14.839   7.671  0.1220 -0.0644 -0.0104
  147loPI    C1 2337   1.260  16.347   9.582  0.0515 -0.0717  0.1552
  147loPI    C2 2338   1.325  16.739   9.623 -0.1087 -0.0037 -0.2021
  147loPI    C3 2339   1.104  16.544   9.893  0.1611  0.1016  0.1016
  147loPI   PO4 2340   1.180  16.319   9.364  0.0726 -0.2295  0.0839
  147loPI   GL1 2341   1.301  16.530   9.075 -0.1345 -0.0208 -0.1243
  147loPI   GL2 2342   1.550  16.713   9.203  0.1308  0.0591  0.3046
  147loPI   C1A 2343   1.362  16.270   8.661  0.0779  0.1798 -0.0130
  147loPI   C2A 2344   1.591  16.101   8.371 -0.1032 -0.0928  0.2412
  147loPI   C3A 2345   1.765  16.001   7.989  0.0517 -0.1320 -0.0697
  147loPI   C4A 2346   1.949  15.935   7.498  0.2632 -0.0819 -0.0292
  147loPI   C5A 2347   2.310  15.968   7.460 -0.4812 -0.0935 -0.0553
  147loPI   C6A 2348   2.578  16.361   7.260  0.3406 -0.0324  0.4412
  147loPI   C1B 2349   1.556  16.927   8.854 -0.0834  0.0974  0.0372
  147loPI   C2B 2350   1.499  17.039   8.460  0.2059  0.4196  0.1823
  147loPI   C3B 2351   1.304  16.975   8.086 -0.0127  0.4547 -0.2483
  147loPI   C4B 2352   0.991  16.791   7.765 -0.0100 -0.2128 -0.0672
  148loPI    C1 2353   9.109   7.009  10.104 -0.0839 -0.1642  0.3276
  148loPI    C2 2354   8.771   7.122  10.285 -0.0192  0.3533  0.1408
  148loPI    C3 2355   9.125   7.240  10.430  0.0656  0.1543  0.0994
  148loPI   PO4 2356   9.093   6.806  10.054 -0.0570 -0.1474  0.2245
  148loPI   GL1 2357   9.276   6.608   9.715  0.2226  0.1376  0.0194
  148loPI   GL2 2358   9.443   6.661   9.586 -0.1352  0.1974  0.0122
  148loPI   C1A 2359   9.120   6.523   9.205  0.0278 -0.3780  0.0091
  148loPI   C2A 2360   9.331   6.770   8.836 -0.3524  0.1826 -0.3516
  148loPI   C3A 2361   9.357   6.955   8.417  0.1716 -0.2506 -0.1737
  148loPI   C4A 2362   9.133   7.129   8.014  0.1216  0.1102  0.2126
  148loPI   C5A 2363   9.219   7.321   7.665  0.3106  0.2789 -0.1923
  148loPI   C6A 2364   9.245   7.745   7.588 -0.0014 -0.0411 -0.2764
  148loPI   C1B 2365   9.620   6.598   9.157 -0.0743 -0.0939  0.0182
  148loPI   C2B 2366   9.753   6.366   8.767 -0.0668 -0.0360  0.2739
  148loPI   C3B 2367  10.127   6.392   8.603 -0.1018 -0.1379 -0.2886
  148loPI   C4B 2368  10.359   6.659   8.398  0.0957 -0.0069  0.0374
  149loPI    C1 2369  13.926  14.600  10.088 -0.0499  0.0096 -0.0638
  149loPI    C2 2370  13.693  14.276  10.078 -0.0338 -0.0081  0.1120
  149loPI    C3 2371  13.820  14.420  10.429 -0.0630  0.2044  0.0365
  149loPI   PO4 2372  13.845  14.661   9.865 -0.0310 -0.1059  0.1978
  149loPI   GL1 2373  13.887  14.577   9.352 -0.3632 -0.1513 -0.0912
  149loPI   GL2 2374  14.122  14.637   9.111 -0.4177 -0.1793 -0.2089
  149loPI   C1A 2375  13.822  14.254   9.014 -0.0224  0.3250  0.1426
  149loPI   C2A 2376  13.733  14.164   8.565 -0.2488 -0.2279 -0.0613
  149loPI   C3A 2377  13.665  14.042   8.236  0.0254 -0.0810 -0.3693
  149loPI   C4A 2378  13.719  13.979   7.869  0.0315  0.0326 -0.0235
  149loPI   C5A 2379  13.813  13.767   7.510  0.0564  0.0943 -0.1287
  149loPI   C6A 2380  13.563  13.897   7.115  0.0130  0.0572  0.1165
  149loPI   C1B 2381  13.855  14.661   8.698  0.0674 -0.1570  0.0648
  149loPI   C2B 2382  13.752  14.721   8.346  0.3108 -0.2615 -0.0399
  149loPI   C3B 2383  14.080  14.543   8.009  0.0534 -0.0364 -0.2714
  149loPI   C4B 2384  14.203  14.186   7.770  0.0136 -0.1496 -0.2001
  150loPI    C1 2385  11.015   9.489   9.885  0.0395 -0.0252 -0.0837
  150loPI    C2 2386  10.648   9.499  10.043  0.0597  0.0774 -0.0428
  150loPI    C3 2387  10.968   9.490  10.282  0.0850  0.0348 -0.0784
  150loPI   PO4 2388  11.085   9.264   9.520 -0.1541 -0.1590  0.2525
  150loPI   GL1 2389  11.371   9.001   9.156  0.2331  0.0791 -0.1540
  150loPI   GL2 2390  11.362   9.322   9.097 -0.0818  0.0131 -0.2441
  150loPI   C1A 2391  11.681   8.939   8.938  0.1046  0.0793  0.1026
  150loPI   C2A 2392  11.837   8.926   8.462 -0.1500 -0.1592 -0.2853
  150loPI   C3A 2393  11.864   9.209   8.225  0.3957  0.2176 -0.2646
  150loPI   C4A 2394  11.685   9.615   8.240  0.1369 -0.3140 -0.1903
  150loPI   C5A 2395  11.867  10.032   8.068  0.0720  0.0294  0.0074
  150loPI   C6A 2396  12.297  10.267   8.079 -0.1389 -0.2817 -0.3392
  150loPI   C1B 2397  11.530   9.313   8.697 -0.1278  0.0251  0.1925
  150loPI   C2B 2398  11.314   9.318   8.276  0.3018  0.1634  0.0515
  150loPI   C3B 2399  11.179   9.318   7.913 -0.1691 -0.1173 -0.0576
  150loPI   C4B 2400  11.099   9.450   7.561  0.0769 -0.0937 -0.2195
  151loPI    C1 2401   7.788   2.255  10.072  0.1506  0.0957  0.2028
  151loPI    C2 2402   7.880   2.404   9.712 -0.0864  0.3607  0.2486
  151loPI    C3 2403   8.151   2.192   9.915  0.0371  0.1764 -0.1005
  151loPI   PO4 2404   7.458   2.182   9.978 -0.1974 -0.1209  0.1811
  151loPI   GL1 2405   7.158   2.131   9.631  0.1496  0.0988 -0.1309
  151loPI   GL2 2406   7.402   2.334   9.515  0.0603 -0.2074 -0.0920
  151loPI   C1A 2407   7.258   1.821   9.331 -0.3018 -0.2521 -0.0821
  151loPI   C2A 2408   7.044   1.762   8.913 -0.4423 -0.0810 -0.1670
  151loPI   C3A 2409   7.172   1.882   8.561  0.0532 -0.0363 -0.0128
  151loPI   C4A 2410   7.443   1.721   8.302 -0.2131 -0.1168  0.0680
  151loPI   C5A 2411   7.608   1.287   8.265 -0.3753  0.1936 -0.0258
  151loPI   C6A 2412   7.769   0.988   7.965 -0.0152  0.2010 -0.2550
  151loPI   C1B 2413   7.450   2.180   9.085 -0.0327  0.2352 -0.0097
  151loPI   C2B 2414   7.618   2.126   8.684 -0.0857 -0.2136  0.0786
  151loPI   C3B 2415   7.913   2.063   8.340 -0.0157 -0.1870  0.2047
  151loPI   C4B 2416   8.029   2.310   7.968 -0.1010  0.0346  0.0740
  152loPI    C1 2417  17.133   5.893  10.411 -0.0524  0.1714  0.0100
  152loPI    C2 2418  16.847   6.054  10.639 -0.1066 -0.0947  0.1341
  152loPI    C3 2419  16.978   5.684  10.715  0.2519  0.0137  0.0603
  152loPI   PO4 2420  17.074   5.966  10.136  0.1199 -0.2636  0.4215
  152loPI   GL1 2421  17.022   5.998   9.708 -0.0493 -0.0209  0.0578
  152loPI   GL2 2422  16.782   6.269   9.782 -0.0649 -0.1119  0.1259
  152loPI   C1A 2423  17.378   6.097   9.460 -0.6457  0.0570 -0.2302
  152loPI   C2A 2424  17.548   6.077   9.031 -0.1194  0.1979  0.0243
  152loPI   C3A 2425  17.459   6.070   8.640 -0.4276  0.0135  0.2589
  152loPI   C4A 2426  17.523   5.925   8.301 -0.2324 -0.3047 -0.2112
  152loPI   C5A 2427  17.594   5.804   7.860 -0.1757 -0.1224  0.0299
  152loPI   C6A 2428  17.619   5.649   7.415 -0.4091 -0.1677  0.1698
  152loPI   C1B 2429  16.771   6.372   9.417  0.0745  0.1124  0.3057
  152loPI   C2B 2430  16.646   6.559   9.073  0.0651 -0.0844  0.0298
  152loPI   C3B 2431  16.707   6.919   8.968  0.0752  0.2491  0.6084
  152loPI   C4B 2432  16.945   7.214   8.799  0.2577  0.1293 -0.1979
  153loPI    C1 2433   4.188   6.379  10.267 -0.2075 -0.2155  0.0252
  153loPI    C2 2434   4.010   6.689  10.087  0.1077 -0.0171  0.0490
  153loPI    C3 2435   4.006   6.659  10.486  0.0919 -0.0342  0.0475
  153loPI   PO4 2436   4.114   6.194  10.112  0.1155  0.3086  0.1346
  153loPI   GL1 2437   4.064   6.266   9.724 -0.2254 -0.3006  0.1017
  153loPI   GL2 2438   3.812   6.397   9.646  0.1651 -0.1289 -0.0825
  153loPI   C1A 2439   4.243   6.452   9.356  0.6012 -0.3540 -0.1935
  153loPI   C2A 2440   4.473   6.295   8.985  0.1648  0.3690 -0.1234
  153loPI   C3A 2441   4.826   6.389   8.739  0.1414  0.0415  0.0462
  153loPI   C4A 2442   5.057   6.480   8.398 -0.1863  0.1003 -0.1230
  153loPI   C5A 2443   5.138   6.488   8.032  0.2042 -0.1284  0.0242
  153loPI   C6A 2444   5.478   6.520   7.874  0.3447 -0.3396  0.0014
  153loPI   C1B 2445   3.782   6.544   9.126  0.2194 -0.0688 -0.1378
  153loPI   C2B 2446   3.661   6.526   8.676 -0.0841 -0.2579  0.0600
  153loPI   C3B 2447   3.891   6.730   8.296  0.2250 -0.2907  0.1253
  153loPI   C4B 2448   4.167   6.906   8.091 -0.0827 -0.3645 -0.3165
  154loPI    C1 2449   0.999   6.025  10.587  0.2151 -0.0313 -0.2828
  154loPI    C2 2450   1.062   6.409  10.680 -0.4193  0.0089  0.0318
  154loPI    C3 2451   1.001   6.140  10.970 -0.2400 -0.2840 -0.1971
  154loPI   PO4 2452   1.072   6.016  10.367 -0.2548 -0.0275 -0.0489
  154loPI   GL1 2453   1.379   6.147   9.958  0.2091 -0.3806  0.1555
  154loPI   GL2 2454   1.132   6.194   9.770 -0.1214 -0.2060  0.1077
  154loPI   C1A 2455   1.687   6.209   9.665 -0.1063  0.0308  0.1761
  154loPI   C2A 2456   1.685   6.241   9.212  0.0416 -0.0330 -0.3869
  154loPI   C3A 2457   1.860   6.191   8.847 -0.3181 -0.0498  0.0753
  154loPI   C4A 2458   1.920   6.193   8.329 -0.0599  0.4159  0.3455
  154loPI   C5A 2459   1.899   5.905   7.923  0.0060 -0.2938 -0.2729
  154loPI   C6A 2460   2.213   6.132   7.711  0.0185 -0.0385  0.4033
  154loPI   C1B 2461   1.201   6.253   9.452 -0.2355  0.2151  0.2383
  154loPI   C2B 2462   1.110   6.402   9.027 -0.3081  0.3377  0.0020
  154loPI   C3B 2463   0.898   6.283   8.668 -0.2231 -0.0117  0.2116
  154loPI   C4B 2464   0.991   6.015   8.271  0.3549 -0.0619  0.1372
  155loPI    C1 2465  10.153   3.170   9.817  0.1001 -0.0154 -0.1106
  155loPI    C2 2466   9.949   3.352   9.525  0.1878  0.1347 -0.0797
  155loPI    C3 2467  10.084   3.564   9.836  0.0920 -0.0248  0.0723
  155loPI   PO4 2468  10.242   2.979   9.704 -0.0133 -0.3481  0.0378
  155loPI   GL1 2469  10.114   2.645   9.481  0.0405 -0.0436  0.1696
  155loPI   GL2 2470   9.848   2.896   9.307  0.0746 -0.0408 -0.0616
  155loPI   C1A 2471  10.157   2.600   9.020  0.0080 -0.0786 -0.2255
  155loPI   C2A 2472  10.397   2.849   8.736 -0.2504  0.1497 -0.1165
  155loPI   C3A 2473  10.574   2.796   8.261  0.2252  0.1281  0.1570
  155loPI   C4A 2474  10.925   2.692   8.144  0.0740 -0.2478 -0.1931
  155loPI   C5A 2475  11.188   2.382   8.104 -0.1013  0.1281 -0.1675
  155loPI   C6A 2476  11.405   2.166   7.726  0.0255  0.0505 -0.1442
  155loPI   C1B 2477   9.920   3.031   8.862 -0.0334 -0.0149 -0.4443
  155loPI   C2B 2478  10.123   3.345   8.562 -0.0138  0.0518  0.1090
  155loPI   C3B 2479  10.162   3.230   8.230  0.0020 -0.0981  0.0438
  155loPI   C4B 2480  10.551   3.246   7.979 -0.3672 -0.0278 -0.1738
  156loPI    C1 2481  15.173  15.346  10.271 -0.4493 -0.0514  0.1976
  156loPI    C2 2482  15.262  15.060  10.537 -0.0018 -0.1716 -0.0708
  156loPI    C3 2483  15.442  15.417  10.558 -0.1546 -0.0940 -0.0625
  156loPI   PO4 2484  15.162  15.373  10.029  0.0424 -0.2338  0.0625
  156loPI   GL1 2485  15.234  15.456   9.555 -0.2804  0.0261 -0.0854
  156loPI   GL2 2486  14.971  15.649   9.512  0.0524  0.4564  0.0344
  156loPI   C1A 2487  15.676  15.447   9.252 -0.2626 -0.0700  0.1711
  156loPI   C2A 2488  15.835  15.834   9.094  0.2625  0.3431  0.4774
  156loPI   C3A 2489  16.071  16.137   8.739 -0.2214  0.1906 -0.1515
  156loPI   C4A 2490  16.378  16.211   8.418 -0.1091  0.0519  0.4588
  156loPI   C5A 2491  16.444  16.324   8.005 -0.1318  0.3082  0.1858
  156loPI   C6A 2492  16.706  16.657   7.917 -0.0340 -0.0745  0.2124
  156loPI   C1B 2493  14.838  15.464   9.086  0.2208  0.2511  0.0298
  156loPI   C2B 2494  14.999  15.255   8.737  0.0528 -0.2469 -0.1092
  156loPI   C3B 2495  14.938  14.961   8.388  0.2639 -0.0503 -0.2075
  156loPI   C4B 2496  14.995  14.650   8.220 -0.0170  0.0474 -0.2487
  157loPI    C1 2497   7.096  16.973  10.264  0.4087 -0.0070  0.1556
  157loPI    C2 2498   7.234  16.963  10.639  0.0216 -0.2791  0.2973
  157loPI    C3 2499   7.124  16.624  10.458 -0.1526 -0.1067  0.0745
  157loPI   PO4 2500   7.182  17.037  10.033 -0.3302 -0.1120 -0.1966
  157loPI   GL1 2501   7.040  17.245   9.711  0.0684  0.0367  0.0237
  157loPI   GL2 2502   6.839  16.987   9.490  0.1178  0.0375 -0.1168
  157loPI   C1A 2503   7.241  17.303   9.449  0.0596  0.1264 -0.1229
  157loPI   C2A 2504   7.374  17.342   8.937 -0.0885  0.0748 -0.0805
  157loPI   C3A 2505   7.444  17.336   8.493  0.1383 -0.2705  0.0338
  157loPI   C4A 2506   7.691  17.600   8.129 -0.1421 -0.3068 -0.5811
  157loPI   C5A 2507   7.774  17.777   7.656  0.2596  0.2734  0.3555
  157loPI   C6A 2508   7.918  17.538   7.333 -0.1196  0.0624 -0.0753
  157loPI   C1B 2509   7.135  16.941   9.138  0.0140 -0.1479 -0.0135
  157loPI   C2B 2510   7.405  16.724   8.892 -0.0240 -0.0569  0.1153
  157loPI   C3B 2511   7.586  16.620   8.491 -0.0634 -0.1871 -0.1547
  157loPI   C4B 2512   7.642  16.504   8.117  0.2450  0.0853  0.0819
  158loPI    C1 2513   2.937  17.916   9.661 -0.1724 -0.0459  0.1463
  158loPI    C2 2514   3.160  18.115   9.926  0.0128  0.0850 -0.1036
  158loPI    C3 2515   3.334  17.935   9.614 -0.1980 -0.1106 -0.1107
  158loPI   PO4 2516   2.694  18.009   9.702 -0.4884  0.1866  0.2547
  158loPI   GL1 2517   2.476  18.016   9.447  0.4491 -0.1242 -0.1881
  158loPI   GL2 2518   2.250  17.841   9.506 -0.1279  0.1183  0.1281
  158loPI   C1A 2519   2.444  18.381   9.134 -0.0138  0.3514  0.0340
  158loPI   C2A 2520   2.474  18.590   8.745  0.0400  0.0819 -0.1123
  158loPI   C3A 2521   2.773  18.418   8.506  0.2314  0.2435  0.3518
  158loPI   C4A 2522   3.129  18.437   8.254  0.1082  0.1768  0.0065
  158loPI   C5A 2523   3.441  18.533   7.933  0.1916 -0.0273  0.1502
  158loPI   C6A 2524   3.514  18.580   7.493  0.1109  0.2749  0.3084
  158loPI   C1B 2525   1.966  18.255   9.222  0.2087 -0.0200  0.1837
  158loPI   C2B 2526   2.031  18.395   8.773 -0.0243 -0.1994  0.1979
  158loPI   C3B 2527   1.971  18.479   8.351 -0.0803 -0.2090  0.0589
  158loPI   C4B 2528   1.959  18.774   8.049 -0.3834  0.1101  0.0049
  159loPI    C1 2529  16.611   8.823   9.940  0.0879  0.0306 -0.0152
  159loPI    C2 2530  16.729   8.482   9.767 -0.0654 -0.1167  0.1661
  159loPI    C3 2531  16.705   8.506  10.166 -0.0606  0.1058  0.1543
  159loPI   PO4 2532  16.542   8.989   9.787 -0.4680 -0.1415 -0.1648
  159loPI   GL1 2533  16.589   9.054   9.326 -0.0190  0.1010 -0.3081
  159loPI   GL2 2534  16.584   8.756   9.347 -0.2702 -0.0136 -0.0732
  159loPI   C1A 2535  16.695   9.325   8.995 -0.3136 -0.0607 -0.2694
  159loPI   C2A 2536  16.858   9.338   8.630 -0.1786  0.1505  0.3769
  159loPI   C3A 2537  17.048   9.408   8.334 -0.1273 -0.0735 -0.1997
  159loPI   C4A 2538  17.160   9.182   7.913 -0.1158  0.2040 -0.3919
  159loPI   C5A 2539  17.532   9.147   7.691  0.0443 -0.0109  0.0883
  159loPI   C6A 2540  17.913   9.098   7.797  0.1128 -0.3381  0.1584
  159loPI   C1B 2541  16.745   8.815   8.939  0.1725  0.3365 -0.0460
  159loPI   C2B 2542  17.042   8.874   8.593  0.4640 -0.3043 -0.1752
  159loPI   C3B 2543  17.266   8.985   8.353 -0.1382  0.3665  0.0938
  159loPI   C4B 2544  17.435   8.732   8.014 -0.2048 -0.1362  0.3651
  160loPI    C1 2545   9.575  18.623   9.901 -0.0710  0.2446  0.0743
  160loPI    C2 2546   9.799  18.527  10.219  0.0514  0.1097 -0.0510
  160loPI    C3 2547   9.402  18.477  10.232  0.0961 -0.2777 -0.0587
  160loPI   PO4 2548   9.605  18.871   9.902  0.1222 -0.1865 -0.1646
  160loPI   GL1 2549   9.691  19.029   9.506 -0.0455 -0.2146  0.2354
  160loPI   GL2 2550   9.783  18.690   9.418  0.0527 -0.0082 -0.3030
  160loPI   C1A 2551   9.404  19.092   9.161  0.0845  0.0877 -0.0248
  160loPI   C2A 2552   9.096  19.128   8.843  0.0393 -0.1553  0.0341
  160loPI   C3A 2553   9.064  19.012   8.377  0.3287  0.1586  0.2825
  160loPI   C4A 2554   9.454  18.989   8.051  0.0321  0.0247 -0.0000
  160loPI   C5A 2555   9.327  18.973   7.693  0.0198 -0.1872 -0.1489
  160loPI   C6A 2556   9.098  19.187   7.366 -0.0107  0.2695 -0.1906
  160loPI   C1B 2557   9.876  18.702   8.976 -0.2950  0.0700  0.1342
  160loPI   C2B 2558   9.895  18.589   8.579  0.2906  0.0328 -0.0111
  160loPI   C3B 2559   9.861  18.725   8.178  0.1023  0.0622  0.2427
  160loPI   C4B 2560  10.012  18.924   7.858 -0.1420  0.1424  0.0645
  161loPI    C1 2561   1.482   2.822  10.390  0.0440  0.1509  0.2106
  161loPI    C2 2562   1.720   2.531  10.526 -0.3045 -0.1166  0.2617
  161loPI    C3 2563   1.742   2.898  10.684 -0.0004 -0.1642  0.3355
  161loPI   PO4 2564   1.546   2.818  10.155 -0.0562 -0.0983 -0.1521
  161loPI   GL1 2565   1.547   2.926   9.706  0.2090 -0.2484 -0.0680
  161loPI   GL2 2566   1.892   2.976   9.765  0.4204 -0.1955  0.2186
  161loPI   C1A 2567   1.262   2.907   9.349  0.0183  0.0871 -0.2297
  161loPI   C2A 2568   1.193   2.890   8.900  0.1035 -0.3216  0.0215
  161loPI   C3A 2569   1.306   2.730   8.482  0.0905 -0.1145  0.0649
  161loPI   C4A 2570   1.287   2.731   8.067  0.4548  0.5003 -0.0352
  161loPI   C5A 2571   1.553   2.637   7.659  0.2034  0.3181 -0.0349
  161loPI   C6A 2572   1.991   2.618   7.350 -0.1889 -0.2457 -0.0668
  161loPI   C1B 2573   1.777   2.986   9.284 -0.0842  0.1235 -0.1389
  161loPI   C2B 2574   1.664   2.919   8.831 -0.0506  0.1350  0.2550
  161loPI   C3B 2575   1.781   2.725   8.369  0.1490 -0.1851  0.2099
  161loPI   C4B 2576   1.682   2.463   8.144  0.3048 -0.0739 -0.2356
  162loPI    C1 2577  17.430   8.828  10.303  0.0260 -0.2350  0.3085
  162loPI    C2 2578  17.220   9.157  10.392 -0.1010 -0.2906  0.2185
  162loPI    C3 2579  17.033   8.805  10.351 -0.0248 -0.2966 -0.1034
  162loPI   PO4 2580  17.573   8.944  10.060 -0.1384  0.2131  0.0984
  162loPI   GL1 2581  17.607   8.831   9.690 -0.1298 -0.0657 -0.0429
  162loPI   GL2 2582  17.855   9.055   9.597 -0.0136  0.1554 -0.1415
  162loPI   C1A 2583  17.495   8.631   9.387 -0.1900 -0.0638  0.2774
  162loPI   C2A 2584  17.487   8.590   9.013  0.2963 -0.0752  0.1314
  162loPI   C3A 2585  17.521   8.648   8.645  0.0336  0.1440  0.3175
  162loPI   C4A 2586  17.328   8.452   8.439  0.0556  0.1129 -0.0473
  162loPI   C5A 2587  17.185   8.194   8.160  0.1486 -0.4967 -0.2719
  162loPI   C6A 2588  17.155   7.790   7.844  0.3225 -0.0131  0.0469
  162loPI   C1B 2589  17.739   8.991   9.177  0.0462 -0.0349  0.3138
  162loPI   C2B 2590  17.757   9.027   8.774 -0.1151 -0.0528  0.3189
  162loPI   C3B 2591  17.788   8.983   8.332 -0.0928  0.1409  0.0844
  162loPI   C4B 2592  17.991   8.731   8.092  0.0840 -0.0928 -0.3587
  163loPI    C1 2593   3.650  17.410   9.915 -0.0291 -0.0272  0.0536
  163loPI    C2 2594   3.638  17.804   9.984  0.0039 -0.0476  0.1779
  163loPI    C3 2595   3.540  17.547  10.275 -0.3864 -0.1244 -0.0144
  163loPI   PO4 2596   3.549  17.346   9.727 -0.2027  0.1131 -0.3219
  163loPI   GL1 2597   3.858  17.185   9.366  0.0396 -0.2346  0.1097
  163loPI   GL2 2598   3.718  17.511   9.290  0.3005 -0.1052  0.0941
  163loPI   C1A 2599   4.203  17.123   9.138  0.4229 -0.0963  0.1781
  163loPI   C2A 2600   4.264  17.075   8.810  0.3016 -0.1280  0.0626
  163loPI   C3A 2601   4.405  17.101   8.427 -0.1646  0.1530  0.1885
  163loPI   C4A 2602   4.500  16.915   8.058  0.0260 -0.2103  0.0562
  163loPI   C5A 2603   4.675  16.637   7.828 -0.0356  0.1561  0.0703
  163loPI   C6A 2604   4.934  16.444   7.707 -0.0838  0.2231 -0.0061
  163loPI   C1B 2605   3.745  17.273   8.918 -0.1542 -0.1398  0.0067
  163loPI   C2B 2606   3.836  17.206   8.503 -0.1362  0.1683 -0.0053
  163loPI   C3B 2607   3.872  16.869   8.283 -0.0939  0.1599  0.0757
  163loPI   C4B 2608   3.933  16.895   7.896 -0.1132  0.0610  0.2631
  164loPI    C1 2609   1.423   9.024  10.187  0.0503  0.2829 -0.1786
  164loPI    C2 2610   1.506   9.263  10.497  0.0339  0.1562 -0.0755
  164loPI    C3 2611   1.763   9.234  10.192  0.1203  0.1674 -0.0040
  164loPI   PO4 2612   1.108   9.050  10.159 -0.0974  0.0354 -0.0390
  164loPI   GL1 2613   0.840   9.068   9.746  0.2025 -0.0229  0.3664
  164loPI   GL2 2614   0.473   8.869   9.905  0.0305  0.3215 -0.1170
  164loPI   C1A 2615   1.067   9.123   9.456 -0.2701  0.2679  0.1336
  164loPI   C2A 2616   1.122   9.044   9.103 -0.1325 -0.1210 -0.0257
  164loPI   C3A 2617   0.963   9.075   8.734 -0.0571  0.1702 -0.2077
  164loPI   C4A 2618   1.218   8.978   8.354  0.1393 -0.2533  0.1326
  164loPI   C5A 2619   1.127   8.975   7.972  0.3767 -0.1994 -0.0365
  164loPI   C6A 2620   1.211   8.833   7.565  0.1583 -0.0525  0.1055
  164loPI   C1B 2621   0.391   8.972   9.505  0.1229 -0.4195 -0.0194
  164loPI   C2B 2622   0.302   9.103   9.147 -0.3103  0.1307  0.2930
  164loPI   C3B 2623   0.084   9.278   8.739  0.0881 -0.0134  0.1560
  164loPI   C4B 2624  -0.098   9.168   8.450  0.0038 -0.1419 -0.2047
  165loPI    C1 2625  11.643  13.867  10.311  0.0120  0.1043  0.0497
  165loPI    C2 2626  11.340  13.850  10.050 -0.0149 -0.0307  0.0888
  165loPI    C3 2627  11.288  14.026  10.406 -0.0768 -0.1385  0.1337
  165loPI   PO4 2628  11.845  13.784  10.146  0.2196  0.1384 -0.2489
  165loPI   GL1 2629  11.647  13.490   9.798  0.2117 -0.1700  0.0129
  165loPI   GL2 2630  11.824  13.279   9.517 -0.7015 -0.0146 -0.1531
  165loPI   C1A 2631  11.487  13.640   9.391  0.1202  0.2078 -0.3408
  165loPI   C2A 2632  11.507  13.665   9.031  0.1414 -0.2534  0.0802
  165loPI   C3A 2633  11.444  13.678   8.588  0.0111  0.2408 -0.1578
  165loPI   C4A 2634  11.418  13.602   8.248 -0.0763  0.0648 -0.3476
  165loPI   C5A 2635  11.621  13.573   7.928  0.1441  0.3321 -0.1490
  165loPI   C6A 2636  11.510  13.731   7.547  0.3760 -0.0693 -0.1294
  165loPI   C1B 2637  11.796  13.185   9.247  0.0332  0.0143 -0.2467
  165loPI   C2B 2638  11.773  13.296   8.793 -0.1090  0.1045  0.1292
  165loPI   C3B 2639  11.710  13.229   8.348  0.0671  0.0154 -0.1423
  165loPI   C4B 2640  12.049  13.317   7.977 -0.2988  0.1429  0.1582
  166loPI    C1 2641   4.948   0.310  10.258 -0.1138  0.0227  0.0727
  166loPI    C2 2642   4.958   0.643  10.480 -0.1845  0.1126 -0.0575
  166loPI    C3 2643   5.162   0.625  10.136 -0.3675  0.1063 -0.1670
  166loPI   PO4 2644   4.748   0.175  10.153 -0.0621  0.2878  0.1929
  166loPI   GL1 2645   4.799   0.201   9.797  0.1270 -0.0382  0.1512
  166loPI   GL2 2646   4.719  -0.132   9.750  0.3937  0.0149 -0.1992
  166loPI   C1A 2647   4.671   0.243   9.397  0.1512 -0.1966 -0.0845
  166loPI   C2A 2648   4.734   0.511   9.094 -0.1546 -0.1250  0.0990
  166loPI   C3A 2649   4.753   0.504   8.661  0.1048 -0.1497  0.1922
  166loPI   C4A 2650   4.656   0.237   8.277  0.0326 -0.1252 -0.0577
  166loPI   C5A 2651   4.350   0.076   8.116  0.0485  0.2141  0.1569
  166loPI   C6A 2652   4.390  -0.234   7.759  0.2019 -0.3340  0.1775
  166loPI   C1B 2653   4.379  -0.126   9.454  0.2975  0.1367 -0.0618
  166loPI   C2B 2654   4.067   0.015   9.272  0.1330  0.1646 -0.0188
  166loPI   C3B 2655   3.854  -0.042   8.896  0.2163 -0.1597  0.4584
  166loPI   C4B 2656   3.669  -0.050   8.466 -0.0989  0.0235  0.0011
  167loPI    C1 2657   8.511  14.492  10.292 -0.0722  0.1659 -0.0501
  167loPI    C2 2658   8.237  14.452  10.004 -0.0606 -0.0331 -0.0346
  167loPI    C3 2659   8.171  14.702  10.310 -0.0263  0.2607 -0.2632
  167loPI   PO4 2660   8.725  14.597  10.247 -0.0168 -0.0997  0.1446
  167loPI   GL1 2661   8.712  14.723   9.814 -0.0561  0.1776  0.2125
  167loPI   GL2 2662   9.031  14.656   9.730  0.3980 -0.0334 -0.0710
  167loPI   C1A 2663   8.512  14.506   9.406 -0.1370  0.3125  0.4571
  167loPI   C2A 2664   8.697  14.494   8.944  0.0304 -0.2079  0.1188
  167loPI   C3A 2665   8.705  14.743   8.609 -0.0008  0.1075  0.0210
  167loPI   C4A 2666   8.855  14.494   8.177  0.0065 -0.1299 -0.0075
  167loPI   C5A 2667   8.810  14.412   7.737  0.1906  0.0561 -0.2255
  167loPI   C6A 2668   8.462  14.139   7.616  0.2103 -0.2907  0.0051
  167loPI   C1B 2669   8.883  14.799   9.356 -0.0337  0.1185  0.0892
  167loPI   C2B 2670   8.981  14.894   9.050 -0.2030 -0.1974  0.1063
  167loPI   C3B 2671   8.886  15.138   8.798  0.2126 -0.0341 -0.0413
  167loPI   C4B 2672   9.090  14.993   8.428 -0.2694 -0.1416  0.1853
  168loPI    C1 2673   8.326   6.600  10.264  0.0544 -0.1372 -0.1678
  168loPI    C2 2674   8.714   6.658  10.346  0.0109 -0.0951  0.0138
  168loPI    C3 2675   8.435   6.877  10.532 -0.1064 -0.2076 -0.0277
  168loPI   PO4 2676   8.239   6.449   9.960 -0.3305  0.0244 -0.1190
  168loPI   GL1 2677   8.295   6.505   9.522  0.2148 -0.1984 -0.4082
  168loPI   GL2 2678   8.434   6.764   9.382  0.1955 -0.0162  0.0289
  168loPI   C1A 2679   8.166   6.122   9.258 -0.0905  0.1694  0.1422
  168loPI   C2A 2680   8.268   6.167   8.791 -0.0900  0.2485  0.1276
  168loPI   C3A 2681   8.485   6.224   8.486  0.0449 -0.1065  0.1154
  168loPI   C4A 2682   8.606   6.427   8.091 -0.1470 -0.2448  0.2793
  168loPI   C5A 2683   8.283   6.436   7.767  0.1113 -0.0167 -0.2432
  168loPI   C6A 2684   7.987   6.094   7.592 -0.2143  0.5796 -0.1569
  168loPI   C1B 2685   8.475   6.634   8.931  0.2200  0.1572  0.1066
  168loPI   C2B 2686   8.459   6.720   8.539  0.1103  0.0883 -0.2345
  168loPI   C3B 2687   8.457   6.875   8.050  0.0437  0.1787  0.0196
  168loPI   C4B 2688   8.398   7.118   7.727 -0.0673  0.0994 -0.1882
  169loPI    C1 2689   4.142  11.259  10.227 -0.2712  0.0831 -0.0296
  169loPI    C2 2690   4.484  11.221  10.432 -0.3484 -0.0563  0.0746
  169loPI    C3 2691   4.266  11.555  10.467 -0.2147  0.0401 -0.0056
  169loPI   PO4 2692   4.169  11.195  10.005 -0.2694 -0.0535  0.2982
  169loPI   GL1 2693   4.237  11.124   9.518 -0.0473 -0.1485  0.1675
  169loPI   GL2 2694   4.266  10.974   9.247 -0.3156  0.1768  0.0320
  169loPI   C1A 2695   3.906  11.289   9.209  0.0139 -0.1645  0.4224
  169loPI   C2A 2696   3.639  11.192   8.773  0.1398 -0.1513 -0.3562
  169loPI   C3A 2697   3.631  10.967   8.282 -0.4050  0.1280 -0.1079
  169loPI   C4A 2698   3.510  10.913   7.960 -0.0644 -0.0913 -0.0226
  169loPI   C5A 2699   3.347  10.952   7.582 -0.1428  0.0480 -0.3375
  169loPI   C6A 2700   3.223  10.667   7.203 -0.0185  0.4344 -0.4589
  169loPI   C1B 2701   4.578  10.745   9.075 -0.1647 -0.0490 -0.1459
  169loPI   C2B 2702   5.022  10.614   8.843 -0.0185  0.3514 -0.2823
  169loPI   C3B 2703   5.209  10.382   8.522 -0.0612 -0.4035  0.0744
  169loPI   C4B 2704   5.503  10.200   8.276  0.0878  0.3131 -0.1065
  170loPI    C1 2705   5.578  15.767  10.038  0.0827  0.0059 -0.0592
  170loPI    C2 2706   5.944  15.705  10.188  0.0686  0.3159  0.1105
  170loPI    C3 2707   5.667  15.418  10.212  0.2571  0.1316  0.1089
  170loPI   PO4 2708   5.625  15.833   9.753 -0.0777  0.3319  0.3289
  170loPI   GL1 2709   5.660  15.646   9.364 -0.0431  0.1031 -0.0664
  170loPI   GL2 2710   5.401  15.573   9.179 -0.1619  0.0497 -0.2598
  170loPI   C1A 2711   5.988  15.743   9.108 -0.0455  0.2301  0.0486
  170loPI   C2A 2712   6.286  15.989   8.814  0.0547  0.0965 -0.0984
  170loPI   C3A 2713   6.542  15.929   8.414 -0.1989 -0.0192 -0.1237
  170loPI   C4A 2714   6.838  16.118   8.097 -0.0455 -0.1904 -0.0436
  170loPI   C5A 2715   6.866  16.304   7.700 -0.2611  0.0668 -0.0499
  170loPI   C6A 2716   6.780  16.447   7.306  0.2364 -0.2003  0.1701
  170loPI   C1B 2717   5.294  15.652   8.744  0.3530 -0.2311  0.1530
  170loPI   C2B 2718   5.432  15.462   8.396 -0.0578  0.3156  0.2881
  170loPI   C3B 2719   5.560  15.567   7.949  0.1867 -0.1301 -0.0947
  170loPI   C4B 2720   5.832  15.322   7.659 -0.1371  0.1109  0.1794
  171loPI    C1 2721  11.527   2.148   9.907 -0.1700 -0.2517 -0.0599
  171loPI    C2 2722  11.133   2.118   9.846 -0.2254 -0.0183  0.1655
  171loPI    C3 2723  11.298   1.952  10.170 -0.1354 -0.1214  0.0680
  171loPI   PO4 2724  11.655   2.120   9.608 -0.2904 -0.0740  0.1204
  171loPI   GL1 2725  11.661   2.306   9.247  0.0723 -0.2207  0.0454
  171loPI   GL2 2726  11.423   2.604   9.416  0.2834 -0.0881 -0.2393
  171loPI   C1A 2727  11.705   2.439   8.803 -0.0550  0.0349 -0.3991
  171loPI   C2A 2728  11.911   2.288   8.430  0.2024  0.0346  0.0916
  171loPI   C3A 2729  11.748   2.427   8.042 -0.0252 -0.1933 -0.0990
  171loPI   C4A 2730  11.888   2.499   7.651  0.3636  0.1264  0.2207
  171loPI   C5A 2731  12.323   2.424   7.448 -0.1421  0.0625 -0.1260
  171loPI   C6A 2732  12.653   2.048   7.552 -0.1498 -0.3685  0.1032
  171loPI   C1B 2733  11.235   2.565   8.987 -0.0490  0.0486  0.0624
  171loPI   C2B 2734  11.187   2.691   8.693  0.0134 -0.1062 -0.1533
  171loPI   C3B 2735  11.450   2.633   8.406 -0.1273  0.0182 -0.1706
  171loPI   C4B 2736  11.702   2.895   8.169  0.3291 -0.0695 -0.0150
  172loPI    C1 2737  11.029  17.957   9.963 -0.0596  0.0034 -0.0712
  172loPI    C2 2738  10.632  18.011   9.955 -0.0525  0.0710  0.0170
  172loPI    C3 2739  10.867  18.278  10.139 -0.0158 -0.2504  0.4517
  172loPI   PO4 2740  11.026  17.865   9.677 -0.0271 -0.2758 -0.2582
  172loPI   GL1 2741  10.939  17.464   9.370 -0.1035 -0.0747 -0.0802
  172loPI   GL2 2742  11.287  17.587   9.163 -0.2462 -0.0161  0.0669
  172loPI   C1A 2743  10.811  17.614   8.981 -0.1888 -0.0306 -0.0882
  172loPI   C2A 2744  10.781  17.571   8.528 -0.2078  0.2210  0.1611
  172loPI   C3A 2745  10.728  17.740   8.108  0.0240 -0.1449 -0.0107
  172loPI   C4A 2746  10.803  17.560   7.656 -0.0122 -0.0407  0.1854
  172loPI   C5A 2747  10.456  17.247   7.377  0.1482  0.3618 -0.1873
  172loPI   C6A 2748  10.296  16.870   7.504  0.0327  0.3462 -0.0868
  172loPI   C1B 2749  11.269  17.506   8.744 -0.3238 -0.0026  0.4319
  172loPI   C2B 2750  11.187  17.230   8.448  0.2669  0.0451 -0.1455
  172loPI   C3B 2751  10.903  17.214   8.074  0.2706 -0.0510  0.1456
  172loPI   C4B 2752  10.727  16.998   7.744 -0.1150 -0.2284 -0.1227
  173loPI    C1 2753   0.078  12.004   9.953  0.0556 -0.0097 -0.1213
  173loPI    C2 2754   0.395  12.169  10.132  0.0642  0.0112 -0.1556
  173loPI    C3 2755   0.421  11.800   9.981  0.0018 -0.0789  0.0494
  173loPI   PO4 2756  -0.189  12.261   9.922  0.1517  0.0523  0.1661
  173loPI   GL1 2757  -0.374  12.383   9.694  0.3059  0.0938 -0.1145
  173loPI   GL2 2758  -0.728  12.285   9.472 -0.1099  0.0829  0.1565
  173loPI   C1A 2759  -0.354  12.557   9.319 -0.3647 -0.2493  0.1704
  173loPI   C2A 2760  -0.132  12.855   9.064  0.0118  0.1541 -0.1456
  173loPI   C3A 2761   0.124  13.181   9.170  0.2292  0.0734  0.0831
  173loPI   C4A 2762   0.166  13.216   8.683 -0.4046  0.0930 -0.1725
  173loPI   C5A 2763  -0.093  13.307   8.267  0.2393 -0.0820  0.2044
  173loPI   C6A 2764  -0.447  13.534   7.960  0.1150  0.0577  0.1862
  173loPI   C1B 2765  -0.992  12.273   9.116 -0.1442  0.0233  0.3825
  173loPI   C2B 2766  -0.969  12.178   8.701  0.0373 -0.2812 -0.1847
  173loPI   C3B 2767  -0.918  12.155   8.261  0.0847  0.2067 -0.1961
  173loPI   C4B 2768  -1.059  12.012   7.906  0.0886 -0.1910  0.0883
  174loPI    C1 2769   6.537   2.913  10.081 -0.0818 -0.1743 -0.0454
  174loPI    C2 2770   6.333   2.578  10.158 -0.1130 -0.1658 -0.0899
  174loPI    C3 2771   6.585   2.727  10.431 -0.1670 -0.1760 -0.0344
  174loPI   PO4 2772   6.654   2.908   9.833  0.0250  0.0981  0.1783
  174loPI   GL1 2773   6.620   2.515   9.560 -0.1854 -0.3281  0.4092
  174loPI   GL2 2774   6.930   2.578   9.563  0.3919 -0.0623  0.4546
  174loPI   C1A 2775   6.719   2.718   9.188  0.2036 -0.0731 -0.2278
  174loPI   C2A 2776   6.768   2.716   8.849 -0.2410 -0.0407 -0.1631
  174loPI   C3A 2777   6.671   2.725   8.411 -0.0903 -0.2039  0.1227
  174loPI   C4A 2778   6.280   2.909   8.208 -0.2265  0.2111 -0.1956
  174loPI   C5A 2779   6.175   2.695   7.822 -0.0417  0.1789  0.2783
  174loPI   C6A 2780   6.377   2.563   7.557  0.1660 -0.0960  0.0964
  174loPI   C1B 2781   6.964   2.292   9.210 -0.1895  0.2432 -0.0131
  174loPI   C2B 2782   6.802   2.230   8.820 -0.3154  0.2283 -0.0140
  174loPI   C3B 2783   6.717   2.231   8.388  0.1770  0.0586 -0.2458
  174loPI   C4B 2784   6.479   2.354   8.074 -0.0278 -0.2138 -0.0041
  175loPI    C1 2785  15.301  10.559  10.104 -0.3495 -0.3289  0.2779
  175loPI    C2 2786  15.594  10.430  10.343 -0.1429 -0.1681  0.1152
  175loPI    C3 2787  15.439  10.795  10.397 -0.1290 -0.1502  0.0350
  175loPI   PO4 2788  15.399  10.586   9.829 -0.0003 -0.0522 -0.0565
  175loPI   GL1 2789  15.411  10.901   9.537 -0.1058 -0.1170  0.0750
  175loPI   GL2 2790  15.600  10.643   9.364 -0.1397 -0.0760  0.0537
  175loPI   C1A 2791  15.247  10.904   9.144 -0.3217  0.0758 -0.0049
  175loPI   C2A 2792  15.366  11.082   8.761  0.2636  0.1256 -0.1554
  175loPI   C3A 2793  15.396  11.034   8.344  0.0753  0.1976  0.3123
  175loPI   C4A 2794  15.394  11.125   7.874  0.0948 -0.0840 -0.0264
  175loPI   C5A 2795  15.316  11.524   7.748 -0.0659  0.1233 -0.1686
  175loPI   C6A 2796  14.984  11.705   7.929 -0.3145  0.2916  0.0460
  175loPI   C1B 2797  15.730  11.052   9.060 -0.0384 -0.0393 -0.1464
  175loPI   C2B 2798  15.512  11.501   9.049  0.0240  0.3229 -0.0278
  175loPI   C3B 2799  15.141  11.490   8.816 -0.0437 -0.2299  0.0635
  175loPI   C4B 2800  14.902  11.216   8.534 -0.1381  0.0485 -0.2175
  176loPI    C1 2801  11.915   5.641   9.865 -0.0831 -0.1250  0.1264
  176loPI    C2 2802  11.720   5.293   9.837 -0.0684 -0.1400  0.2058
  176loPI    C3 2803  11.668   5.525  10.158 -0.0570 -0.0817  0.1657
  176loPI   PO4 2804  11.849   5.768   9.642 -0.1835  0.0913  0.3272
  176loPI   GL1 2805  11.950   6.032   9.302 -0.3775 -0.1362  0.0067
  176loPI   GL2 2806  12.072   5.796   9.170 -0.1146 -0.0423  0.2480
  176loPI   C1A 2807  11.494   6.145   9.211  0.1525  0.1263  0.0516
  176loPI   C2A 2808  11.177   6.222   8.880  0.1539 -0.1134  0.0946
  176loPI   C3A 2809  10.978   6.308   8.489  0.0413 -0.1448  0.1883
  176loPI   C4A 2810  10.813   6.623   8.123  0.1537 -0.3377 -0.0559
  176loPI   C5A 2811  10.799   7.059   7.806 -0.1094  0.0616  0.0106
  176loPI   C6A 2812  10.664   7.418   7.906 -0.0414  0.0770  0.1196
  176loPI   C1B 2813  12.141   5.871   8.777  0.1055  0.2825 -0.3401
  176loPI   C2B 2814  12.039   5.838   8.303  0.0025 -0.1543  0.0475
  176loPI   C3B 2815  11.886   6.152   8.023 -0.1988  0.1381 -0.1850
  176loPI   C4B 2816  11.778   6.534   8.102  0.1182 -0.2148 -0.2250
  177loPI    C1 2817   7.113   1.595  10.489  0.0195 -0.1218 -0.0289
  177loPI    C2 2818   7.137   1.481  10.872  0.0985 -0.1705 -0.0482
  177loPI    C3 2819   7.360   1.785  10.739  0.1273 -0.2025 -0.0735
  177loPI   PO4 2820   7.111   1.381  10.273  0.0947  0.1498  0.1692
  177loPI   GL1 2821   6.938   1.082   9.939  0.3281 -0.1527 -0.1179
  177loPI   GL2 2822   7.241   1.011  10.021 -0.2605  0.2410  0.3526
  177loPI   C1A 2823   6.851   0.992   9.519  0.0910  0.0433 -0.1673
  177loPI   C2A 2824   6.862   0.949   9.120  0.1450 -0.0144 -0.0608
  177loPI   C3A 2825   6.569   0.918   8.861 -0.4658  0.0562  0.1131
  177loPI   C4A 2826   6.381   0.601   8.568 -0.1097 -0.0514  0.0375
  177loPI   C5A 2827   6.406   0.600   8.211  0.0924  0.2696 -0.0081
  177loPI   C6A 2828   6.288   0.851   7.980  0.0894 -0.2705 -0.1765
  177loPI   C1B 2829   7.339   0.735   9.668  0.0301 -0.1346 -0.2011
  177loPI   C2B 2830   7.270   0.680   9.222  0.0192 -0.0867 -0.0390
  177loPI   C3B 2831   7.166   0.790   8.809 -0.0973 -0.2922 -0.2151
  177loPI   C4B 2832   6.918   0.675   8.566 -0.0056  0.1448 -0.1597
  178loPI    C1 2833  15.281  14.766   9.742  0.0221  0.1072  0.0213
  178loPI    C2 2834  15.097  14.872  10.081 -0.2391  0.0642 -0.1047
  178loPI    C3 2835  15.299  14.528  10.063 -0.0954  0.1391  0.0523
  178loPI   PO4 2836  15.411  14.936   9.641  0.1119  0.2496  0.0088
  178loPI   GL1 2837  15.524  14.917   9.235 -0.1598 -0.1373 -0.1560
  178loPI   GL2 2838  15.108  14.903   9.174  0.0415 -0.2157  0.1918
  178loPI   C1A 2839  15.508  15.187   8.836  0.0455 -0.0298 -0.1022
  178loPI   C2A 2840  15.382  15.367   8.443  0.0214 -0.1115  0.0763
  178loPI   C3A 2841  15.190  15.314   8.091  0.0698 -0.1037  0.4091
  178loPI   C4A 2842  15.092  14.924   7.787 -0.0894 -0.0892 -0.0476
  178loPI   C5A 2843  15.229  14.509   7.797 -0.2227  0.2233 -0.1231
  178loPI   C6A 2844  14.777  14.294   7.826 -0.0333 -0.0061  0.1957
  178loPI   C1B 2845  15.144  14.724   8.745  0.1071  0.1805  0.0155
  178loPI   C2B 2846  15.443  14.857   8.456 -0.0561  0.0126 -0.0253
  178loPI   C3B 2847  15.701  14.911   8.078 -0.2297 -0.0117  0.0256
  178loPI   C4B 2848  15.614  14.780   7.710 -0.1169 -0.2592  0.2591
  179loPI    C1 2849   2.930   8.790  10.668  0.1368 -0.0084  0.1662
  179loPI    C2 2850   3.073   9.159  10.724 -0.3796  0.1729  0.3515
  179loPI    C3 2851   3.080   8.895  11.024 -0.2284  0.1073  0.2911
  179loPI   PO4 2852   3.074   8.763  10.398  0.1481  0.2140  0.0788
  179loPI   GL1 2853   3.041   8.940   9.916 -0.0077  0.2087 -0.4436
  179loPI   GL2 2854   3.280   9.080   9.804  0.1962 -0.0806  0.2353
  179loPI   C1A 2855   2.761   8.878   9.566 -0.0156 -0.0906 -0.1652
  179loPI   C2A 2856   2.640   8.914   9.047  0.0533  0.3134  0.1926
  179loPI   C3A 2857   2.464   9.053   8.661  0.1668  0.0291  0.1156
  179loPI   C4A 2858   2.235   8.871   8.331 -0.1829  0.2064  0.0974
  179loPI   C5A 2859   2.069   8.859   7.880  0.1415 -0.1440 -0.2282
  179loPI   C6A 2860   1.727   8.823   7.592  0.1766 -0.0263 -0.0466
  179loPI   C1B 2861   3.534   9.366   9.564  0.3112 -0.2879  0.0183
  179loPI   C2B 2862   3.522   9.343   9.041 -0.4927  0.1649 -0.0269
  179loPI   C3B 2863   3.370   9.198   8.665  0.1013  0.3989 -0.0833
  179loPI   C4B 2864   3.309   9.040   8.248  0.1681 -0.1421 -0.1806
  180loPI    C1 2865  10.134   5.465   9.684 -0.1198 -0.0247 -0.0351
  180loPI    C2 2866  10.274   5.615  10.028 -0.2224  0.0406 -0.0214
  180loPI    C3 2867   9.910   5.719   9.897 -0.1889  0.0060 -0.1436
  180loPI   PO4 2868  10.295   5.129   9.655  0.3973 -0.0929 -0.0428
  180loPI   GL1 2869  10.638   5.164   9.351 -0.2515 -0.2093 -0.0558
  180loPI   GL2 2870  11.026   5.079   9.302  0.2766  0.1240 -0.1429
  180loPI   C1A 2871  10.636   5.229   8.894 -0.0732  0.2022  0.1820
  180loPI   C2A 2872  10.641   5.129   8.496  0.2312 -0.0453  0.5389
  180loPI   C3A 2873  10.772   5.321   8.074  0.1172  0.0126 -0.1474
  180loPI   C4A 2874  10.735   5.365   7.672 -0.0816  0.3194 -0.0901
  180loPI   C5A 2875  10.874   5.010   7.489 -0.0205 -0.1418 -0.1365
  180loPI   C6A 2876  11.111   4.599   7.522 -0.2137  0.0145  0.4347
  180loPI   C1B 2877  11.060   4.824   8.926 -0.0576  0.0002  0.0988
  180loPI   C2B 2878  11.110   4.740   8.516 -0.0060  0.1681  0.0456
  180loPI   C3B 2879  11.237   4.546   8.198 -0.1761 -0.0402  0.3464
  180loPI   C4B 2880  11.525   4.552   7.854  0.0737 -0.1468 -0.2144
  181loPI    C1 2881  13.301  18.549   9.635 -0.1382 -0.0315 -0.3983
  181loPI    C2 2882  13.032  18.839   9.697  0.0772  0.1388 -0.2467
  181loPI    C3 2883  12.933  18.456   9.760 -0.0315  0.2249  0.1328
  181loPI   PO4 2884  13.567  18.677   9.584 -0.0299  0.3310 -0.4967
  181loPI   GL1 2885  13.740  18.909   9.335 -0.1703 -0.0502 -0.0371
  181loPI   GL2 2886  13.728  19.255   9.259 -0.0119 -0.2682 -0.1666
  181loPI   C1A 2887  14.084  18.926   9.001  0.0168 -0.0909  0.0908
  181loPI   C2A 2888  14.326  18.993   8.568 -0.0073  0.0928  0.2422
  181loPI   C3A 2889  14.069  18.890   8.211  0.1385 -0.1674 -0.3692
  181loPI   C4A 2890  13.789  18.922   7.860  0.2767  0.1136 -0.1003
  181loPI   C5A 2891  13.581  18.951   7.413  0.1494  0.1846 -0.3863
  181loPI   C6A 2892  13.446  19.026   6.981 -0.0683 -0.3634 -0.2508
  181loPI   C1B 2893  13.923  19.372   8.851 -0.0849 -0.1531  0.3772
  181loPI   C2B 2894  14.012  19.478   8.388 -0.0089 -0.0321  0.0340
  181loPI   C3B 2895  14.002  19.546   7.925 -0.2329 -0.1346  0.0636
  181loPI   C4B 2896  14.016  19.207   7.540 -0.0840 -0.2747  0.0495
  182loPI    C1 2897   9.986  15.647   9.874  0.0701  0.1378  0.0425
  182loPI    C2 2898  10.355  15.802   9.892  0.0199  0.2653 -0.0204
  182loPI    C3 2899  10.037  16.044   9.874 -0.0647  0.1553 -0.0157
  182loPI   PO4 2900   9.988  15.483  10.084 -0.2482  0.0925  0.0134
  182loPI   GL1 2901  10.013  15.097   9.771 -0.2300  0.2238 -0.0204
  182loPI   GL2 2902  10.461  15.057   9.908 -0.0439  0.0091 -0.4227
  182loPI   C1A 2903  10.037  15.073   9.318  0.0366 -0.2616 -0.0324
  182loPI   C2A 2904  10.097  15.239   8.842  0.1771 -0.1589  0.1958
  182loPI   C3A 2905   9.845  15.450   8.627  0.4209  0.2866  0.4074
  182loPI   C4A 2906   9.873  15.556   8.148 -0.0454  0.4101 -0.1224
  182loPI   C5A 2907  10.120  15.745   7.799 -0.0000  0.4724 -0.1372
  182loPI   C6A 2908  10.478  16.114   7.711 -0.3082 -0.0810  0.0985
  182loPI   C1B 2909  10.339  15.376   9.498 -0.1133  0.3060  0.2529
  182loPI   C2B 2910  10.476  15.487   9.133  0.1848 -0.2449 -0.2238
  182loPI   C3B 2911  10.549  15.524   8.653  0.2864 -0.4167  0.0131
  182loPI   C4B 2912  10.502  15.569   8.236 -0.1190 -0.0245  0.1902
  183loPI    C1 2913  10.748   7.629  10.196 -0.0874 -0.1610 -0.2661
  183loPI    C2 2914  10.893   7.275  10.312  0.2954  0.0492 -0.0823
  183loPI    C3 2915  10.711   7.513  10.577  0.1930  0.0654 -0.1664
  183loPI   PO4 2916  10.849   7.722   9.983  0.2727 -0.0081 -0.2495
  183loPI   GL1 2917  10.748   7.591   9.591 -0.0509 -0.0165 -0.1034
  183loPI   GL2 2918  10.506   7.968   9.640 -0.0386  0.1033 -0.1432
  183loPI   C1A 2919  10.656   7.394   9.173  0.1342 -0.2166  0.0003
  183loPI   C2A 2920  10.828   7.349   8.796  0.1242  0.2245 -0.2313
  183loPI   C3A 2921  10.649   7.129   8.356 -0.1577  0.0254 -0.3932
  183loPI   C4A 2922  10.408   7.018   8.089  0.1418  0.2202 -0.3182
  183loPI   C5A 2923  10.263   6.580   7.875 -0.2828  0.1858  0.3169
  183loPI   C6A 2924  10.423   6.197   7.635  0.0257  0.1296 -0.0294
  183loPI   C1B 2925  10.248   7.725   9.298 -0.0755 -0.3006  0.1413
  183loPI   C2B 2926  10.355   7.645   8.850 -0.0657 -0.1411  0.1725
  183loPI   C3B 2927  10.447   7.595   8.406 -0.2970  0.2822 -0.1073
  183loPI   C4B 2928  10.282   7.902   7.990  0.0418 -0.1084 -0.0982
  184loPI    C1 2929  14.768   9.118  10.020  0.1715 -0.2305 -0.2620
  184loPI    C2 2930  15.125   9.178  10.191  0.0083 -0.1465  0.0569
  184loPI    C3 2931  14.829   9.441  10.248 -0.2545 -0.4670  0.2057
  184loPI   PO4 2932  14.772   9.108   9.776 -0.0174  0.2237  0.1911
  184loPI   GL1 2933  14.770   8.660   9.622  0.1097 -0.2084 -0.0135
  184loPI   GL2 2934  15.066   8.679   9.459 -0.0168 -0.2010  0.1899
  184loPI   C1A 2935  14.660   8.762   9.193  0.1568  0.0447 -0.1880
  184loPI   C2A 2936  14.742   8.854   8.745 -0.1449 -0.1476 -0.2186
  184loPI   C3A 2937  15.038   8.650   8.502 -0.0582 -0.1624 -0.1303
  184loPI   C4A 2938  15.154   8.461   8.067 -0.0427  0.2404 -0.2958
  184loPI   C5A 2939  15.138   8.086   7.798  0.0573 -0.1985 -0.0505
  184loPI   C6A 2940  15.190   7.941   7.402  0.0024  0.0832 -0.2640
  184loPI   C1B 2941  15.204   8.702   9.098 -0.2104  0.1324 -0.1398
  184loPI   C2B 2942  15.485   8.699   8.787 -0.0004  0.7334  0.0183
  184loPI   C3B 2943  15.563   8.608   8.371 -0.1812 -0.1495  0.1810
  184loPI   C4B 2944  15.813   8.733   8.035 -0.1187 -0.1696 -0.0355
  185loPI    C1 2945  16.368  18.316   9.835 -0.3553  0.0333  0.1406
  185loPI    C2 2946  16.351  18.684   9.991 -0.0316  0.1091  0.0048
  185loPI    C3 2947  16.529  18.387  10.194  0.2868  0.1812 -0.1628
  185loPI   PO4 2948  16.074  18.203   9.804 -0.2836  0.2165  0.3589
  185loPI   GL1 2949  15.855  18.237   9.402  0.1352 -0.0351  0.3243
  185loPI   GL2 2950  15.566  18.201   9.305 -0.0499  0.3758  0.0774
  185loPI   C1A 2951  16.022  18.117   9.032 -0.0809  0.1046  0.2386
  185loPI   C2A 2952  15.755  17.910   8.719  0.0825  0.2142  0.0392
  185loPI   C3A 2953  15.875  17.546   8.452  0.0620  0.0526 -0.1320
  185loPI   C4A 2954  15.932  17.589   7.988  0.1015  0.4238  0.0560
  185loPI   C5A 2955  15.717  17.940   7.760  0.0093 -0.2170 -0.1199
  185loPI   C6A 2956  15.607  18.321   7.769 -0.0214 -0.0736  0.2867
  185loPI   C1B 2957  15.595  18.411   8.918 -0.2666 -0.2514 -0.1031
  185loPI   C2B 2958  15.859  18.508   8.587 -0.1183 -0.0067 -0.3877
  185loPI   C3B 2959  15.750  18.246   8.205 -0.4011 -0.1504 -0.1553
  185loPI   C4B 2960  15.536  17.943   8.253 -0.1087  0.0533 -0.0883
  186loPI    C1 2961   8.411  13.313  10.273 -0.1005  0.0995 -0.0878
  186loPI    C2 2962   8.307  13.477  10.622  0.0663 -0.0721  0.0444
  186loPI    C3 2963   8.092  13.176  10.471  0.0639 -0.0774  0.0582
  186loPI   PO4 2964   8.636  13.574  10.253  0.1923  0.0681  0.2232
  186loPI   GL1 2965   8.920  13.607   9.869 -0.0792 -0.3407  0.3897
  186loPI   GL2 2966   9.219  13.487   9.847 -0.2677  0.1498 -0.1095
  186loPI   C1A 2967   9.084  13.619   9.391  0.1057 -0.4074 -0.0132
  186loPI   C2A 2968   8.987  13.611   8.989  0.4609  0.3617  0.0806
  186loPI   C3A 2969   8.881  13.451   8.694  0.0679 -0.2245  0.2188
  186loPI   C4A 2970   8.702  13.461   8.154 -0.0915 -0.0494  0.1886
  186loPI   C5A 2971   8.456  13.581   7.783 -0.2805 -0.0581 -0.1368
  186loPI   C6A 2972   8.094  13.653   7.515  0.1356 -0.2135 -0.1528
  186loPI   C1B 2973   9.497  13.362   9.479 -0.1181  0.0740 -0.1763
  186loPI   C2B 2974   9.397  13.322   9.109  0.3254  0.0251  0.2101
  186loPI   C3B 2975   9.314  13.153   8.708 -0.0335 -0.0741  0.1238
  186loPI   C4B 2976   9.133  13.177   8.273 -0.1971  0.0610  0.0113
  187loPI    C1 2977   0.824  17.105   9.678  0.0098 -0.1751 -0.2354
  187loPI    C2 2978   0.716  17.100  10.063  0.0463  0.2224 -0.2157
  187loPI    C3 2979   0.653  16.778   9.834 -0.5066  0.1826 -0.0238
  187loPI   PO4 2980   1.041  17.145   9.696  0.0701 -0.3489 -0.1404
  187loPI   GL1 2981   1.180  17.054   9.266  0.1101 -0.1284 -0.1513
  187loPI   GL2 2982   0.903  16.732   9.368  0.1770 -0.1835 -0.2648
  187loPI   C1A 2983   1.047  17.035   8.873 -0.0556  0.0024  0.0855
  187loPI   C2A 2984   1.087  16.685   8.562 -0.1555 -0.0321 -0.1149
  187loPI   C3A 2985   1.181  16.472   8.160  0.1913 -0.0871 -0.4465
  187loPI   C4A 2986   0.856  16.338   7.994 -0.2643 -0.0959 -0.2290
  187loPI   C5A 2987   0.619  16.358   7.574 -0.0741  0.0343 -0.1911
  187loPI   C6A 2988   0.407  16.421   7.140  0.0768 -0.0395 -0.0839
  187loPI   C1B 2989   0.730  16.579   8.942  0.4272 -0.1286  0.1565
  187loPI   C2B 2990   0.653  16.574   8.436 -0.1066  0.0250  0.1575
  187loPI   C3B 2991   0.478  16.687   7.968 -0.1435  0.1497  0.1308
  187loPI   C4B 2992   0.424  17.126   7.887  0.2179 -0.0334  0.1053
  188loPI    C1 2993  11.650   8.444   9.892  0.1742  0.1195 -0.1314
  188loPI    C2 2994  11.503   8.702  10.160  0.0247  0.0239 -0.1204
  188loPI    C3 2995  11.721   8.389  10.282  0.1246  0.0905 -0.1264
  188loPI   PO4 2996  11.354   8.490   9.751 -0.0638  0.2281 -0.0095
  188loPI   GL1 2997  11.054   8.620   9.444 -0.1427 -0.1684  0.1072
  188loPI   GL2 2998  10.891   8.934   9.268 -0.2768 -0.1321  0.0192
  188loPI   C1A 2999  10.883   8.494   9.003  0.3539  0.0770  0.2202
  188loPI   C2A 3000  10.698   8.570   8.667 -0.5176 -0.3137 -0.3756
  188loPI   C3A 3001  10.282   8.723   8.456 -0.1504  0.1643 -0.0769
  188loPI   C4A 3002  10.087   8.517   8.073  0.0169 -0.0380 -0.1284
  188loPI   C5A 3003  10.343   8.350   7.710 -0.1401  0.0646  0.0143
  188loPI   C6A 3004  10.389   8.521   7.305 -0.1931  0.1548 -0.2401
  188loPI   C1B 3005  10.989   9.019   8.750  0.3647 -0.2768  0.1073
  188loPI   C2B 3006  10.913   8.947   8.288  0.2216  0.3314  0.0095
  188loPI   C3B 3007  11.031   8.664   7.990  0.0778 -0.0354 -0.1539
  188loPI   C4B 3008  11.442   8.487   7.727 -0.1736  0.0690  0.0713
  189loPI    C1 3009  17.764  12.442  10.173 -0.0181  0.0652 -0.1254
  189loPI    C2 3010  17.554  12.699  10.397 -0.3514 -0.0458 -0.3026
  189loPI    C3 3011  17.750  12.829  10.073  0.0030  0.0878 -0.0419
  189loPI   PO4 3012  17.577  12.235  10.194 -0.0014 -0.0492  0.0918
  189loPI   GL1 3013  17.355  12.224   9.888  0.0596  0.3358  0.0179
  189loPI   GL2 3014  17.027  12.175   9.791  0.0172  0.2044 -0.0713
  189loPI   C1A 3015  17.483  12.124   9.474 -0.3105  0.0587  0.4007
  189loPI   C2A 3016  17.436  12.206   8.967  0.2351  0.0660  0.0109
  189loPI   C3A 3017  17.505  12.173   8.560 -0.5383  0.0467 -0.0452
  189loPI   C4A 3018  17.495  12.206   8.144 -0.0849 -0.2731 -0.0755
  189loPI   C5A 3019  17.385  12.324   7.696  0.2012 -0.1683 -0.3264
  189loPI   C6A 3020  17.317  12.660   7.401 -0.1845  0.4952  0.0528
  189loPI   C1B 3021  17.000  12.233   9.384  0.2456  0.0780  0.2032
  189loPI   C2B 3022  16.939  12.152   8.961  0.1824  0.4407  0.3077
  189loPI   C3B 3023  17.035  12.133   8.549  0.1034  0.0727 -0.1127
  189loPI   C4B 3024  16.921  12.198   8.134 -0.2577 -0.0504 -0.1998
  190loPI    C1 3025  14.904   0.021   9.834 -0.0989  0.0722  0.1639
  190loPI    C2 3026  15.210   0.233   9.686 -0.1543 -0.0486 -0.1309
  190loPI    C3 3027  15.066   0.316  10.050  0.0273  0.2117 -0.1160
  190loPI   PO4 3028  14.826  -0.073   9.623 -0.0274 -0.0849 -0.0982
  190loPI   GL1 3029  14.526  -0.024   9.440  0.3102 -0.0444  0.5735
  190loPI   GL2 3030  14.438  -0.256   9.208  0.2930 -0.2733 -0.1953
  190loPI   C1A 3031  14.741   0.077   8.975 -0.0405  0.2001 -0.3824
  190loPI   C2A 3032  14.992   0.255   8.665  0.3114 -0.1948 -0.0085
  190loPI   C3A 3033  15.174   0.348   8.227  0.1401 -0.0368 -0.1064
  190loPI   C4A 3034  15.292   0.617   7.904 -0.5338  0.0621 -0.2858
  190loPI   C5A 3035  15.079   0.667   7.517 -0.0018 -0.0289  0.1143
  190loPI   C6A 3036  15.129   0.920   7.169 -0.0016  0.0505 -0.2627
  190loPI   C1B 3037  14.157  -0.564   8.913 -0.0138  0.1935 -0.0569
  190loPI   C2B 3038  13.720  -0.362   8.740 -0.0333  0.3684  0.0855
  190loPI   C3B 3039  13.589  -0.360   8.285 -0.0431 -0.0547  0.0904
  190loPI   C4B 3040  13.884  -0.538   7.971 -0.0344 -0.2151 -0.0192
  191loPI    C1 3041   3.180  16.085   9.625 -0.0374 -0.0659 -0.1074
  191loPI    C2 3042   2.999  15.750   9.502 -0.0888 -0.0799  0.0062
  191loPI    C3 3043   3.290  15.732   9.776  0.0504 -0.0521 -0.1380
  191loPI   PO4 3044   2.972  16.241   9.679  0.0138 -0.0080 -0.0292
  191loPI   GL1 3045   2.723  16.650   9.543 -0.0157 -0.1803 -0.2792
  191loPI   GL2 3046   2.651  16.420   9.304 -0.1134 -0.2118 -0.1188
  191loPI   C1A 3047   2.845  16.849   9.187  0.2104  0.1665  0.1148
  191loPI   C2A 3048   3.022  16.784   8.849 -0.1348 -0.1832  0.0952
  191loPI   C3A 3049   3.083  16.659   8.418 -0.1404 -0.3169 -0.0387
  191loPI   C4A 3050   3.045  16.412   8.081 -0.5241  0.1238  0.0181
  191loPI   C5A 3051   2.970  16.593   7.701 -0.0556  0.0953 -0.1979
  191loPI   C6A 3052   3.226  16.640   7.381 -0.0256 -0.0161  0.0514
  191loPI   C1B 3053   2.584  16.557   8.831 -0.1672 -0.2824  0.0651
  191loPI   C2B 3054   2.638  16.358   8.496  0.1631  0.1553 -0.0202
  191loPI   C3B 3055   2.584  16.579   8.047  0.1446  0.3228 -0.1596
  191loPI   C4B 3056   2.505  16.824   7.806 -0.1535  0.2160 -0.0150
  192loPI    C1 3057   2.950  12.819  10.087 -0.0359  0.1296  0.3125
  192loPI    C2 3058   3.295  12.970  10.221  0.2919 -0.1044 -0.2349
  192loPI    C3 3059   3.167  12.615  10.354  0.1942  0.0376  0.0596
  192loPI   PO4 3060   2.946  13.008   9.869  0.1370  0.2955 -0.1035
  192loPI   GL1 3061   2.937  13.104   9.501 -0.2695 -0.2370  0.0402
  192loPI   GL2 3062   2.757  13.234   9.357  0.2928  0.0309 -0.3454
  192loPI   C1A 3063   3.123  12.958   9.118  0.2755 -0.1816 -0.1506
  192loPI   C2A 3064   3.131  13.144   8.682  0.1792  0.0724  0.5139
  192loPI   C3A 3065   3.440  13.188   8.321 -0.2926  0.0340 -0.0706
  192loPI   C4A 3066   3.774  13.057   8.102 -0.0570  0.1992  0.1044
  192loPI   C5A 3067   3.875  12.777   7.810  0.1158 -0.2058 -0.0980
  192loPI   C6A 3068   4.326  12.749   7.611 -0.1784  0.2323  0.2462
  192loPI   C1B 3069   2.574  13.126   8.981 -0.3893  0.1188  0.0734
  192loPI   C2B 3070   2.679  12.947   8.529 -0.1356  0.0263  0.1871
  192loPI   C3B 3071   2.943  12.868   8.239  0.2190  0.1654 -0.1083
  192loPI   C4B 3072   3.317  12.734   8.136 -0.2642  0.1745  0.0734
  193loPI    C1 3073  15.238   1.857  10.094  0.1740  0.0077 -0.0883
  193loPI    C2 3074  15.414   1.502  10.150 -0.0573 -0.0751  0.1329
  193loPI    C3 3075  15.562   1.829  10.327  0.2038 -0.0435 -0.1356
  193loPI   PO4 3076  15.239   1.899   9.763 -0.0777 -0.0113  0.4198
  193loPI   GL1 3077  15.398   1.719   9.362 -0.1814 -0.2356  0.0038
  193loPI   GL2 3078  15.521   1.373   9.327  0.0319 -0.1783 -0.2369
  193loPI   C1A 3079  15.413   1.636   8.892 -0.5210  0.0251  0.3128
  193loPI   C2A 3080  15.669   1.535   8.585 -0.0361  0.2765  0.0393
  193loPI   C3A 3081  15.625   1.409   8.121 -0.3521  0.1857  0.0919
  193loPI   C4A 3082  15.170   1.574   7.879  0.1911 -0.0985 -0.0360
  193loPI   C5A 3083  14.641   1.723   7.801 -0.1330  0.0989 -0.1882
  193loPI   C6A 3084  14.321   1.539   7.917 -0.1588 -0.1027  0.0213
  193loPI   C1B 3085  15.846   1.337   9.097  0.0564  0.1593 -0.0276
  193loPI   C2B 3086  16.156   1.352   8.679  0.2047 -0.0797 -0.0815
  193loPI   C3B 3087  16.414   1.176   8.338 -0.0763 -0.1379  0.1322
  193loPI   C4B 3088  16.602   1.209   7.936  0.0350  0.0144  0.1444
  194loPI    C1 3089  12.235  12.813  10.210  0.0782  0.0802  0.2025
  194loPI    C2 3090  11.936  12.979  10.417 -0.0814  0.2878 -0.1846
  194loPI    C3 3091  12.315  13.077  10.499 -0.1283  0.1934  0.1581
  194loPI   PO4 3092  12.246  12.873   9.857  0.0946 -0.0704 -0.0960
  194loPI   GL1 3093  12.064  12.817   9.509  0.2443 -0.1498 -0.2740
  194loPI   GL2 3094  12.385  12.675   9.325  0.1214  0.3329 -0.3214
  194loPI   C1A 3095  11.928  12.728   9.063 -0.1399 -0.1104  0.0047
  194loPI   C2A 3096  11.747  12.797   8.687 -0.0716 -0.1270 -0.1551
  194loPI   C3A 3097  11.567  12.699   8.308 -0.0294  0.3619  0.0211
  194loPI   C4A 3098  11.518  12.832   7.906 -0.2240 -0.1409  0.1241
  194loPI   C5A 3099  11.695  13.059   7.734  0.0663  0.2639  0.3250
  194loPI   C6A 3100  11.877  13.379   7.520 -0.2165 -0.1122  0.2670
  194loPI   C1B 3101  12.573  12.749   8.890 -0.2243  0.0163 -0.1763
  194loPI   C2B 3102  12.442  12.742   8.372 -0.0806 -0.1252 -0.1539
  194loPI   C3B 3103  12.584  12.742   8.030  0.0077 -0.1672  0.3613
  194loPI   C4B 3104  12.756  12.738   7.666 -0.2044 -0.1456 -0.0336
  195loPI    C1 3105   9.873   8.464  10.076  0.0139  0.1138  0.1220
  195loPI    C2 3106   9.681   8.504  10.425 -0.0589 -0.1631  0.1162
  195loPI    C3 3107   9.982   8.243  10.392  0.0817  0.0087  0.0256
  195loPI   PO4 3108   9.890   8.808  10.005 -0.0008  0.3031 -0.3423
  195loPI   GL1 3109   9.579   8.916   9.755  0.2284 -0.1145 -0.1910
  195loPI   GL2 3110   9.685   9.204   9.654  0.1813  0.0612  0.1199
  195loPI   C1A 3111   9.363   8.851   9.400 -0.0810  0.0850  0.0982
  195loPI   C2A 3112   9.376   8.894   8.901 -0.0437 -0.0099  0.0762
  195loPI   C3A 3113   9.283   8.764   8.599  0.2050 -0.0009  0.2400
  195loPI   C4A 3114   9.088   8.751   8.180  0.1179  0.0324  0.1081
  195loPI   C5A 3115   9.137   8.428   7.818  0.0397  0.0572 -0.0203
  195loPI   C6A 3116   8.958   8.270   7.423 -0.1064 -0.0232  0.1309
  195loPI   C1B 3117   9.801   9.351   9.268  0.0751 -0.1712 -0.0725
  195loPI   C2B 3118   9.559   9.352   8.960  0.2498 -0.1498  0.4132
  195loPI   C3B 3119   9.431   9.262   8.420  0.1773 -0.2243  0.1256
  195loPI   C4B 3120   9.304   9.339   8.008  0.1038 -0.2221  0.2046
  196loPI    C1 3121   3.902  16.992  10.017  0.0534  0.0866  0.0123
  196loPI    C2 3122   3.681  16.835   9.723  0.1440  0.0196 -0.0207
  196loPI    C3 3123   3.902  16.596   9.955 -0.0230  0.0591  0.1821
  196loPI   PO4 3124   4.082  17.170   9.837 -0.3329  0.3264  0.0963
  196loPI   GL1 3125   4.431  17.319   9.586 -0.0177 -0.4747  0.1819
  196loPI   GL2 3126   4.353  17.582   9.276 -0.3319 -0.0601  0.0237
  196loPI   C1A 3127   4.726  17.120   9.288 -0.1547 -0.0887 -0.1256
  196loPI   C2A 3128   4.818  16.988   8.973  0.0466  0.0081  0.1863
  196loPI   C3A 3129   4.908  17.014   8.535  0.1848 -0.2690 -0.2000
  196loPI   C4A 3130   4.948  17.138   8.154 -0.0412  0.0511  0.0681
  196loPI   C5A 3131   5.030  16.935   7.707 -0.0607  0.0400  0.0514
  196loPI   C6A 3132   5.158  17.119   7.294 -0.0911  0.0414  0.0603
  196loPI   C1B 3133   4.630  17.519   8.895 -0.2124  0.0491 -0.0162
  196loPI   C2B 3134   4.804  17.507   8.531 -0.1639  0.0778 -0.1774
  196loPI   C3B 3135   4.986  17.635   8.070 -0.1819  0.0147  0.0809
  196loPI   C4B 3136   5.156  17.408   7.717  0.2365  0.2466 -0.0817
  197loPI    C1 3137  15.569  11.954   9.979 -0.2702  0.2534 -0.1858
  197loPI    C2 3138  15.432  11.862  10.343  0.2202  0.2024 -0.0064
  197loPI    C3 3139  15.348  11.626  10.032  0.2062 -0.0243  0.1667
  197loPI   PO4 3140  15.560  12.167   9.947  0.0537  0.2068  0.0103
  197loPI   GL1 3141  15.589  12.256   9.546 -0.1013  0.0261  0.2029
  197loPI   GL2 3142  15.984  11.999   9.633 -0.2163  0.1071 -0.0755
  197loPI   C1A 3143  15.753  11.956   9.202  0.1355 -0.1980  0.0909
  197loPI   C2A 3144  15.905  12.079   8.793 -0.0456 -0.1098 -0.0443
  197loPI   C3A 3145  16.007  11.820   8.375  0.2885  0.1123  0.0139
  197loPI   C4A 3146  16.092  12.039   8.065 -0.1379 -0.2960  0.2463
  197loPI   C5A 3147  16.121  12.149   7.538 -0.0205 -0.1630  0.2190
  197loPI   C6A 3148  15.949  12.498   7.128  0.0606  0.0535  0.0690
  197loPI   C1B 3149  16.090  12.340   9.275 -0.1650 -0.2130  0.3158
  197loPI   C2B 3150  16.235  12.469   8.773 -0.2640 -0.2857 -0.1575
  197loPI   C3B 3151  16.236  12.517   8.382 -0.1673 -0.0570  0.0491
  197loPI   C4B 3152  16.412  12.423   8.025  0.1936 -0.2113 -0.1642
  198loPI    C1 3153  17.801  16.337   9.859  0.1595  0.1097 -0.0309
  198loPI    C2 3154  18.124  16.252   9.638  0.1220  0.2514 -0.1419
  198loPI    C3 3155  18.162  16.327  10.029  0.1604 -0.2367 -0.0465
  198loPI   PO4 3156  17.579  16.415   9.690  0.0322 -0.1653 -0.3280
  198loPI   GL1 3157  17.291  16.511   9.427 -0.0086 -0.0666  0.0104
  198loPI   GL2 3158  17.349  16.850   9.288  0.1078 -0.0827  0.2720
  198loPI   C1A 3159  17.241  16.364   8.933  0.0784 -0.2595 -0.1791
  198loPI   C2A 3160  17.181  16.362   8.441 -0.1115  0.0866 -0.0826
  198loPI   C3A 3161  17.025  16.320   8.140 -0.2714  0.1021 -0.4632
  198loPI   C4A 3162  17.224  16.514   7.778 -0.3264  0.0632 -0.0361
  198loPI   C5A 3163  17.287  16.906   7.576 -0.0289  0.0878 -0.0536
  198loPI   C6A 3164  17.544  17.319   7.507 -0.0130 -0.4749 -0.1841
  198loPI   C1B 3165  17.542  16.739   8.972 -0.0330 -0.0853  0.0461
  198loPI   C2B 3166  17.443  16.759   8.558 -0.0958 -0.0544 -0.0815
  198loPI   C3B 3167  17.230  16.778   8.142  0.3031 -0.0154 -0.1712
  198loPI   C4B 3168  17.032  17.056   7.982  0.2935 -0.1083 -0.0018
  199loPI    C1 3169   4.081   5.308  10.279  0.1973  0.0866  0.1677
  199loPI    C2 3170   3.741   5.362  10.075  0.1442 -0.1311  0.1963
  199loPI    C3 3171   3.744   5.400  10.473  0.1954  0.0569  0.1786
  199loPI   PO4 3172   4.215   5.152  10.149  0.1713  0.2801 -0.2452
  199loPI   GL1 3173   4.399   4.914   9.815 -0.0842 -0.0998  0.0380
  199loPI   GL2 3174   4.487   5.351   9.800 -0.2579  0.0853  0.0115
  199loPI   C1A 3175   4.711   4.988   9.474  0.3673  0.2814  0.2637
  199loPI   C2A 3176   4.725   5.092   9.086 -0.4564  0.5022  0.0022
  199loPI   C3A 3177   4.667   5.281   8.715 -0.1477 -0.3403 -0.0318
  199loPI   C4A 3178   4.476   5.497   8.320 -0.0714 -0.1899 -0.1794
  199loPI   C5A 3179   4.144   5.842   8.194  0.1769  0.1440  0.1572
  199loPI   C6A 3180   4.167   6.303   8.060  0.2637  0.1401 -0.2667
  199loPI   C1B 3181   4.283   5.294   9.429 -0.2245  0.1960  0.3669
  199loPI   C2B 3182   4.206   4.981   9.227  0.1241  0.1277 -0.1724
  199loPI   C3B 3183   4.241   4.865   8.878 -0.1693  0.0716  0.0024
  199loPI   C4B 3184   4.097   4.672   8.459  0.2981  0.0514  0.3055
  200loPI    C1 3185  12.322  14.108  10.255  0.0265 -0.1489 -0.1242
  200loPI    C2 3186  12.544  14.440  10.272 -0.0568 -0.0990 -0.0004
  200loPI    C3 3187  12.406  14.274  10.609  0.4226 -0.5574 -0.0169
  200loPI   PO4 3188  12.173  14.193  10.023  0.0233  0.0484 -0.1229
  200loPI   GL1 3189  12.072  14.023   9.647  0.0177 -0.4305 -0.1133
  200loPI   GL2 3190  11.713  13.997   9.611  0.0579 -0.2556 -0.0107
  200loPI   C1A 3191  11.988  13.670   9.230 -0.0012  0.2899  0.1320
  200loPI   C2A 3192  12.038  13.735   8.799 -0.1767  0.0227  0.3121
  200loPI   C3A 3193  11.957  13.716   8.488 -0.2694  0.0282 -0.1616
  200loPI   C4A 3194  12.204  13.772   8.123  0.0704 -0.3409 -0.3418
  200loPI   C5A 3195  12.439  13.959   7.779 -0.1568  0.2903  0.0575
  200loPI   C6A 3196  12.361  14.215   7.599  0.0427  0.3391 -0.2049
  200loPI   C1B 3197  11.782  14.085   9.167 -0.0738  0.0011  0.0398
  200loPI   C2B 3198  11.755  14.101   8.747  0.1468 -0.3282 -0.0829
  200loPI   C3B 3199  11.571  14.290   8.350 -0.0898  0.0170  0.1917
  200loPI   C4B 3200  11.503  14.196   7.930  0.1563  0.0933 -0.3737
  201loPI    C1 3201   1.180   6.649  10.240 -0.0132  0.0332  0.1012
  201loPI    C2 3202   1.433   6.958  10.258 -0.1795  0.1771 -0.0111
  201loPI    C3 3203   1.161   6.905  10.546 -0.1706  0.1529 -0.0073
  201loPI   PO4 3204   1.023   6.745  10.008 -0.0767 -0.2233 -0.5176
  201loPI   GL1 3205   1.152   7.095   9.815 -0.0683 -0.1537  0.1507
  201loPI   GL2 3206   1.500   7.098   9.776  0.2865  0.2544 -0.4053
  201loPI   C1A 3207   0.872   7.272   9.502 -0.1888 -0.3431  0.6253
  201loPI   C2A 3208   0.700   7.597   9.170 -0.0181 -0.0660  0.2788
  201loPI   C3A 3209   0.452   7.625   8.831 -0.1264  0.1431  0.3033
  201loPI   C4A 3210   0.512   7.597   8.411  0.3899 -0.3789 -0.0706
  201loPI   C5A 3211   0.428   7.473   7.956  0.0114  0.2556 -0.1696
  201loPI   C6A 3212   0.388   7.600   7.467 -0.0310  0.2249 -0.2327
  201loPI   C1B 3213   1.551   7.250   9.333  0.0923  0.1019 -0.0515
  201loPI   C2B 3214   1.696   7.505   9.062  0.0427 -0.0306  0.3730
  201loPI   C3B 3215   1.568   7.448   8.614 -0.0111 -0.0801  0.2084
  201loPI   C4B 3216   1.710   7.478   8.185  0.1556  0.2219 -0.0380
  202loPI    C1 3217  15.093  17.270  10.200  0.2832  0.1692 -0.1291
  202loPI    C2 3218  15.127  16.933  10.413 -0.1184  0.0429 -0.2556
  202loPI    C3 3219  15.201  17.287  10.585  0.2025 -0.0987 -0.0929
  202loPI   PO4 3220  15.278  17.157   9.930  0.1633  0.1502  0.0898
  202loPI   GL1 3221  15.314  17.060   9.450 -0.3014 -0.2855  0.1764
  202loPI   GL2 3222  15.235  16.974   9.108  0.3283  0.0073 -0.2520
  202loPI   C1A 3223  15.747  17.093   9.123 -0.0842  0.0553  0.1905
  202loPI   C2A 3224  15.989  17.091   8.713 -0.0086 -0.0323  0.0599
  202loPI   C3A 3225  16.045  17.108   8.290  0.2423 -0.2380  0.2575
  202loPI   C4A 3226  16.184  16.761   7.997 -0.1758 -0.1994  0.2139
  202loPI   C5A 3227  16.045  16.363   7.701 -0.0285 -0.1245  0.0007
  202loPI   C6A 3228  16.098  16.031   7.383  0.2333  0.0115 -0.0028
  202loPI   C1B 3229  15.528  16.917   8.735 -0.0011 -0.1846  0.0034
  202loPI   C2B 3230  15.457  17.069   8.342 -0.1669  0.1869 -0.2935
  202loPI   C3B 3231  15.610  16.721   8.157  0.0911 -0.1724  0.1305
  202loPI   C4B 3232  15.537  16.542   7.785  0.2597 -0.1990  0.2533
  203loPI    C1 3233  12.986   0.896   9.762 -0.0888  0.2459 -0.2580
  203loPI    C2 3234  12.605   0.779   9.797  0.0158 -0.0721 -0.1447
  203loPI    C3 3235  12.802   0.914  10.117  0.0842 -0.1828 -0.1395
  203loPI   PO4 3236  13.087   0.825   9.532 -0.0388 -0.2371  0.3220
  203loPI   GL1 3237  13.058   0.957   9.083  0.0120 -0.2987  0.1992
  203loPI   GL2 3238  13.159   1.300   9.130  0.3802  0.1264  0.1474
  203loPI   C1A 3239  13.046   1.017   8.600 -0.0071 -0.2127 -0.0171
  203loPI   C2A 3240  12.957   0.949   8.195  0.1638 -0.3888  0.0685
  203loPI   C3A 3241  12.653   0.673   7.829 -0.2515  0.2206  0.0314
  203loPI   C4A 3242  12.648   0.769   7.401  0.0453 -0.0841  0.5222
  203loPI   C5A 3243  12.640   0.653   6.948  0.2415 -0.0722  0.1364
  203loPI   C6A 3244  12.231   0.612   6.863 -0.1200 -0.0788  0.1404
  203loPI   C1B 3245  12.675   1.203   8.874 -0.0079 -0.0126 -0.3219
  203loPI   C2B 3246  12.453   1.283   8.524  0.1802  0.2417  0.1141
  203loPI   C3B 3247  12.113   1.247   8.224 -0.0449  0.1169 -0.0778
  203loPI   C4B 3248  12.099   1.257   7.759 -0.0152  0.1101 -0.1976
  204loPI    C1 3249  17.913   7.718  10.454 -0.1244 -0.1397 -0.0200
  204loPI    C2 3250  17.632   7.945  10.284 -0.0626 -0.0544 -0.0088
  204loPI    C3 3251  17.560   7.768  10.635 -0.2150 -0.2848 -0.1532
  204loPI   PO4 3252  18.220   7.825  10.375  0.1212  0.0319  0.0195
  204loPI   GL1 3253  18.240   8.030   9.907  0.1097  0.2570 -0.0985
  204loPI   GL2 3254  17.884   8.002   9.874  0.0115  0.0383  0.2884
  204loPI   C1A 3255  18.412   7.957   9.578  0.0859 -0.1390  0.1642
  204loPI   C2A 3256  18.547   7.752   9.130  0.1409  0.1548 -0.1078
  204loPI   C3A 3257  18.496   7.671   8.672 -0.0712  0.1489  0.0380
  204loPI   C4A 3258  18.443   7.560   8.242 -0.1627 -0.3753  0.1292
  204loPI   C5A 3259  18.280   7.513   7.847 -0.1327  0.1528 -0.1721
  204loPI   C6A 3260  18.160   7.186   7.592  0.0780  0.1083 -0.2121
  204loPI   C1B 3261  17.944   8.111   9.480  0.1439 -0.1076 -0.0751
  204loPI   C2B 3262  18.109   8.062   9.085  0.0283  0.1820  0.0369
  204loPI   C3B 3263  18.066   8.001   8.658  0.0401  0.0308 -0.0355
  204loPI   C4B 3264  18.076   7.901   8.117  0.2895 -0.0635  0.1412
  205loPI    C1 3265  12.949  14.697  10.052 -0.0388 -0.0065 -0.2284
  205loPI    C2 3266  13.065  15.041  10.219  0.0679  0.0559 -0.4289
  205loPI    C3 3267  12.937  14.741  10.450  0.0963  0.1842 -0.2441
  205loPI   PO4 3268  12.921  14.826   9.807 -0.3163  0.2023 -0.1776
  205loPI   GL1 3269  12.832  14.953   9.432 -0.1276 -0.0795 -0.1894
  205loPI   GL2 3270  12.476  14.818   9.360 -0.0511  0.0975  0.0226
  205loPI   C1A 3271  12.745  15.163   8.998  0.0104 -0.6115  0.1358
  205loPI   C2A 3272  12.783  15.282   8.578 -0.2179 -0.3497 -0.0024
  205loPI   C3A 3273  12.908  15.341   8.189  0.0472  0.2076  0.1046
  205loPI   C4A 3274  13.004  15.284   7.784 -0.4211  0.3158  0.3449
  205loPI   C5A 3275  12.933  14.962   7.365  0.0634 -0.0496  0.0785
  205loPI   C6A 3276  12.939  14.760   7.029 -0.1134 -0.0062 -0.0386
  205loPI   C1B 3277  12.465  14.651   8.982  0.3816  0.0109 -0.2223
  205loPI   C2B 3278  12.503  14.522   8.522 -0.1249 -0.2986 -0.1666
  205loPI   C3B 3279  12.378  14.511   8.033 -0.1150 -0.0196 -0.3034
  205loPI   C4B 3280  12.123  14.626   7.683  0.0269  0.0251 -0.3809
  206loPI    C1 3281   7.253   3.729  10.073  0.0583 -0.0217 -0.0558
  206loPI    C2 3282   7.391   3.696  10.448 -0.1924 -0.2701  0.0179
  206loPI    C3 3283   7.011   3.804  10.383 -0.0190  0.2515 -0.1796
  206loPI   PO4 3284   7.254   3.558   9.957  0.3174 -0.2477  0.0788
  206loPI   GL1 3285   7.102   3.492   9.520 -0.2354 -0.1186 -0.2001
  206loPI   GL2 3286   6.760   3.354   9.578  0.0467  0.0618  0.3139
  206loPI   C1A 3287   7.128   3.253   9.139  0.0957  0.0516  0.0129
  206loPI   C2A 3288   6.953   3.190   8.724  0.0655 -0.3483 -0.2380
  206loPI   C3A 3289   7.089   3.021   8.299  0.1635 -0.0156  0.2174
  206loPI   C4A 3290   6.981   2.613   8.018 -0.0368  0.0669  0.2258
  206loPI   C5A 3291   7.029   2.204   7.989  0.0542 -0.0025  0.0793
  206loPI   C6A 3292   7.084   1.804   7.983 -0.0080  0.2167  0.1171
  206loPI   C1B 3293   6.794   3.681   9.126  0.0700  0.2439  0.0931
  206loPI   C2B 3294   6.768   3.834   8.701 -0.1836 -0.1351 -0.4090
  206loPI   C3B 3295   6.572   3.788   8.262  0.2214 -0.4738 -0.0529
  206loPI   C4B 3296   6.448   3.872   7.739  0.0985 -0.0414  0.0442
  207loPI    C1 3297  17.466   1.682  10.285 -0.1927 -0.2070  0.0828
  207loPI    C2 3298  17.163   1.822  10.506 -0.1180 -0.2790  0.2329
  207loPI    C3 3299  17.139   1.458  10.340 -0.1979 -0.2019  0.0733
  207loPI   PO4 3300  17.477   1.896  10.144  0.1816 -0.0253 -0.1934
  207loPI   GL1 3301  17.614   2.003   9.723  0.0530 -0.0088 -0.3168
  207loPI   GL2 3302  17.447   1.800   9.644  0.1957  0.2475 -0.2682
  207loPI   C1A 3303  17.807   2.262   9.291  0.1739  0.0376  0.2706
  207loPI   C2A 3304  17.669   2.714   9.017  0.0485 -0.0613 -0.1104
  207loPI   C3A 3305  17.528   2.618   8.588 -0.0220 -0.0109  0.1296
  207loPI   C4A 3306  17.157   2.651   8.334  0.1167  0.0463 -0.0226
  207loPI   C5A 3307  17.202   2.759   7.924  0.0915  0.0834  0.1926
  207loPI   C6A 3308  17.118   2.579   7.563  0.2873  0.2014 -0.0422
  207loPI   C1B 3309  17.445   1.684   9.215  0.0548 -0.0199  0.1391
  207loPI   C2B 3310  17.498   1.704   8.799  0.1339  0.3906 -0.1285
  207loPI   C3B 3311  17.884   1.711   8.482 -0.1241 -0.1614  0.4804
  207loPI   C4B 3312  18.148   1.510   8.169 -0.0063 -0.3278  0.1797
  208loPI    C1 3313  12.574  17.040   9.890 -0.0901 -0.0854  0.1097
  208loPI    C2 3314  12.762  17.234  10.186 -0.0805  0.1305 -0.0350
  208loPI    C3 3315  12.377  17.312  10.107 -0.1057  0.0156 -0.0291
  208loPI   PO4 3316  12.772  17.039   9.693 -0.1713  0.1935  0.0316
  208loPI   GL1 3317  12.704  16.914   9.262  0.0041 -0.0102  0.0416
  208loPI   GL2 3318  13.047  17.011   9.155  0.1900 -0.1888  0.2078
  208loPI   C1A 3319  12.536  16.768   8.853 -0.1745  0.0898 -0.1042
  208loPI   C2A 3320  12.342  16.700   8.494  0.0593 -0.0374 -0.0620
  208loPI   C3A 3321  12.485  16.704   8.027  0.1365 -0.0832 -0.0473
  208loPI   C4A 3322  12.414  16.373   7.658  0.0979 -0.1225  0.2186
  208loPI   C5A 3323  12.616  16.070   7.394  0.1050  0.2943  0.1355
  208loPI   C6A 3324  12.815  15.600   7.131  0.2019  0.0591 -0.3213
  208loPI   C1B 3325  13.074  16.809   8.758  0.2782 -0.0399 -0.2209
  208loPI   C2B 3326  13.058  16.641   8.478  0.0827 -0.0045  0.4097
  208loPI   C3B 3327  13.094  16.743   7.992 -0.2669 -0.0242 -0.0852
  208loPI   C4B 3328  12.815  16.755   7.706 -0.2685 -0.0153 -0.2519
  209loPI    C1 3329  15.587   9.695  10.127 -0.1414  0.0669 -0.0536
  209loPI    C2 3330  15.312   9.597  10.400 -0.2666  0.3102 -0.0902
  209loPI    C3 3331  15.507   9.945  10.428  0.0697  0.1227 -0.0421
  209loPI   PO4 3332  15.570   9.496   9.910 -0.2975  0.2180  0.1305
  209loPI   GL1 3333  15.719   9.327   9.496 -0.0517  0.3098 -0.1553
  209loPI   GL2 3334  15.493   9.096   9.212  0.0116 -0.0186  0.0295
  209loPI   C1A 3335  15.821   9.690   9.173 -0.0932  0.0990 -0.0211
  209loPI   C2A 3336  15.865   9.688   8.728  0.0150 -0.0259 -0.2699
  209loPI   C3A 3337  16.036   9.923   8.434  0.2077 -0.2025  0.2014
  209loPI   C4A 3338  16.269  10.120   8.102  0.1815  0.1854  0.0477
  209loPI   C5A 3339  16.742  10.250   8.007 -0.2904 -0.0397 -0.2306
  209loPI   C6A 3340  17.015  10.043   7.764 -0.2312 -0.1024  0.0618
  209loPI   C1B 3341  15.353   9.532   9.024 -0.1009 -0.2207 -0.1782
  209loPI   C2B 3342  15.320   9.951   9.068 -0.0128  0.1143 -0.3398
  209loPI   C3B 3343  15.252  10.408   8.957 -0.1276  0.0030 -0.1163
  209loPI   C4B 3344  15.296  10.649   8.596 -0.2663  0.1842 -0.1594
  210loPI    C1 3345  14.885  10.226   9.699 -0.2775  0.2401 -0.2891
  210loPI    C2 3346  14.551  10.170   9.912 -0.2015  0.5521 -0.0819
  210loPI    C3 3347  14.832  10.423  10.043  0.2651  0.0563 -0.0901
  210loPI   PO4 3348  14.955   9.986   9.635 -0.2737  0.0999 -0.1757
  210loPI   GL1 3349  14.834   9.673   9.382 -0.1908  0.3696  0.0021
  210loPI   GL2 3350  15.022   9.407   9.406 -0.4957 -0.0767  0.0040
  210loPI   C1A 3351  14.893   9.632   8.868 -0.2253 -0.1545 -0.0497
  210loPI   C2A 3352  14.819   9.334   8.560 -0.0290 -0.2233 -0.0955
  210loPI   C3A 3353  15.022   9.214   8.155 -0.0517 -0.1479  0.0243
  210loPI   C4A 3354  15.306   9.163   7.838 -0.0671 -0.2040  0.0397
  210loPI   C5A 3355  15.724   9.010   7.558 -0.2294 -0.1742  0.2077
  210loPI   C6A 3356  15.768   8.680   7.260  0.3183 -0.0479  0.1374
  210loPI   C1B 3357  14.948   9.151   9.064  0.2869 -0.1697 -0.0130
  210loPI   C2B 3358  15.257   9.090   8.777 -0.0382 -0.3288 -0.1581
  210loPI   C3B 3359  15.445   9.107   8.344  0.0485  0.1183  0.4019
  210loPI   C4B 3360  15.898   9.215   8.107 -0.3425  0.0602 -0.0435
  211loPI    C1 3361   8.799   0.050  10.358  0.1000  0.3084  0.1479
  211loPI    C2 3362   8.547  -0.131  10.610  0.1441  0.0416  0.0043
  211loPI    C3 3363   8.941  -0.197  10.639  0.1552  0.0642 -0.0896
  211loPI   PO4 3364   8.708   0.106  10.099 -0.4171  0.1383 -0.3446
  211loPI   GL1 3365   8.858   0.275   9.729 -0.2333 -0.2272 -0.4251
  211loPI   GL2 3366   9.144   0.376   9.596  0.2864 -0.0995 -0.0367
  211loPI   C1A 3367   8.831   0.278   9.210 -0.1849 -0.1472  0.0864
  211loPI   C2A 3368   8.455   0.319   8.942 -0.0042 -0.3034  0.0925
  211loPI   C3A 3369   8.518   0.415   8.563 -0.1167  0.0828 -0.0952
  211loPI   C4A 3370   8.789   0.570   8.177  0.3008 -0.2191 -0.0202
  211loPI   C5A 3371   9.219   0.483   8.033 -0.1449 -0.0951 -0.1116
  211loPI   C6A 3372   9.538   0.502   7.647 -0.0976 -0.0514  0.0562
  211loPI   C1B 3373   9.602   0.614   9.256 -0.2544  0.0736  0.1474
  211loPI   C2B 3374   9.475   0.709   8.775  0.0324 -0.3286  0.1200
  211loPI   C3B 3375   9.497   0.553   8.431  0.0569  0.3733  0.2029
  211loPI   C4B 3376   9.808   0.376   8.114 -0.2158  0.0476  0.2339
  212loPI    C1 3377  18.557   9.685  10.219  0.1356  0.3531 -0.1639
  212loPI    C2 3378  18.224   9.517  10.364  0.3658 -0.1239 -0.1666
  212loPI    C3 3379  18.321   9.891  10.467 -0.0070 -0.0896  0.0803
  212loPI   PO4 3380  18.608   9.482   9.981  0.2624 -0.0260 -0.0651
  212loPI   GL1 3381  18.422   9.294   9.709  0.0857  0.0084  0.1716
  212loPI   GL2 3382  18.341   8.963   9.594 -0.1675  0.3377 -0.2177
  212loPI   C1A 3383  18.370   9.621   9.409  0.3483  0.0313  0.1347
  212loPI   C2A 3384  18.783   9.848   9.139 -0.1646 -0.1181 -0.0998
  212loPI   C3A 3385  18.870  10.126   8.718  0.0173 -0.2948 -0.1908
  212loPI   C4A 3386  18.764  10.123   8.287  0.1742  0.2732  0.0060
  212loPI   C5A 3387  18.481  10.182   8.046  0.0865 -0.2536  0.2514
  212loPI   C6A 3388  18.257  10.003   7.739 -0.0865 -0.0031 -0.3169
  212loPI   C1B 3389  18.303   8.979   9.211 -0.1518 -0.3435  0.0509
  212loPI   C2B 3390  18.604   8.740   8.891 -0.0640 -0.1754  0.0316
  212loPI   C3B 3391  18.561   8.630   8.513 -0.2674 -0.1413 -0.1667
  212loPI   C4B 3392  18.465   8.877   8.147 -0.1260 -0.1411 -0.1826
  213loPI    C1 3393  15.150   2.661  10.096 -0.0363 -0.1492  0.0077
  213loPI    C2 3394  15.324   2.328   9.959  0.0227 -0.1561  0.0985
  213loPI    C3 3395  15.428   2.476  10.316 -0.0319 -0.0623  0.0759
  213loPI   PO4 3396  14.947   2.755   9.835 -0.0832 -0.0328 -0.1705
  213loPI   GL1 3397  14.990   3.063   9.426  0.3149  0.3818 -0.2665
  213loPI   GL2 3398  15.240   3.105   9.240 -0.3438 -0.0456  0.1506
  213loPI   C1A 3399  14.921   2.825   9.033  0.1140  0.3602 -0.0963
  213loPI   C2A 3400  14.882   2.582   8.665 -0.0831 -0.0156  0.3355
  213loPI   C3A 3401  15.050   2.585   8.310 -0.0127  0.1183 -0.0062
  213loPI   C4A 3402  15.451   2.580   8.056 -0.1546 -0.1101 -0.1249
  213loPI   C5A 3403  15.642   2.844   7.721  0.3016 -0.1512 -0.0675
  213loPI   C6A 3404  15.594   3.069   7.352  0.2997 -0.2358 -0.1074
  213loPI   C1B 3405  15.082   3.320   8.885 -0.2860 -0.0311 -0.2006
  213loPI   C2B 3406  15.035   3.091   8.492  0.0849 -0.3474 -0.1642
  213loPI   C3B 3407  15.088   2.937   8.025 -0.0807 -0.0796  0.1409
  213loPI   C4B 3408  15.167   2.583   7.672  0.0347  0.1887 -0.2328
  214loPI    C1 3409   2.841  17.137  10.059  0.0837  0.1508  0.0172
  214loPI    C2 3410   2.672  17.436  10.264 -0.3075 -0.0784  0.0399
  214loPI    C3 3411   3.014  17.273  10.393 -0.2327  0.1787  0.1735
  214loPI   PO4 3412   2.968  17.121   9.808 -0.0180  0.1091 -0.2551
  214loPI   GL1 3413   3.202  17.127   9.482 -0.2091  0.0620 -0.0307
  214loPI   GL2 3414   3.173  17.497   9.482  0.3240  0.0016  0.1611
  214loPI   C1A 3415   3.272  17.187   9.001 -0.1091 -0.2816 -0.3377
  214loPI   C2A 3416   3.467  16.872   8.645 -0.0099  0.0381  0.2923
  214loPI   C3A 3417   3.503  16.470   8.601 -0.0791  0.1433 -0.3907
  214loPI   C4A 3418   3.156  16.166   8.581  0.0792  0.0138 -0.2760
  214loPI   C5A 3419   2.876  15.930   8.249 -0.2387 -0.2557  0.3078
  214loPI   C6A 3420   2.680  15.728   7.985 -0.2052  0.1085 -0.0936
  214loPI   C1B 3421   2.820  17.371   9.168 -0.2897  0.0346  0.0521
  214loPI   C2B 3422   2.876  17.364   8.712  0.4832 -0.2360 -0.0135
  214loPI   C3B 3423   2.919  17.356   8.300  0.0184 -0.0077 -0.3156
  214loPI   C4B 3424   2.944  17.028   8.076  0.2147 -0.0129  0.2604
  215loPI    C1 3425   1.564   3.821  10.352 -0.3179 -0.0362 -0.0875
  215loPI    C2 3426   1.332   3.888  10.672 -0.0756  0.0656  0.0701
  215loPI    C3 3427   1.609   4.157  10.566  0.1759 -0.1901  0.0649
  215loPI   PO4 3428   1.325   3.748  10.200 -0.4411  0.0591  0.2269
  215loPI   GL1 3429   1.119   3.568   9.777  0.1328 -0.2574  0.1685
  215loPI   GL2 3430   1.227   3.815   9.660  0.0353  0.1452  0.1553
  215loPI   C1A 3431   1.390   3.336   9.496 -0.1108  0.0444 -0.0699
  215loPI   C2A 3432   1.601   3.383   9.118  0.1525  0.1607 -0.3248
  215loPI   C3A 3433   1.581   3.396   8.656  0.3620  0.1980  0.0993
  215loPI   C4A 3434   1.312   3.228   8.276 -0.1981  0.0556 -0.0502
  215loPI   C5A 3435   1.172   3.102   7.773 -0.2555  0.0229 -0.1852
  215loPI   C6A 3436   0.965   3.378   7.607  0.1082 -0.2070 -0.1091
  215loPI   C1B 3437   1.275   3.734   9.292 -0.4347  0.3738 -0.3393
  215loPI   C2B 3438   1.264   3.770   8.838  0.0046 -0.1620 -0.0019
  215loPI   C3B 3439   1.272   3.705   8.453 -0.0140 -0.3620 -0.0495
  215loPI   C4B 3440   1.092   3.631   8.025  0.0079  0.1620 -0.1207
  216loPI    C1 3441   4.015  12.165  10.147  0.3796  0.1845 -0.2262
  216loPI    C2 3442   4.302  12.057  10.404  0.1047 -0.1452 -0.0493
  216loPI    C3 3443   4.123  12.413  10.441  0.1726 -0.1282  0.1217
  216loPI   PO4 3444   4.107  12.167   9.881  0.2684 -0.0132  0.1180
  216loPI   GL1 3445   4.104  11.912   9.519  0.0644 -0.1376  0.0005
  216loPI   GL2 3446   3.805  11.917   9.462  0.1861  0.2463 -0.1752
  216loPI   C1A 3447   4.096  11.741   9.062 -0.1703  0.2704  0.1169
  216loPI   C2A 3448   3.961  11.573   8.612  0.0115 -0.0306 -0.2087
  216loPI   C3A 3449   4.204  11.318   8.287 -0.0476  0.0619  0.0817
  216loPI   C4A 3450   4.551  11.039   8.121  0.2251 -0.0727 -0.3837
  216loPI   C5A 3451   4.740  10.758   7.790  0.0103  0.2707  0.0931
  216loPI   C6A 3452   5.124  10.585   7.705  0.1520 -0.1500 -0.1803
  216loPI   C1B 3453   3.531  12.124   9.105 -0.3331  0.0796 -0.2769
  216loPI   C2B 3454   3.389  12.156   8.653  0.1797 -0.1472  0.1470
  216loPI   C3B 3455   3.370  12.127   8.216  0.1989  0.2417 -0.2871
  216loPI   C4B 3456   3.300  11.918   7.857 -0.1457 -0.3151 -0.0791
  217loPI    C1 3457   0.468   5.168  10.547  0.0928  0.2246 -0.0127
  217loPI    C2 3458   0.537   5.372  10.883  0.0473 -0.1708  0.2432
  217loPI    C3 3459   0.830   5.157  10.716  0.0100 -0.1500  0.1510
  217loPI   PO4 3460   0.297   5.317  10.391  0.1445  0.0993  0.1874
  217loPI   GL1 3461   0.193   5.433   9.899 -0.0162  0.2647 -0.0435
  217loPI   GL2 3462   0.105   5.104   9.836  0.0010 -0.0904  0.0928
  217loPI   C1A 3463   0.478   5.721   9.595 -0.0366 -0.0824  0.1403
  217loPI   C2A 3464   0.645   6.078   9.579 -0.0268  0.1118 -0.0614
  217loPI   C3A 3465   0.719   6.294   9.271  0.1303 -0.0930 -0.1623
  217loPI   C4A 3466   0.643   6.632   8.908  0.4002 -0.0584 -0.1552
  217loPI   C5A 3467   0.727   6.670   8.478 -0.0930  0.2495 -0.0977
  217loPI   C6A 3468   0.480   6.679   8.136 -0.0320  0.1386  0.0586
  217loPI   C1B 3469   0.125   5.151   9.418 -0.2171  0.1287  0.0101
  217loPI   C2B 3470   0.256   5.254   9.016  0.0055 -0.0295 -0.2479
  217loPI   C3B 3471   0.031   5.304   8.688  0.0837  0.0159 -0.0473
  217loPI   C4B 3472  -0.299   5.282   8.411 -0.4085 -0.2252  0.0812
  218loPI    C1 3473  15.534   3.482   9.953  0.1149 -0.0418 -0.0577
  218loPI    C2 3474  15.478   3.102  10.068 -0.0132 -0.0968 -0.2943
  218loPI    C3 3475  15.276   3.397  10.247  0.1421 -0.1308 -0.0590
  218loPI   PO4 3476  15.505   3.474   9.669  0.0571  0.0666  0.3031
  218loPI   GL1 3477  15.827   3.501   9.285 -0.1418 -0.3006  0.0941
  218loPI   GL2 3478  16.074   3.448   9.256 -0.2176 -0.1175  0.0782
  218loPI   C1A 3479  15.735   3.728   8.920 -0.4498 -0.0179  0.0559
  218loPI   C2A 3480  15.578   3.983   8.580  0.2031  0.1290  0.1747
  218loPI   C3A 3481  15.578   4.303   8.296 -0.0404 -0.0195 -0.1207
  218loPI   C4A 3482  15.863   4.469   8.062 -0.1286 -0.1924 -0.1889
  218loPI   C5A 3483  16.075   4.763   8.051  0.0517  0.0396 -0.2168
  218loPI   C6A 3484  16.411   4.833   7.894 -0.0263  0.3211  0.1289
  218loPI   C1B 3485  16.070   3.353   8.864 -0.1702 -0.2125  0.2339
  218loPI   C2B 3486  15.986   3.479   8.459 -0.0872  0.1117  0.1354
  218loPI   C3B 3487  15.787   3.693   8.100 -0.1170 -0.4725  0.1881
  218loPI   C4B 3488  15.892   4.016   7.911 -0.2023  0.0031 -0.1149
  219loPI    C1 3489  14.510  11.754  10.160  0.2337  0.0277  0.2367
  219loPI    C2 3490  14.392  11.381  10.074  0.2378  0.1245 -0.2173
  219loPI    C3 3491  14.163  11.616  10.305  0.0674 -0.0437 -0.2125
  219loPI   PO4 3492  14.706  11.859  10.076  0.0435 -0.0783 -0.3855
  219loPI   GL1 3493  14.665  12.160   9.727 -0.0085  0.0402 -0.0242
  219loPI   GL2 3494  14.424  11.975   9.525  0.3222 -0.2440  0.2806
  219loPI   C1A 3495  14.697  12.306   9.302  0.1353 -0.0539  0.0165
  219loPI   C2A 3496  14.655  12.550   8.874 -0.1993  0.2063  0.0289
  219loPI   C3A 3497  14.751  12.745   8.583 -0.3364  0.1005  0.0310
  219loPI   C4A 3498  14.593  13.076   8.230  0.1002 -0.1278  0.0231
  219loPI   C5A 3499  14.517  13.503   8.439 -0.3683  0.0267  0.3540
  219loPI   C6A 3500  14.551  13.892   8.640 -0.2888  0.2152  0.4237
  219loPI   C1B 3501  14.335  12.012   9.122  0.1457  0.3949  0.3601
  219loPI   C2B 3502  14.199  11.968   8.705 -0.1183  0.0227  0.1911
  219loPI   C3B 3503  13.975  11.866   8.325 -0.0031  0.1512  0.0189
  219loPI   C4B 3504  13.916  11.778   7.866  0.0483 -0.0765  0.1687
  220loPI    C1 3505  11.101  16.424   9.790  0.0437  0.0202 -0.0899
  220loPI    C2 3506  11.169  16.134  10.057 -0.3115  0.0708  0.0614
  220loPI    C3 3507  10.892  16.084   9.773 -0.3473  0.2451  0.0643
  220loPI   PO4 3508  11.403  16.475   9.705 -0.2115  0.1046  0.0932
  220loPI   GL1 3509  11.707  16.653   9.364  0.1240 -0.0766 -0.1140
  220loPI   GL2 3510  11.856  16.897   9.073  0.0738 -0.1522  0.1719
  220loPI   C1A 3511  11.490  16.561   8.953 -0.1196  0.0253  0.0354
  220loPI   C2A 3512  11.383  16.339   8.606  0.1255 -0.1690  0.1868
  220loPI   C3A 3513  11.323  16.264   8.166  0.1383  0.0273  0.0813
  220loPI   C4A 3514  11.035  16.163   7.732 -0.2128  0.1074  0.1621
  220loPI   C5A 3515  10.920  15.825   7.402  0.0257  0.2420  0.5023
  220loPI   C6A 3516  10.695  15.734   7.064  0.0453  0.1657 -0.0322
  220loPI   C1B 3517  11.975  16.895   8.713  0.1187  0.0436 -0.0373
  220loPI   C2B 3518  11.958  17.011   8.265 -0.1744  0.1857  0.2039
  220loPI   C3B 3519  12.088  17.172   7.898 -0.0410 -0.0551 -0.3520
  220loPI   C4B 3520  12.429  17.349   7.611  0.1031  0.2042 -0.2026
  221loPI    C1 3521  17.450  16.853   9.791  0.1458 -0.0140  0.0261
  221loPI    C2 3522  17.083  16.694   9.779  0.2414 -0.2260 -0.1702
  221loPI    C3 3523  17.326  16.614  10.087  0.0616  0.0605  0.0515
  221loPI   PO4 3524  17.407  17.111   9.691 -0.3678 -0.2987 -0.0923
  221loPI   GL1 3525  17.419  17.350   9.222 -0.2786 -0.0844 -0.0994
  221loPI   GL2 3526  17.698  17.197   9.187 -0.4417  0.0526  0.2409
  221loPI   C1A 3527  17.391  17.656   8.917 -0.2336 -0.0921 -0.2031
  221loPI   C2A 3528  17.347  17.835   8.501  0.0066  0.0274  0.1869
  221loPI   C3A 3529  17.344  17.623   8.022 -0.1117  0.0735  0.1805
  221loPI   C4A 3530  17.199  17.742   7.576  0.0921 -0.5891 -0.0663
  221loPI   C5A 3531  17.239  18.154   7.455 -0.2485  0.1106  0.2726
  221loPI   C6A 3532  17.199  18.361   7.058  0.3643 -0.1473 -0.1051
  221loPI   C1B 3533  17.779  17.103   8.765  0.0877 -0.0941 -0.1316
  221loPI   C2B 3534  18.144  17.236   8.467 -0.0423 -0.0060 -0.4833
  221loPI   C3B 3535  18.282  17.537   8.111 -0.4359  0.0925  0.2641
  221loPI   C4B 3536  18.428  17.727   7.594  0.0454  0.1192 -0.1978
  222loPI    C1 3537   7.598  13.599  10.114  0.2011  0.0154  0.0254
  222loPI    C2 3538   7.524  13.427  10.468  0.2393 -0.0699 -0.0076
  222loPI    C3 3539   7.642  13.809  10.452 -0.0954  0.0394  0.0513
  222loPI   PO4 3540   7.442  13.622   9.964 -0.0248 -0.0187 -0.0708
  222loPI   GL1 3541   7.385  13.855   9.556 -0.1009 -0.2162 -0.2608
  222loPI   GL2 3542   7.211  14.009   9.441  0.2894 -0.2524 -0.1319
  222loPI   C1A 3543   7.446  13.926   9.050  0.1493  0.0441  0.2433
  222loPI   C2A 3544   7.316  14.015   8.652  0.1409 -0.3958  0.0188
  222loPI   C3A 3545   7.327  14.126   8.206  0.1040 -0.2199 -0.1595
  222loPI   C4A 3546   7.278  14.577   7.913 -0.1325 -0.0972  0.0300
  222loPI   C5A 3547   7.229  14.848   7.701  0.1084  0.0703 -0.2211
  222loPI   C6A 3548   7.490  15.132   7.451  0.2166  0.1492 -0.1830
  222loPI   C1B 3549   6.929  13.930   9.029 -0.3866 -0.1097 -0.0226
  222loPI   C2B 3550   6.831  13.910   8.572 -0.1202  0.1051  0.1010
  222loPI   C3B 3551   6.761  14.023   8.194  0.0299 -0.2187 -0.0190
  222loPI   C4B 3552   7.009  14.188   7.800  0.3119  0.0022  0.1408
  223loPI    C1 3553   1.675  13.849  10.124 -0.2223  0.0189  0.0404
  223loPI    C2 3554   1.792  14.229  10.173 -0.1210 -0.0371  0.2392
  223loPI    C3 3555   1.634  14.026  10.480 -0.3316 -0.1036  0.0896
  223loPI   PO4 3556   1.508  13.772   9.861 -0.0967  0.1223  0.1658
  223loPI   GL1 3557   1.367  13.837   9.484 -0.1414  0.3521  0.0075
  223loPI   GL2 3558   1.045  13.890   9.411  0.2295  0.2116  0.2243
  223loPI   C1A 3559   1.201  13.481   9.243 -0.3649 -0.0102  0.3612
  223loPI   C2A 3560   0.862  13.440   8.985  0.0037  0.0897 -0.2593
  223loPI   C3A 3561   0.628  13.383   8.693 -0.0378 -0.2690 -0.0857
  223loPI   C4A 3562   0.497  13.386   8.318  0.2000 -0.2196  0.1348
  223loPI   C5A 3563   0.306  13.623   7.975  0.0219 -0.0111 -0.0066
  223loPI   C6A 3564  -0.047  13.915   7.855 -0.0303  0.1493 -0.1179
  223loPI   C1B 3565   0.751  13.933   9.076 -0.0585  0.1137 -0.0459
  223loPI   C2B 3566   0.469  13.821   8.772 -0.0031 -0.2240  0.0151
  223loPI   C3B 3567   0.130  13.746   8.580  0.0988 -0.0091  0.1141
  223loPI   C4B 3568  -0.251  13.905   8.305 -0.5019 -0.2919  0.3640
  224loPI    C1 3569   9.188   7.957  10.099 -0.1231 -0.2053 -0.0265
  224loPI    C2 3570   9.224   8.226  10.393 -0.0683 -0.1837 -0.0528
  224loPI    C3 3571   9.549   8.045  10.248 -0.0877 -0.1435 -0.1472
  224loPI   PO4 3572   9.113   8.008   9.900 -0.0330 -0.0883 -0.0397
  224loPI   GL1 3573   9.049   7.851   9.549 -0.0222 -0.0259 -0.2096
  224loPI   GL2 3574   8.938   7.544   9.559  0.2093  0.3875 -0.0899
  224loPI   C1A 3575   8.944   8.036   9.150 -0.0234  0.2384  0.1336
  224loPI   C2A 3576   8.945   8.414   8.878 -0.6111  0.0635  0.1799
  224loPI   C3A 3577   8.908   8.301   8.437 -0.1925 -0.0275  0.3361
  224loPI   C4A 3578   8.662   8.351   8.149  0.0272 -0.1597 -0.1817
  224loPI   C5A 3579   8.274   8.168   7.917  0.0004 -0.0770  0.0986
  224loPI   C6A 3580   8.058   8.420   7.702 -0.2275  0.1549  0.1996
  224loPI   C1B 3581   9.242   7.470   9.226 -0.2356 -0.4330  0.2029
  224loPI   C2B 3582   9.381   7.809   8.925 -0.1189  0.2659 -0.2497
  224loPI   C3B 3583   9.560   7.810   8.469 -0.1451  0.0356 -0.3296
  224loPI   C4B 3584   9.976   7.937   8.542  0.1610 -0.2101 -0.1405
  225loPI    C1 3585   4.355  10.271  10.242  0.0060  0.0038 -0.2361
  225loPI    C2 3586   4.098  10.095   9.992  0.1094 -0.2102 -0.1940
  225loPI    C3 3587   3.974  10.393  10.229  0.0194  0.0211 -0.5244
  225loPI   PO4 3588   4.537  10.299  10.064  0.1691 -0.0383 -0.6033
  225loPI   GL1 3589   4.365  10.334   9.642 -0.1672 -0.1431 -0.1090
  225loPI   GL2 3590   4.683  10.561   9.617  0.0754 -0.1350  0.0051
  225loPI   C1A 3591   4.161  10.500   9.262 -0.3018  0.4927 -0.0728
  225loPI   C2A 3592   4.169  10.549   8.886 -0.0339  0.2128 -0.3039
  225loPI   C3A 3593   4.526  10.801   8.591 -0.0168  0.1699  0.1643
  225loPI   C4A 3594   4.829  11.016   8.650 -0.0046 -0.1549 -0.0324
  225loPI   C5A 3595   5.275  10.923   8.592  0.2351 -0.2265 -0.2797
  225loPI   C6A 3596   5.255  10.811   8.154 -0.1520  0.4271 -0.0291
  225loPI   C1B 3597   4.673  10.200   9.266 -0.1958 -0.0350 -0.2567
  225loPI   C2B 3598   4.609  10.213   8.862 -0.1903  0.0199  0.1276
  225loPI   C3B 3599   4.692  10.345   8.512 -0.2281 -0.0698  0.2444
  225loPI   C4B 3600   4.833  10.633   8.238  0.0094 -0.0309  0.1324
  226loPI    C1 3601   0.958   0.502  10.171  0.0658  0.1593  0.0892
  226loPI    C2 3602   1.074   0.205  10.413 -0.0099 -0.0523 -0.1296
  226loPI    C3 3603   0.827   0.488  10.549  0.1585 -0.0201  0.1161
  226loPI   PO4 3604   0.946   0.316   9.899 -0.1034  0.0998  0.2100
  226loPI   GL1 3605   1.143   0.521   9.471 -0.2143 -0.1537 -0.1898
  226loPI   GL2 3606   0.860   0.514   9.409  0.0865 -0.0404  0.1470
  226loPI   C1A 3607   1.432   0.528   9.173  0.0650 -0.1969  0.0402
  226loPI   C2A 3608   1.375   0.711   8.781  0.1455  0.0017 -0.1257
  226loPI   C3A 3609   1.460   0.806   8.339  0.0887 -0.0712  0.2596
  226loPI   C4A 3610   1.673   0.652   8.109 -0.1209 -0.0656 -0.3492
  226loPI   C5A 3611   1.962   0.789   7.993  0.2611  0.0769 -0.0582
  226loPI   C6A 3612   2.231   0.569   7.664 -0.1288 -0.2549 -0.0793
  226loPI   C1B 3613   0.971   0.342   9.026 -0.3607 -0.1037  0.0816
  226loPI   C2B 3614   1.194   0.328   8.534  0.1238 -0.0670 -0.0001
  226loPI   C3B 3615   1.194   0.404   8.142  0.0381  0.0701  0.0762
  226loPI   C4B 3616   1.037   0.462   7.739 -0.2012 -0.0067  0.1071
  227loPI    C1 3617  17.163  13.704  10.029 -0.0071 -0.0005 -0.1864
  227loPI    C2 3618  17.308  13.608  10.389  0.0960  0.1005 -0.2005
  227loPI    C3 3619  17.244  13.992  10.295 -0.1648  0.0583 -0.2009
  227loPI   PO4 3620  17.320  13.573   9.876 -0.0239 -0.0328  0.1988
  227loPI   GL1 3621  17.564  13.575   9.511 -0.0542 -0.2168  0.2811
  227loPI   GL2 3622  17.469  13.850   9.347  0.0435 -0.1814  0.1300
  227loPI   C1A 3623  17.636  13.353   9.161 -0.0850 -0.2076  0.0933
  227loPI   C2A 3624  17.434  13.048   8.890  0.0305 -0.1057  0.2013
  227loPI   C3A 3625  17.589  13.081   8.499  0.1548 -0.0570  0.0643
  227loPI   C4A 3626  18.070  13.032   8.510  0.3155 -0.0166  0.2243
  227loPI   C5A 3627  18.309  13.051   8.168  0.0274 -0.1832 -0.1303
  227loPI   C6A 3628  18.624  12.964   7.947  0.2538  0.1729 -0.0921
  227loPI   C1B 3629  17.413  14.020   8.977  0.1902  0.2749 -0.0050
  227loPI   C2B 3630  17.427  14.164   8.536 -0.1714 -0.0597  0.0140
  227loPI   C3B 3631  17.094  14.351   8.243  0.1276 -0.1203 -0.0686
  227loPI   C4B 3632  17.137  14.490   7.890  0.1651 -0.0090 -0.2379
  228loPI    C1 3633  12.015  16.896  10.257  0.0016 -0.0723  0.1536
  228loPI    C2 3634  12.339  16.965  10.481  0.0344  0.0352  0.0740
  228loPI    C3 3635  12.051  17.241  10.456 -0.0324 -0.0326  0.0916
  228loPI   PO4 3636  12.113  16.958   9.935  0.2235  0.0145  0.1988
  228loPI   GL1 3637  12.182  16.917   9.553 -0.0711 -0.1241  0.3284
  228loPI   GL2 3638  12.195  16.594   9.266 -0.0308 -0.0540 -0.2135
  228loPI   C1A 3639  12.250  17.160   9.081 -0.0472  0.1831 -0.0436
  228loPI   C2A 3640  12.258  17.329   8.582  0.1378  0.3353  0.2925
  228loPI   C3A 3641  12.091  17.712   8.497  0.0304  0.0374  0.1003
  228loPI   C4A 3642  12.016  17.675   8.089  0.4816  0.0417 -0.0218
  228loPI   C5A 3643  11.974  17.620   7.643 -0.1635 -0.2897 -0.0982
  228loPI   C6A 3644  11.738  17.877   7.397  0.0911 -0.0493 -0.0251
  228loPI   C1B 3645  12.142  16.486   8.902  0.0954 -0.3173  0.1385
  228loPI   C2B 3646  11.838  16.492   8.521  0.0251 -0.1930  0.1396
  228loPI   C3B 3647  11.781  16.039   8.312  0.2267  0.0866 -0.0690
  228loPI   C4B 3648  11.767  15.992   7.931  0.0867 -0.0337  0.3285
  229loPI    C1 3649   3.898   3.210  10.421  0.0826  0.0011 -0.0194
  229loPI    C2 3650   3.612   3.429  10.595  0.1180 -0.0837  0.1483
  229loPI    C3 3651   3.939   3.328  10.801  0.2446 -0.0340 -0.0253
  229loPI   PO4 3652   3.832   3.285  10.163  0.2622  0.0066 -0.0938
  229loPI   GL1 3653   3.639   3.293   9.606  0.0220 -0.0465 -0.0585
  229loPI   GL2 3654   3.692   3.564   9.411 -0.0140  0.2336 -0.0389
  229loPI   C1A 3655   3.853   3.048   9.272  0.1364  0.3755 -0.1242
  229loPI   C2A 3656   3.873   2.992   8.902 -0.1065 -0.4786 -0.4316
  229loPI   C3A 3657   3.945   2.964   8.418 -0.1345  0.2785  0.1464
  229loPI   C4A 3658   4.020   2.977   7.929  0.1695 -0.2704  0.1117
  229loPI   C5A 3659   4.411   2.946   7.751 -0.1227  0.3655  0.1602
  229loPI   C6A 3660   4.669   2.711   7.763 -0.0717  0.0575 -0.0621
  229loPI   C1B 3661   3.866   3.486   8.937 -0.1802  0.2439  0.1909
  229loPI   C2B 3662   4.023   3.607   8.476 -0.1965  0.0729  0.2225
  229loPI   C3B 3663   3.963   3.756   8.197 -0.0462 -0.3475  0.2374
  229loPI   C4B 3664   4.204   3.966   7.834  0.3574 -0.0991  0.2126
  230loPI    C1 3665  10.715   6.056   9.812  0.0055  0.0888 -0.0898
  230loPI    C2 3666  10.619   5.941  10.183  0.0792 -0.0968 -0.1272
  230loPI    C3 3667  10.694   6.326  10.106  0.2072 -0.0786  0.0817
  230loPI   PO4 3668  10.455   5.852   9.651 -0.3497  0.0784  0.0065
  230loPI   GL1 3669  10.430   5.625   9.333  0.1106  0.1733 -0.1289
  230loPI   GL2 3670  10.205   5.371   9.147  0.3840  0.0582 -0.0445
  230loPI   C1A 3671  10.381   5.798   8.939  0.3913  0.1870 -0.0880
  230loPI   C2A 3672  10.365   5.597   8.514  0.2114  0.1212 -0.1224
  230loPI   C3A 3673  10.289   5.270   8.149  0.0057  0.1583  0.2964
  230loPI   C4A 3674  10.398   4.874   7.806 -0.1242  0.1468  0.2573
  230loPI   C5A 3675  10.603   4.574   7.588  0.3083  0.5247 -0.0461
  230loPI   C6A 3676  10.462   4.259   7.271 -0.0071  0.2537 -0.1968
  230loPI   C1B 3677  10.048   5.401   8.843  0.0947 -0.3379 -0.1227
  230loPI   C2B 3678   9.879   5.264   8.496  0.0664  0.4369  0.2358
  230loPI   C3B 3679   9.589   5.244   8.245 -0.3488 -0.1073 -0.4711
  230loPI   C4B 3680   9.341   5.004   8.094  0.0904 -0.2944  0.2519
  231loPI    C1 3681  15.909   6.079   9.628  0.1031  0.0437 -0.0277
  231loPI    C2 3682  15.512   6.120   9.598  0.0526 -0.1573  0.3174
  231loPI    C3 3683  15.754   6.403   9.451 -0.2164 -0.0398  0.0926
  231loPI   PO4 3684  15.964   5.829   9.719  0.2460  0.2360 -0.0567
  231loPI   GL1 3685  15.757   5.646   9.385  0.1141 -0.2204  0.3352
  231loPI   GL2 3686  15.775   5.934   9.181  0.3374 -0.1543  0.0993
  231loPI   C1A 3687  15.691   5.485   8.979 -0.0304  0.2397  0.0440
  231loPI   C2A 3688  15.663   5.560   8.460 -0.1679  0.0736 -0.2795
  231loPI   C3A 3689  15.865   5.727   8.039  0.0157  0.0187  0.2350
  231loPI   C4A 3690  16.180   5.693   7.723  0.1471  0.1815 -0.2244
  231loPI   C5A 3691  16.349   5.517   7.317  0.2308  0.0415  0.3467
  231loPI   C6A 3692  16.781   5.665   7.161 -0.0919 -0.0242 -0.0677
  231loPI   C1B 3693  15.833   5.998   8.788  0.1026  0.0966  0.1938
  231loPI   C2B 3694  16.021   6.100   8.457  0.0805  0.0155 -0.1434
  231loPI   C3B 3695  16.020   6.344   8.076 -0.3542 -0.1572 -0.0025
  231loPI   C4B 3696  15.866   6.507   7.721 -0.0878  0.1131 -0.1440
  232loPI    C1 3697   0.405   0.274  10.326 -0.0556 -0.1929  0.0740
  232loPI    C2 3698   0.012   0.214  10.372 -0.1124 -0.1249 -0.2930
  232loPI    C3 3699   0.270  -0.083  10.444 -0.2384 -0.2034 -0.1602
  232loPI   PO4 3700   0.405   0.368  10.055  0.1403  0.2300 -0.1095
  232loPI   GL1 3701   0.464   0.271   9.621 -0.0769 -0.1752 -0.3408
  232loPI   GL2 3702   0.201   0.528   9.505  0.1633  0.2562 -0.0725
  232loPI   C1A 3703   0.469  -0.050   9.273 -0.2780  0.0466  0.0816
  232loPI   C2A 3704   0.430  -0.085   8.831  0.0393  0.1950 -0.0223
  232loPI   C3A 3705   0.457  -0.079   8.407 -0.0553 -0.0260  0.2181
  232loPI   C4A 3706   0.686  -0.196   8.082  0.1175  0.1289 -0.0457
  232loPI   C5A 3707   0.586  -0.394   7.741  0.1063  0.0909 -0.0571
  232loPI   C6A 3708   0.681  -0.435   7.338  0.2666 -0.0515 -0.1584
  232loPI   C1B 3709   0.332   0.380   9.067  0.1097 -0.2116 -0.2066
  232loPI   C2B 3710   0.638   0.400   8.642  0.4422  0.2389  0.1450
  232loPI   C3B 3711   0.938   0.684   8.484  0.2872 -0.2065 -0.0732
  232loPI   C4B 3712   0.930   0.800   8.118  0.1314 -0.0491 -0.1540
  233loPI    C1 3713  18.029   3.967  10.280 -0.0063 -0.0453  0.1471
  233loPI    C2 3714  17.979   4.345  10.400 -0.2919  0.0120 -0.1397
  233loPI    C3 3715  17.680   4.082  10.436 -0.0058 -0.2639  0.3135
  233loPI   PO4 3716  18.093   3.983   9.984 -0.0785  0.2621 -0.1844
  233loPI   GL1 3717  18.402   4.091   9.668 -0.0872  0.1247 -0.3215
  233loPI   GL2 3718  18.414   4.315   9.486  0.0566 -0.1360  0.2519
  233loPI   C1A 3719  18.440   3.804   9.379 -0.0248 -0.0500 -0.0241
  233loPI   C2A 3720  18.555   3.731   9.061  0.1035  0.1769  0.0879
  233loPI   C3A 3721  18.653   3.713   8.685  0.0091 -0.1299  0.0354
  233loPI   C4A 3722  18.641   3.627   8.231 -0.0919  0.0377  0.2531
  233loPI   C5A 3723  18.464   3.918   7.987 -0.0862 -0.1326  0.1504
  233loPI   C6A 3724  18.635   4.181   7.649 -0.0576  0.4997 -0.0557
  233loPI   C1B 3725  18.468   4.253   9.099  0.0810 -0.1918  0.0783
  233loPI   C2B 3726  18.536   4.328   8.705 -0.4089 -0.4126  0.2892
  233loPI   C3B 3727  18.678   4.380   8.202  0.0568 -0.2263 -0.0030
  233loPI   C4B 3728  18.814   4.566   7.874 -0.2882  0.1089 -0.1946
  234loPI    C1 3729  10.427  10.899   9.951 -0.0476 -0.1609  0.2163
  234loPI    C2 3730  10.587  10.718   9.632 -0.4013 -0.2084  0.0614
  234loPI    C3 3731  10.699  10.611  10.001  0.1283 -0.0435 -0.0436
  234loPI   PO4 3732  10.441  11.154   9.965 -0.4675 -0.1063  0.0752
  234loPI   GL1 3733  10.774  11.186   9.742 -0.0022 -0.0076 -0.1378
  234loPI   GL2 3734  11.047  11.215   9.713 -0.2449  0.0934  0.1211
  234loPI   C1A 3735  10.608  11.168   9.301 -0.0367  0.0299  0.0017
  234loPI   C2A 3736  10.573  10.979   8.918  0.4603  0.0582  0.0335
  234loPI   C3A 3737  10.360  10.994   8.575 -0.1047 -0.0352 -0.0925
  234loPI   C4A 3738  10.468  11.090   8.180  0.2242  0.0851  0.0414
  234loPI   C5A 3739  10.763  11.146   7.957 -0.1920 -0.0517  0.1535
  234loPI   C6A 3740  11.181  11.386   7.924  0.0450 -0.0551 -0.4743
  234loPI   C1B 3741  11.272  11.132   9.270  0.0833  0.3018  0.3058
  234loPI   C2B 3742  11.406  11.213   8.783  0.2321  0.1369 -0.1401
  234loPI   C3B 3743  11.512  11.404   8.432 -0.2901  0.1443  0.0622
  234loPI   C4B 3744  11.712  11.523   8.065 -0.1083 -0.3947 -0.0791
  235loPI    C1 3745  10.389  18.423  10.357  0.4487  0.2235  0.1298
  235loPI    C2 3746  10.078  18.510  10.593  0.0462 -0.1192 -0.2574
  235loPI    C3 3747  10.418  18.373  10.752 -0.0634  0.0743  0.1556
  235loPI   PO4 3748  10.275  18.379  10.112  0.1104  0.2418 -0.1450
  235loPI   GL1 3749  10.069  18.094   9.883 -0.0938 -0.1100 -0.0488
  235loPI   GL2 3750   9.952  18.293   9.713 -0.0106 -0.1413  0.0879
  235loPI   C1A 3751   9.968  17.877   9.411  0.4498 -0.3880 -0.0328
  235loPI   C2A 3752   9.960  17.899   8.970 -0.1074 -0.3304  0.2054
  235loPI   C3A 3753  10.019  18.099   8.734  0.0268  0.0438 -0.3560
  235loPI   C4A 3754  10.110  18.188   8.356  0.2248 -0.1663  0.0463
  235loPI   C5A 3755  10.155  18.392   7.963 -0.3635  0.1555  0.2646
  235loPI   C6A 3756  10.014  18.543   7.550 -0.0321  0.0326 -0.0528
  235loPI   C1B 3757  10.073  18.328   9.329  0.2536  0.0608 -0.0146
  235loPI   C2B 3758  10.312  18.414   9.034  0.0189 -0.0347 -0.2303
  235loPI   C3B 3759  10.393  18.521   8.692  0.2242  0.0435 -0.3237
  235loPI   C4B 3760  10.339  18.700   8.318 -0.0162  0.0168 -0.0120
  236loPI    C1 3761   2.047  11.128  10.331  0.1301 -0.0718 -0.0873
  236loPI    C2 3762   2.417  11.146  10.481  0.0513  0.3803  0.0709
  236loPI    C3 3763   2.118  10.999  10.703  0.1494 -0.0919 -0.0980
  236loPI   PO4 3764   2.072  11.240  10.037 -0.0625  0.0369  0.0227
  236loPI   GL1 3765   1.709  11.117   9.751 -0.1452  0.1087  0.3365
  236loPI   GL2 3766   1.841  10.838   9.712 -0.2679 -0.2992 -0.0355
  236loPI   C1A 3767   1.660  11.142   9.280  0.1195  0.1262 -0.0325
  236loPI   C2A 3768   1.692  10.927   8.987 -0.1273 -0.0663 -0.0973
  236loPI   C3A 3769   1.607  11.017   8.626  0.3171  0.0140  0.0239
  236loPI   C4A 3770   1.555  11.438   8.328  0.0339 -0.1510  0.2960
  236loPI   C5A 3771   1.765  11.551   7.951  0.0327 -0.0331  0.1908
  236loPI   C6A 3772   2.030  11.515   7.582 -0.0098  0.1446 -0.1856
  236loPI   C1B 3773   2.006  10.710   9.303 -0.2535 -0.2266  0.1863
  236loPI   C2B 3774   2.236  10.587   8.931 -0.4415 -0.0174  0.0208
  236loPI   C3B 3775   1.949  10.664   8.504 -0.0669 -0.2636 -0.0605
  236loPI   C4B 3776   1.980  10.472   8.056  0.1509  0.3372 -0.0147
  237loPI    C1 3777  15.308   6.230  10.271  0.0312  0.1339 -0.0836
  237loPI    C2 3778  14.980   6.241  10.500  0.0727  0.0687 -0.0205
  237loPI    C3 3779  15.330   6.129  10.657  0.1185  0.1042 -0.0962
  237loPI   PO4 3780  15.191   6.498  10.070 -0.1713  0.2619 -0.0977
  237loPI   GL1 3781  15.145   6.437   9.548 -0.0319 -0.2286 -0.2550
  237loPI   GL2 3782  15.152   6.200   9.217 -0.0373 -0.2715  0.0217
  237loPI   C1A 3783  15.467   6.673   9.190  0.0223  0.2800  0.0972
  237loPI   C2A 3784  15.726   6.536   8.886 -0.0071  0.0940 -0.1038
  237loPI   C3A 3785  15.920   6.645   8.495 -0.0047 -0.0645 -0.0572
  237loPI   C4A 3786  15.801   6.798   8.121 -0.1572  0.0584 -0.1537
  237loPI   C5A 3787  15.545   7.086   7.824  0.1460 -0.0411 -0.0547
  237loPI   C6A 3788  15.385   7.303   7.499 -0.1658  0.1128 -0.0690
  237loPI   C1B 3789  15.227   6.314   8.825  0.1331 -0.0173 -0.0106
  237loPI   C2B 3790  15.430   6.237   8.476 -0.0298 -0.0665 -0.1145
  237loPI   C3B 3791  15.558   6.125   8.069  0.1837 -0.0449 -0.2053
  237loPI   C4B 3792  15.826   6.030   7.660  0.0178  0.3696 -0.0359
  238loPI    C1 3793   6.882   7.001   9.923  0.0069 -0.0198 -0.0848
  238loPI    C2 3794   6.944   7.217  10.254 -0.0991  0.1180 -0.1540
  238loPI    C3 3795   7.025   7.373   9.895  0.0902 -0.0593 -0.1902
  238loPI   PO4 3796   6.981   6.783   9.901  0.1045 -0.2404 -0.6273
  238loPI   GL1 3797   7.306   6.883   9.668 -0.0227 -0.0465  0.0018
  238loPI   GL2 3798   7.227   6.562   9.504  0.0601  0.3254 -0.1087
  238loPI   C1A 3799   7.469   6.937   9.188 -0.0027  0.1193  0.2716
  238loPI   C2A 3800   7.511   6.916   8.696 -0.2282  0.1023  0.1566
  238loPI   C3A 3801   7.677   6.809   8.251  0.1919 -0.3143 -0.0842
  238loPI   C4A 3802   7.968   6.919   7.884  0.0277  0.0479 -0.3534
  238loPI   C5A 3803   7.992   6.782   7.516 -0.1497 -0.3116  0.1258
  238loPI   C6A 3804   8.244   6.986   7.179  0.0126 -0.0385 -0.0331
  238loPI   C1B 3805   7.365   6.463   9.186  0.0286  0.1275  0.2274
  238loPI   C2B 3806   7.323   6.443   8.905  0.0938  0.0578  0.0250
  238loPI   C3B 3807   7.519   6.403   8.567 -0.1998 -0.0839  0.0774
  238loPI   C4B 3808   7.341   6.416   8.145 -0.1275 -0.1604  0.0360
  239loPI    C1 3809  12.423   4.410  10.106  0.1660 -0.1796 -0.0003
  239loPI    C2 3810  12.804   4.303  10.161  0.1012 -0.3296  0.1652
  239loPI    C3 3811  12.672   4.653  10.302  0.2367 -0.1671 -0.1050
  239loPI   PO4 3812  12.275   4.431   9.777  0.0653 -0.0895  0.2440
  239loPI   GL1 3813  12.447   4.591   9.399 -0.2181 -0.0868 -0.0620
  239loPI   GL2 3814  12.412   4.198   9.348  0.1118 -0.2053 -0.0129
  239loPI   C1A 3815  12.627   4.795   9.117  0.0736  0.1072  0.1892
  239loPI   C2A 3816  12.549   5.043   8.746  0.0629  0.1820 -0.1992
  239loPI   C3A 3817  12.660   5.126   8.265  0.1107 -0.1975  0.0584
  239loPI   C4A 3818  12.892   5.347   7.900  0.0912  0.3058 -0.0418
  239loPI   C5A 3819  12.776   5.721   7.564  0.0889  0.0134 -0.1804
  239loPI   C6A 3820  12.376   5.638   7.298  0.0293  0.1505  0.0283
  239loPI   C1B 3821  12.404   4.428   8.873 -0.0877  0.0161 -0.2332
  239loPI   C2B 3822  12.666   4.579   8.521 -0.1662  0.3715 -0.0286
  239loPI   C3B 3823  12.664   4.526   8.091  0.1304  0.1132  0.4297
  239loPI   C4B 3824  12.559   4.722   7.699 -0.2913  0.0362  0.2474
  240loPI    C1 3825   7.547   9.908  10.501  0.1203 -0.2572  0.2171
  240loPI    C2 3826   7.279  10.078  10.745  0.0219 -0.1133  0.0120
  240loPI    C3 3827   7.667  10.072  10.845  0.0493  0.3653 -0.0405
  240loPI   PO4 3828   7.448   9.665  10.274  0.1599 -0.2441  0.0860
  240loPI   GL1 3829   7.409   9.556   9.860 -0.0993 -0.1569  0.2510
  240loPI   GL2 3830   7.676   9.635   9.801 -0.0302 -0.2670 -0.0469
  240loPI   C1A 3831   7.357   9.686   9.389 -0.0396 -0.2161  0.0727
  240loPI   C2A 3832   7.198   9.697   9.026 -0.1767  0.0068  0.0336
  240loPI   C3A 3833   7.187   9.464   8.688  0.2267 -0.0494  0.1017
  240loPI   C4A 3834   7.378   9.115   8.542  0.2649  0.0617 -0.0327
  240loPI   C5A 3835   7.818   8.962   8.675  0.0269  0.3083 -0.1861
  240loPI   C6A 3836   7.908   8.955   9.116  0.2907 -0.2753 -0.4039
  240loPI   C1B 3837   7.898   9.870   9.546 -0.2759 -0.0088 -0.0723
  240loPI   C2B 3838   7.795   9.842   9.122 -0.0358 -0.0107  0.0674
  240loPI   C3B 3839   7.914  10.113   8.795  0.2355 -0.0018 -0.0883
  240loPI   C4B 3840   8.102  10.165   8.468  0.3983  0.2565 -0.4839
  241loPI    C1 3841  14.011   9.432   9.790 -0.0320 -0.4084 -0.1852
  241loPI    C2 3842  13.912   9.158  10.064 -0.1066 -0.2616 -0.0640
  241loPI    C3 3843  13.867   9.547  10.145 -0.2864 -0.2214 -0.3462
  241loPI   PO4 3844  14.032   9.343   9.571  0.2223 -0.0483 -0.0771
  241loPI   GL1 3845  14.324   9.259   9.401 -0.1382  0.1526  0.3116
  241loPI   GL2 3846  14.580   9.282   9.357  0.1144  0.0421  0.1242
  241loPI   C1A 3847  14.280   8.967   9.047 -0.1971  0.0794 -0.1029
  241loPI   C2A 3848  14.382   9.136   8.572  0.2191 -0.0130 -0.1027
  241loPI   C3A 3849  14.522   9.186   8.178  0.3601  0.2248  0.2001
  241loPI   C4A 3850  14.678   9.183   7.782  0.1258  0.0309  0.2066
  241loPI   C5A 3851  14.889   8.935   7.584 -0.1167  0.1319 -0.3194
  241loPI   C6A 3852  14.777   8.395   7.771 -0.1444 -0.0319 -0.0595
  241loPI   C1B 3853  14.400   9.516   8.901 -0.0750  0.1999  0.2802
  241loPI   C2B 3854  14.284   9.603   8.529 -0.0190  0.1487  0.0181
  241loPI   C3B 3855  14.264   9.728   8.101 -0.2840  0.0102  0.2762
  241loPI   C4B 3856  14.433  10.169   8.026 -0.0227  0.0294  0.2915
  242loPI    C1 3857  15.130   0.974  10.035 -0.0710 -0.1173  0.1074
  242loPI    C2 3858  14.852   1.261  10.045  0.2163  0.1669  0.0818
  242loPI    C3 3859  14.904   1.023  10.362  0.0101  0.1741  0.1223
  242loPI   PO4 3860  15.157   0.730   9.704 -0.2109  0.0827  0.0820
  242loPI   GL1 3861  15.391   0.779   9.272  0.1688 -0.4083  0.0490
  242loPI   GL2 3862  15.296   0.403   9.129 -0.1025  0.1228 -0.2019
  242loPI   C1A 3863  15.384   1.093   8.925 -0.0601 -0.1978  0.0031
  242loPI   C2A 3864  15.213   1.255   8.536  0.1987  0.0961 -0.1505
  242loPI   C3A 3865  15.209   1.621   8.347 -0.2509  0.1099 -0.1232
  242loPI   C4A 3866  15.384   1.975   8.512  0.1576  0.0553 -0.0774
  242loPI   C5A 3867  15.303   2.353   8.685  0.3571  0.2441 -0.6535
  242loPI   C6A 3868  15.397   2.667   8.993 -0.0490 -0.1067  0.1011
  242loPI   C1B 3869  15.408   0.565   8.754 -0.3323  0.2438 -0.1742
  242loPI   C2B 3870  15.407   0.799   8.416 -0.1784  0.1443  0.1110
  242loPI   C3B 3871  15.224   1.075   8.084 -0.1948  0.1093 -0.0663
  242loPI   C4B 3872  15.308   1.081   7.668 -0.2735 -0.1958 -0.0789
  243loPI    C1 3873   3.205   7.041  10.352 -0.0423 -0.1398 -0.0162
  243loPI    C2 3874   3.554   6.858  10.417  0.1119  0.0266 -0.3544
  243loPI    C3 3875   3.400   7.098  10.697  0.2419 -0.0880 -0.1826
  243loPI   PO4 3876   3.217   7.120  10.158  0.0181  0.2724 -0.0202
  243loPI   GL1 3877   3.301   7.146   9.702 -0.0677  0.1384  0.0762
  243loPI   GL2 3878   3.055   7.304   9.697  0.1591  0.1014 -0.1848
  243loPI   C1A 3879   3.162   7.053   9.267  0.3316  0.2949  0.0967
  243loPI   C2A 3880   3.285   7.046   8.824 -0.0725  0.0041  0.2253
  243loPI   C3A 3881   3.537   7.080   8.461  0.1325 -0.1644 -0.1228
  243loPI   C4A 3882   3.552   7.150   8.065 -0.0384 -0.1532  0.1341
  243loPI   C5A 3883   3.769   7.071   7.741  0.0586  0.1783  0.2458
  243loPI   C6A 3884   3.755   6.893   7.290  0.0588  0.2002  0.0408
  243loPI   C1B 3885   2.938   7.510   9.296 -0.2745  0.0659 -0.0862
  243loPI   C2B 3886   2.780   7.483   8.877 -0.2356 -0.1991 -0.1997
  243loPI   C3B 3887   2.825   7.250   8.587  0.0761  0.0600  0.1506
  243loPI   C4B 3888   3.023   6.993   8.383 -0.1106  0.3037  0.0540
  244loPI    C1 3889   1.391  14.404   9.777 -0.0237  0.4513 -0.0767
  244loPI    C2 3890   1.318  14.195  10.110 -0.1269  0.1192 -0.3029
  244loPI    C3 3891   1.353  14.593  10.127 -0.0459  0.0984  0.1156
  244loPI   PO4 3892   1.271  14.330   9.664  0.1406  0.0488 -0.0039
  244loPI   GL1 3893   0.951  14.356   9.284 -0.3133  0.1150 -0.2077
  244loPI   GL2 3894   0.633  14.380   9.247 -0.2761 -0.1074  0.3663
  244loPI   C1A 3895   1.137  14.286   8.927 -0.0371  0.0035 -0.0103
  244loPI   C2A 3896   1.188  14.102   8.520 -0.0414  0.1678  0.4862
  244loPI   C3A 3897   0.983  13.697   8.500  0.0564  0.3276  0.0094
  244loPI   C4A 3898   0.946  13.250   8.291 -0.1122  0.0544  0.2297
  244loPI   C5A 3899   0.651  13.128   7.960 -0.1246 -0.0016 -0.0577
  244loPI   C6A 3900   0.328  13.001   7.765 -0.0097 -0.1107 -0.1472
  244loPI   C1B 3901   0.784  14.676   8.973 -0.1450  0.1982 -0.0708
  244loPI   C2B 3902   1.184  14.782   8.808 -0.2127 -0.1788  0.1055
  244loPI   C3B 3903   1.649  14.867   8.869 -0.1165 -0.3038 -0.2895
  244loPI   C4B 3904   1.833  15.184   8.698 -0.2975 -0.0789 -0.2343
  245loPI    C1 3905  12.286  18.365   9.932 -0.0907  0.0535 -0.0410
  245loPI    C2 3906  12.426  18.195  10.266 -0.0204 -0.1095 -0.1519
  245loPI    C3 3907  12.107  18.436  10.282  0.0571 -0.0184  0.0502
  245loPI   PO4 3908  12.442  18.409   9.800 -0.2036  0.0525 -0.3568
  245loPI   GL1 3909  12.554  18.682   9.498  0.0970 -0.2642 -0.2402
  245loPI   GL2 3910  12.373  18.945   9.455 -0.2598  0.0768  0.0845
  245loPI   C1A 3911  12.614  18.626   9.085  0.0683  0.0518  0.2606
  245loPI   C2A 3912  12.868  18.518   8.714  0.4642 -0.0585  0.2966
  245loPI   C3A 3913  13.083  18.790   8.334 -0.0949 -0.3395  0.4161
  245loPI   C4A 3914  13.284  18.902   7.934 -0.1873  0.2830  0.1116
  245loPI   C5A 3915  13.089  19.060   7.637  0.0157 -0.0549 -0.2310
  245loPI   C6A 3916  13.140  19.350   7.221  0.0615  0.0110 -0.1607
  245loPI   C1B 3917  12.233  18.977   8.997  0.0388 -0.0841  0.1170
  245loPI   C2B 3918  12.361  18.641   8.609  0.1240 -0.0979  0.4878
  245loPI   C3B 3919  12.545  18.679   8.226  0.1028  0.0131 -0.0238
  245loPI   C4B 3920  12.737  18.785   7.843  0.3083 -0.0248  0.8487
  246loPI    C1 3921  12.641   0.270   9.821  0.0337 -0.2719 -0.0942
  246loPI    C2 3922  12.730   0.450  10.167 -0.0458 -0.0068 -0.2097
  246loPI    C3 3923  12.722   0.051  10.146  0.1144 -0.0261  0.0540
  246loPI   PO4 3924  12.830   0.353   9.672 -0.1831  0.2512 -0.0251
  246loPI   GL1 3925  12.862   0.195   9.320  0.3792 -0.0398  0.1057
  246loPI   GL2 3926  13.062   0.396   9.143 -0.0109 -0.1463  0.1287
  246loPI   C1A 3927  12.791   0.101   8.953 -0.0223  0.1010  0.0353
  246loPI   C2A 3928  12.649   0.129   8.545  0.1085 -0.2900  0.0104
  246loPI   C3A 3929  12.685   0.279   8.079 -0.1231 -0.1328 -0.1300
  246loPI   C4A 3930  12.596   0.270   7.500  0.1123 -0.1640 -0.2045
  246loPI   C5A 3931  12.376   0.245   7.196 -0.2169 -0.2116 -0.2530
  246loPI   C6A 3932  12.254  -0.041   6.857 -0.2360 -0.2588 -0.0316
  246loPI   C1B 3933  12.967   0.523   8.748 -0.0595  0.1362 -0.1398
  246loPI   C2B 3934  12.974   0.479   8.389  0.2255  0.1534  0.1176
  246loPI   C3B 3935  13.158   0.480   8.050 -0.0681  0.1970  0.2692
  246loPI   C4B 3936  13.509   0.523   7.749  0.1252  0.2887  0.3595
  247loPI    C1 3937  18.000  11.346   9.833  0.1158  0.1287  0.1180
  247loPI    C2 3938  17.845  11.256  10.190 -0.0554  0.1185  0.0423
  247loPI    C3 3939  17.613  11.247   9.864  0.1794 -0.2131 -0.1218
  247loPI   PO4 3940  18.106  11.594   9.891  0.0715  0.0960 -0.2096
  247loPI   GL1 3941  18.505  11.890   9.637  0.1027  0.2551 -0.0269
  247loPI   GL2 3942  18.233  11.792   9.457 -0.0498 -0.0648  0.0309
  247loPI   C1A 3943  18.643  12.074   9.293 -0.0363 -0.3120  0.0551
  247loPI   C2A 3944  18.484  12.266   8.926 -0.3149  0.0281 -0.1680
  247loPI   C3A 3945  18.557  12.104   8.478 -0.0742 -0.0570  0.1961
  247loPI   C4A 3946  18.573  12.102   8.111 -0.0227  0.0356 -0.0326
  247loPI   C5A 3947  18.410  12.124   7.791  0.1601 -0.0276  0.0088
  247loPI   C6A 3948  18.186  11.916   7.480 -0.1434 -0.0040 -0.0682
  247loPI   C1B 3949  18.319  11.756   9.028  0.0686 -0.2364  0.1110
  247loPI   C2B 3950  18.231  11.724   8.544  0.0661  0.2455 -0.0141
  247loPI   C3B 3951  18.300  11.634   8.088  0.3077  0.0020  0.2193
  247loPI   C4B 3952  18.353  11.470   7.699 -0.1325 -0.0974  0.1330
  248loPI    C1 3953  14.785  16.304   9.732 -0.2366  0.0126 -0.2343
  248loPI    C2 3954  14.533  16.542   9.532 -0.1790  0.3271  0.0571
  248loPI    C3 3955  14.495  16.499   9.928 -0.2363 -0.2174  0.0003
  248loPI   PO4 3956  14.763  16.086   9.612 -0.1426 -0.2651  0.2228
  248loPI   GL1 3957  14.779  16.060   9.272  0.1476  0.1194  0.0576
  248loPI   GL2 3958  14.494  15.886   9.138  0.1841 -0.3314 -0.3912
  248loPI   C1A 3959  14.666  16.333   8.954  0.0301 -0.2011 -0.3897
  248loPI   C2A 3960  14.659  16.355   8.594 -0.4077 -0.2891  0.2078
  248loPI   C3A 3961  14.837  16.193   8.240 -0.4247 -0.1999 -0.1554
  248loPI   C4A 3962  15.154  16.245   7.949 -0.1432  0.1068 -0.1505
  248loPI   C5A 3963  15.339  16.089   7.634 -0.1828  0.2072  0.0190
  248loPI   C6A 3964  15.591  16.069   7.196 -0.1050  0.1137  0.0130
  248loPI   C1B 3965  14.880  15.876   8.730  0.3562 -0.2841 -0.3065
  248loPI   C2B 3966  14.998  15.695   8.440 -0.4095 -0.0213  0.0693
  248loPI   C3B 3967  15.342  15.802   8.148  0.2079 -0.0231  0.1035
  248loPI   C4B 3968  15.659  16.048   8.046 -0.0962  0.0791  0.0069
  249loPI    C1 3969  15.887  13.191  10.118 -0.0345  0.0366 -0.1689
  249loPI    C2 3970  15.662  12.887  10.248 -0.0432  0.0315 -0.1959
  249loPI    C3 3971  15.626  13.248  10.416  0.0072  0.0039 -0.1260
  249loPI   PO4 3972  15.952  13.165   9.884 -0.1563  0.1126 -0.2868
  249loPI   GL1 3973  15.885  13.085   9.460 -0.0093 -0.0735 -0.1569
  249loPI   GL2 3974  16.154  13.250   9.306  0.0290 -0.0901 -0.2188
  249loPI   C1A 3975  15.965  12.815   9.140  0.1004  0.3633  0.1244
  249loPI   C2A 3976  15.948  12.846   8.662  0.2320  0.1440 -0.2391
  249loPI   C3A 3977  15.710  12.779   8.375 -0.3588  0.0043  0.0956
  249loPI   C4A 3978  15.534  12.840   7.934  0.0068  0.0002 -0.3705
  249loPI   C5A 3979  15.189  12.811   7.743  0.1039  0.2861  0.2477
  249loPI   C6A 3980  14.923  12.569   7.542 -0.0209  0.0143 -0.0355
  249loPI   C1B 3981  16.160  13.441   8.832 -0.0740  0.1266  0.3493
  249loPI   C2B 3982  16.079  13.548   8.350  0.1530  0.0087  0.1459
  249loPI   C3B 3983  16.201  13.495   7.918 -0.0591 -0.0646 -0.1010
  249loPI   C4B 3984  16.530  13.285   7.541 -0.1956  0.1453  0.1547
  250loPI    C1 3985  17.001  10.652  10.121  0.1007  0.0169  0.1193
  250loPI    C2 3986  16.891  10.565  10.495  0.2198  0.1023  0.1745
  250loPI    C3 3987  17.256  10.465  10.365  0.1707  0.0526  0.0741
  250loPI   PO4 3988  16.841  10.623   9.992  0.2335 -0.2473 -0.0459
  250loPI   GL1 3989  17.000  10.664   9.602  0.2114 -0.1641  0.1814
  250loPI   GL2 3990  17.324  10.831   9.664 -0.1471 -0.2005 -0.1642
  250loPI   C1A 3991  16.853  10.929   9.265  0.0926 -0.1402  0.2568
  250loPI   C2A 3992  16.760  10.910   8.863 -0.0721  0.0497  0.0076
  250loPI   C3A 3993  16.525  10.537   8.812  0.0735  0.1215 -0.0929
  250loPI   C4A 3994  16.532  10.220   8.573  0.2812  0.2815  0.1937
  250loPI   C5A 3995  16.643   9.881   8.393 -0.1491  0.0023 -0.0236
  250loPI   C6A 3996  16.602   9.728   7.943 -0.3732  0.2906  0.1528
  250loPI   C1B 3997  17.335  10.732   9.218  0.0097 -0.1656 -0.1683
  250loPI   C2B 3998  17.280  10.861   8.838 -0.0676 -0.0954  0.0159
  250loPI   C3B 3999  17.523  10.764   8.482  0.0883 -0.0024 -0.0200
  250loPI   C4B 4000  17.670  10.439   8.470  0.0746 -0.0532 -0.2296
  251loPI    C1 4001   1.377   7.914  10.473 -0.0992 -0.2746  0.0083
  251loPI    C2 4002   1.675   7.647  10.490  0.0864 -0.0640  0.1005
  251loPI    C3 4003   1.451   7.719  10.814 -0.1075 -0.2677  0.0140
  251loPI   PO4 4004   1.212   7.869  10.271 -0.2067  0.0593 -0.0274
  251loPI   GL1 4005   1.104   8.010   9.904 -0.0207  0.0745 -0.2070
  251loPI   GL2 4006   1.078   7.681   9.862 -0.3208 -0.0011 -0.0660
  251loPI   C1A 4007   1.012   8.091   9.511  0.0915 -0.0581  0.0653
  251loPI   C2A 4008   1.070   8.070   9.113  0.0121 -0.2476 -0.2669
  251loPI   C3A 4009   1.006   7.917   8.611  0.0671 -0.2326  0.1583
  251loPI   C4A 4010   1.154   7.610   8.278 -0.0921 -0.0455  0.0210
  251loPI   C5A 4011   1.288   7.316   7.867 -0.0650 -0.2441 -0.1665
  251loPI   C6A 4012   1.206   7.270   7.370  0.3085 -0.0548 -0.0391
  251loPI   C1B 4013   1.210   7.644   9.437  0.0888  0.2420  0.1310
  251loPI   C2B 4014   1.199   7.453   8.987  0.0307  0.0632 -0.1890
  251loPI   C3B 4015   1.407   7.045   8.888  0.0613 -0.0259  0.2071
  251loPI   C4B 4016   1.572   6.564   8.904 -0.2910 -0.2507 -0.0045
  252loPI    C1 4017   6.315  16.115  10.166 -0.2725  0.1506 -0.0633
  252loPI    C2 4018   6.285  16.311  10.514  0.2057 -0.0844  0.1191
  252loPI    C3 4019   6.263  15.912  10.507 -0.0431 -0.0695 -0.1568
  252loPI   PO4 4020   6.521  16.228   9.982  0.1340 -0.1287 -0.5786
  252loPI   GL1 4021   6.586  16.409   9.599  0.1209 -0.4569  0.1261
  252loPI   GL2 4022   6.372  16.244   9.447  0.0480  0.1811 -0.4158
  252loPI   C1A 4023   6.936  16.455   9.311 -0.0679  0.1946  0.0450
  252loPI   C2A 4024   7.056  16.422   8.882 -0.2884  0.2433  0.3385
  252loPI   C3A 4025   7.144  16.392   8.510 -0.0294  0.0510 -0.0475
  252loPI   C4A 4026   7.167  16.597   8.037 -0.0517 -0.0519  0.2201
  252loPI   C5A 4027   7.079  16.842   7.525 -0.0637  0.0088  0.1857
  252loPI   C6A 4028   7.014  17.049   7.274  0.2837  0.3488  0.4115
  252loPI   C1B 4029   6.527  16.322   9.071 -0.1412  0.0759  0.1006
  252loPI   C2B 4030   6.664  16.406   8.619  0.0667  0.0228 -0.1069
  252loPI   C3B 4031   6.583  16.623   8.344  0.0188  0.2831  0.1238
  252loPI   C4B 4032   6.666  16.688   7.937 -0.3260 -0.2565  0.0860
  253loPI    C1 4033  11.505  18.918   9.895  0.0287 -0.0594  0.0828
  253loPI    C2 4034  11.503  19.262   9.691  0.0685 -0.0767  0.0530
  253loPI    C3 4035  11.575  19.263  10.084  0.0813 -0.0524  0.0506
  253loPI   PO4 4036  11.450  18.781   9.705 -0.2306 -0.1147 -0.0179
  253loPI   GL1 4037  11.202  18.745   9.292  0.0346 -0.0310 -0.2004
  253loPI   GL2 4038  11.239  19.137   9.246  0.0133  0.2306  0.1631
  253loPI   C1A 4039  11.365  18.528   8.868 -0.2135  0.1231  0.0245
  253loPI   C2A 4040  11.346  18.432   8.543  0.0828  0.0424 -0.3618
  253loPI   C3A 4041  11.523  18.433   8.273  0.0510  0.0699 -0.0819
  253loPI   C4A 4042  11.554  18.512   7.860 -0.2090  0.2791 -0.2261
  253loPI   C5A 4043  11.763  18.410   7.574 -0.1064 -0.2411 -0.0933
  253loPI   C6A 4044  12.034  18.720   7.485 -0.0055 -0.0175  0.3012
  253loPI   C1B 4045  11.068  19.062   8.919  0.2617 -0.1443  0.0253
  253loPI   C2B 4046  11.180  18.940   8.495  0.1660 -0.0376  0.2730
  253loPI   C3B 4047  11.235  18.874   8.128  0.2074  0.4864 -0.0838
  253loPI   C4B 4048  11.137  18.809   7.678 -0.1121 -0.1064 -0.1362
  254loPI    C1 4049  10.855  17.387  10.095 -0.2246 -0.2681 -0.1127
  254loPI    C2 4050  10.545  17.209  10.275 -0.0742 -0.0018  0.4327
  254loPI    C3 4051  10.602  17.602  10.318 -0.0168  0.0699 -0.1954
  254loPI   PO4 4052  10.899  17.309   9.805 -0.0011 -0.0678 -0.2326
  254loPI   GL1 4053  10.918  16.954   9.480  0.1747 -0.2800 -0.1834
  254loPI   GL2 4054  11.214  16.791   9.403 -0.1110  0.1161 -0.1445
  254loPI   C1A 4055  10.663  17.123   9.136  0.0971  0.0075  0.0874
  254loPI   C2A 4056  10.575  17.063   8.720  0.1884 -0.2468 -0.3162
  254loPI   C3A 4057  10.517  16.897   8.280 -0.1657 -0.2256  0.3505
  254loPI   C4A 4058  10.065  16.930   7.998 -0.2304  0.0989  0.1206
  254loPI   C5A 4059   9.770  16.803   8.165  0.1003 -0.0164  0.2908
  254loPI   C6A 4060   9.496  16.687   8.344  0.0111  0.0442 -0.2926
  254loPI   C1B 4061  11.097  16.980   8.904  0.4343 -0.3411 -0.1928
  254loPI   C2B 4062  11.009  16.788   8.448 -0.1741  0.0900 -0.1864
  254loPI   C3B 4063  11.135  16.737   7.884 -0.0120  0.1242 -0.0011
  254loPI   C4B 4064  11.238  16.570   7.378  0.2512 -0.1801 -0.1248
  255loPI    C1 4065  16.926   9.679  10.317  0.0948 -0.0097 -0.1177
  255loPI    C2 4066  17.214   9.642  10.592 -0.0917 -0.0762  0.0716
  255loPI    C3 4067  16.873   9.437  10.631 -0.1474 -0.0337 -0.1750
  255loPI   PO4 4068  16.988   9.626  10.121  0.1300 -0.0875 -0.2688
  255loPI   GL1 4069  17.184   9.826   9.681  0.0132 -0.1488 -0.1189
  255loPI   GL2 4070  17.307   9.492   9.651  0.3577  0.1652  0.1845
  255loPI   C1A 4071  17.472   9.918   9.247 -0.1524  0.2444 -0.1590
  255loPI   C2A 4072  17.615   9.835   8.850  0.1338  0.1671  0.3065
  255loPI   C3A 4073  17.559   9.953   8.485  0.0501  0.0458 -0.2720
  255loPI   C4A 4074  17.603   9.983   8.028 -0.2546 -0.0594  0.0295
  255loPI   C5A 4075  17.915  10.319   7.966  0.0958  0.1516 -0.0110
  255loPI   C6A 4076  17.775  10.699   8.019 -0.1225  0.1192  0.0376
  255loPI   C1B 4077  17.007   9.579   9.291  0.2948  0.1167  0.0133
  255loPI   C2B 4078  16.962   9.763   8.943  0.1421 -0.2577 -0.1885
  255loPI   C3B 4079  17.085   9.773   8.659 -0.3508  0.1741 -0.2940
  255loPI   C4B 4080  17.132   9.849   8.214 -0.0496  0.0623  0.3469
  256loPI    C1 4081   0.749  18.470  10.195  0.0042 -0.0905  0.2282
  256loPI    C2 4082   0.740  18.870  10.178  0.0430 -0.0956  0.0807
  256loPI    C3 4083   0.797  18.685  10.529  0.1171  0.0299  0.1352
  256loPI   PO4 4084   0.901  18.352   9.998  0.0638  0.0145 -0.1045
  256loPI   GL1 4085   1.070  18.469   9.533  0.0507 -0.1099  0.0092
  256loPI   GL2 4086   1.444  18.617   9.543  0.0701  0.0491  0.1964
  256loPI   C1A 4087   1.066  18.334   9.094 -0.1010  0.1622 -0.0574
  256loPI   C2A 4088   1.088  18.112   8.657  0.0679  0.1858  0.0684
  256loPI   C3A 4089   0.963  17.718   8.407 -0.1820  0.3144  0.3261
  256loPI   C4A 4090   0.761  17.469   8.165  0.3518 -0.0564 -0.1021
  256loPI   C5A 4091   0.877  17.353   7.778  0.2952  0.0568 -0.4160
  256loPI   C6A 4092   1.141  17.080   7.387  0.1071  0.1274 -0.1923
  256loPI   C1B 4093   1.544  18.484   9.137 -0.4474  0.0141 -0.2059
  256loPI   C2B 4094   1.606  18.689   8.750 -0.1539 -0.1430 -0.1834
  256loPI   C3B 4095   1.692  18.861   8.411 -0.2308  0.1804  0.1150
  256loPI   C4B 4096   1.589  19.139   8.069 -0.1158  0.0565  0.1236
  257loPI    C1 4097  12.880  15.807  10.243 -0.0099  0.2640  0.1471
  257loPI    C2 4098  13.058  15.853  10.599  0.2081 -0.0161  0.0780
  257loPI    C3 4099  13.059  15.495  10.419 -0.2146  0.0365 -0.0408
  257loPI   PO4 4100  12.997  15.971  10.014  0.2454 -0.2268 -0.3504
  257loPI   GL1 4101  12.945  16.130   9.597 -0.0172 -0.2955  0.2248
  257loPI   GL2 4102  13.263  16.056   9.349  0.1579  0.0520 -0.0054
  257loPI   C1A 4103  12.848  15.841   9.205  0.5546  0.1318  0.0644
  257loPI   C2A 4104  12.774  15.768   8.687  0.1177  0.1174  0.0520
  257loPI   C3A 4105  12.794  15.850   8.305 -0.2305 -0.4030  0.0532
  257loPI   C4A 4106  12.459  15.946   7.919 -0.3030 -0.1053  0.4164
  257loPI   C5A 4107  12.221  15.936   7.642 -0.1079  0.0876 -0.2371
  257loPI   C6A 4108  11.736  15.854   7.406  0.1379  0.0871  0.3772
  257loPI   C1B 4109  13.568  15.971   9.015  0.0143 -0.1315 -0.1181
  257loPI   C2B 4110  13.714  15.772   8.640 -0.0895 -0.1054  0.1104
  257loPI   C3B 4111  13.812  16.019   8.307 -0.1231  0.0394  0.0673
  257loPI   C4B 4112  14.061  15.989   7.946  0.1426 -0.2432 -0.1969
  258loPI    C1 4113   4.330   2.916  10.454 -0.1736 -0.1011  0.0897
  258loPI    C2 4114   4.490   3.247  10.612 -0.1634 -0.1108  0.0998
  258loPI    C3 4115   4.423   2.928  10.843 -0.0012 -0.1806  0.0515
  258loPI   PO4 4116   4.445   2.851  10.235  0.0194 -0.0518  0.2163
  258loPI   GL1 4117   4.642   2.991   9.896  0.1143  0.3217  0.2608
  258loPI   GL2 4118   4.548   2.643   9.789 -0.0315 -0.2563 -0.0696
  258loPI   C1A 4119   4.625   3.008   9.467  0.2308 -0.2511 -0.0845
  258loPI   C2A 4120   4.823   2.958   9.048  0.2055  0.2227  0.0355
  258loPI   C3A 4121   4.862   3.184   8.593 -0.3689  0.3776 -0.0613
  258loPI   C4A 4122   5.173   3.278   8.279  0.0968  0.5081 -0.2839
  258loPI   C5A 4123   5.571   3.228   8.222 -0.2024  0.1142  0.1694
  258loPI   C6A 4124   5.860   3.052   8.010 -0.4041 -0.0078 -0.0265
  258loPI   C1B 4125   4.345   2.621   9.470 -0.0199 -0.0093  0.2776
  258loPI   C2B 4126   4.257   2.767   9.096 -0.1903  0.2063  0.1180
  258loPI   C3B 4127   4.363   2.793   8.664  0.4679  0.0574  0.1728
  258loPI   C4B 4128   4.639   2.767   8.352  0.1125 -0.1901  0.1447
  259loPI    C1 4129   5.602   2.340  10.295  0.0670  0.1394  0.1872
  259loPI    C2 4130   5.791   2.566  10.024 -0.0334  0.0571  0.0476
  259loPI    C3 4131   5.838   2.641  10.414  0.1268  0.1645  0.0086
  259loPI   PO4 4132   5.609   2.059  10.219  0.0184 -0.1010 -0.1485
  259loPI   GL1 4133   5.734   1.901   9.673 -0.0604 -0.3187 -0.1003
  259loPI   GL2 4134   5.790   2.141   9.795  0.0565  0.0417  0.1280
  259loPI   C1A 4135   5.413   1.637   9.469  0.1833 -0.0269  0.1605
  259loPI   C2A 4136   5.200   1.393   9.297  0.0169 -0.1426  0.1243
  259loPI   C3A 4137   5.162   1.474   8.953  0.0203 -0.1530  0.4472
  259loPI   C4A 4138   5.256   1.653   8.473 -0.1471 -0.0085  0.2116
  259loPI   C5A 4139   5.047   1.686   8.117 -0.0140  0.0343  0.0139
  259loPI   C6A 4140   4.650   1.759   7.818 -0.2424  0.0344 -0.1995
  259loPI   C1B 4141   5.807   2.468   9.523  0.2403 -0.2150  0.0566
  259loPI   C2B 4142   5.882   2.624   9.219  0.0401  0.0208  0.1473
  259loPI   C3B 4143   5.851   2.861   8.905  0.2807 -0.0044  0.0088
  259loPI   C4B 4144   6.103   2.794   8.668 -0.0787  0.0252 -0.1356
  260loPI    C1 4145   8.945   3.088  10.275  0.1399 -0.0922 -0.1768
  260loPI    C2 4146   9.323   3.012  10.168  0.1164 -0.2778 -0.1306
  260loPI    C3 4147   9.151   2.800  10.461 -0.0174 -0.1807 -0.1378
  260loPI   PO4 4148   8.748   3.078  10.018  0.0748 -0.0523 -0.0636
  260loPI   GL1 4149   9.014   3.132   9.618  0.2345 -0.1271 -0.2497
  260loPI   GL2 4150   9.268   2.977   9.678 -0.0594  0.2347  0.2952
  260loPI   C1A 4151   8.891   2.945   9.250 -0.3245 -0.0949  0.3001
  260loPI   C2A 4152   8.813   2.554   9.055 -0.3194 -0.0425  0.0095
  260loPI   C3A 4153   8.657   2.504   8.725 -0.2234  0.0156  0.1657
  260loPI   C4A 4154   8.818   2.473   8.416  0.1550  0.1401 -0.0870
  260loPI   C5A 4155   9.102   2.470   8.011 -0.1051  0.1563 -0.1948
  260loPI   C6A 4156   9.206   2.171   7.606 -0.0997 -0.0898  0.2086
  260loPI   C1B 4157   9.476   3.247   9.390 -0.1595 -0.0413  0.0272
  260loPI   C2B 4158   9.465   3.096   8.884  0.1256 -0.2057  0.3401
  260loPI   C3B 4159   9.252   2.841   8.557 -0.0691 -0.1298 -0.0705
  260loPI   C4B 4160   8.888   2.959   8.307  0.1551 -0.1608 -0.1878
  261loPI    C1 4161   5.801   1.100  10.308  0.0461  0.2114 -0.0285
  261loPI    C2 4162   5.876   1.014  10.692  0.1448 -0.0487 -0.1043
  261loPI    C3 4163   5.690   1.355  10.596 -0.1922 -0.1405  0.1989
  261loPI   PO4 4164   5.660   0.993  10.159 -0.0262 -0.2914  0.1108
  261loPI   GL1 4165   5.480   0.873   9.821  0.2731  0.2634 -0.1642
  261loPI   GL2 4166   5.251   1.043   9.626 -0.1035 -0.1183  0.2148
  261loPI   C1A 4167   5.705   0.808   9.392  0.0767 -0.1598  0.3350
  261loPI   C2A 4168   5.655   0.671   8.946  0.0539  0.1986 -0.1188
  261loPI   C3A 4169   5.540   0.909   8.656  0.4152 -0.1141  0.3567
  261loPI   C4A 4170   5.229   1.146   8.328 -0.1279  0.0605 -0.0162
  261loPI   C5A 4171   5.408   1.284   7.932 -0.1111  0.3388  0.2170
  261loPI   C6A 4172   5.181   1.659   7.595 -0.0513  0.2319 -0.0189
  261loPI   C1B 4173   5.316   0.970   9.131 -0.0244  0.3268 -0.0962
  261loPI   C2B 4174   5.052   1.023   8.794 -0.3130 -0.0640 -0.0523
  261loPI   C3B 4175   4.863   1.356   8.559  0.1697 -0.0965  0.0836
  261loPI   C4B 4176   4.673   1.695   8.414 -0.1135  0.0462 -0.2129
  262loPI    C1 4177   9.199   0.749  10.245 -0.2956 -0.0287  0.0682
  262loPI    C2 4178   9.128   0.372  10.132  0.1270 -0.1574  0.2142
  262loPI    C3 4179   9.026   0.493  10.499  0.0731 -0.1558  0.1986
  262loPI   PO4 4180   9.149   0.850   9.959  0.0927 -0.0786 -0.2076
  262loPI   GL1 4181   9.341   0.930   9.539  0.1120  0.1477  0.0315
  262loPI   GL2 4182   9.282   1.174   9.379  0.2445  0.1950  0.0118
  262loPI   C1A 4183   9.115   0.686   9.223  0.1832  0.0489  0.3200
  262loPI   C2A 4184   8.985   0.619   8.742  0.2567 -0.0912  0.2379
  262loPI   C3A 4185   9.072   0.843   8.435 -0.3245 -0.3140  0.3527
  262loPI   C4A 4186   9.124   0.999   8.047  0.1811  0.2433 -0.0043
  262loPI   C5A 4187   8.819   1.202   7.707 -0.0586 -0.0147 -0.0176
  262loPI   C6A 4188   8.548   1.668   7.755  0.0313 -0.3161 -0.0314
  262loPI   C1B 4189   9.603   1.195   9.079 -0.0513  0.0511  0.0420
  262loPI   C2B 4190   9.970   1.044   8.772 -0.0680 -0.0776  0.2405
  262loPI   C3B 4191  10.068   0.741   8.400 -0.4333  0.3040  0.1165
  262loPI   C4B 4192  10.130   0.798   7.944  0.0201 -0.1983 -0.0256
  263loPI    C1 4193   3.021   0.610  10.342  0.0995 -0.1181  0.1909
  263loPI    C2 4194   2.851   0.625  10.704 -0.1012  0.0270  0.0924
  263loPI    C3 4195   3.249   0.596  10.671 -0.0787  0.0535  0.3240
  263loPI   PO4 4196   2.790   0.702  10.206 -0.0104 -0.2370  0.0715
  263loPI   GL1 4197   2.716   0.867   9.759  0.0597 -0.1631 -0.0261
  263loPI   GL2 4198   2.710   1.047   9.341 -0.0655  0.0295  0.1607
  263loPI   C1A 4199   2.604   0.586   9.314 -0.0773 -0.3438  0.1123
  263loPI   C2A 4200   2.753   0.526   8.846 -0.1740 -0.0110  0.0396
  263loPI   C3A 4201   2.894   0.845   8.461 -0.1877 -0.0146 -0.1379
  263loPI   C4A 4202   3.250   1.067   8.041 -0.1650  0.1097  0.2021
  263loPI   C5A 4203   3.271   1.438   7.952 -0.0509 -0.1929  0.0641
  263loPI   C6A 4204   3.116   1.942   7.962  0.0412  0.0069 -0.0067
  263loPI   C1B 4205   2.982   0.909   8.954  0.0009 -0.0215  0.2684
  263loPI   C2B 4206   3.395   0.687   8.713  0.0171  0.0089 -0.1725
  263loPI   C3B 4207   3.636   0.546   8.325  0.0553 -0.0656 -0.2557
  263loPI   C4B 4208   3.618   0.611   8.033  0.1236  0.1349  0.0052
  264loPI    C1 4209   0.486  14.988   9.694  0.3524 -0.0983  0.1602
  264loPI    C2 4210   0.526  14.590   9.685 -0.0996 -0.1491  0.1616
  264loPI    C3 4211   0.415  14.772  10.023 -0.1855 -0.0533  0.0821
  264loPI   PO4 4212   0.642  15.031   9.547 -0.0274  0.0773 -0.2310
  264loPI   GL1 4213   0.719  15.127   9.148 -0.0338 -0.0901 -0.2168
  264loPI   GL2 4214   0.486  15.389   8.924  0.0412  0.0979  0.3046
  264loPI   C1A 4215   0.867  15.170   8.690 -0.2052 -0.0330 -0.0495
  264loPI   C2A 4216   0.950  15.068   8.339 -0.1360  0.0286  0.1158
  264loPI   C3A 4217   0.766  15.061   7.916  0.1143 -0.0764 -0.0802
  264loPI   C4A 4218   0.405  15.285   7.499 -0.1046 -0.1494  0.0522
  264loPI   C5A 4219   0.234  15.440   7.199 -0.0576  0.0516 -0.1261
  264loPI   C6A 4220  -0.084  15.698   6.962  0.1134  0.1676  0.0783
  264loPI   C1B 4221   0.709  15.648   8.660  0.0261 -0.1424 -0.3395
  264loPI   C2B 4222   0.993  15.562   8.435  0.1170 -0.4989 -0.0098
  264loPI   C3B 4223   1.228  15.488   8.069 -0.1021 -0.0107  0.1125
  264loPI   C4B 4224   1.623  15.475   7.855  0.2168 -0.2636 -0.3571
  265loPI    C1 4225   1.220  10.533  10.371 -0.1792 -0.1180 -0.1020
  265loPI    C2 4226   1.480  10.233  10.415  0.0838  0.1819  0.4988
  265loPI    C3 4227   1.206  10.304  10.698 -0.3845  0.1355  0.0710
  265loPI   PO4 4228   1.252  10.512  10.063 -0.2175 -0.0313 -0.1813
  265loPI   GL1 4229   1.355  10.522   9.658 -0.0712  0.0216  0.1467
  265loPI   GL2 4230   1.226  10.781   9.420 -0.2109  0.0636  0.1687
  265loPI   C1A 4231   1.390  10.381   9.203  0.1151  0.0857  0.0681
  265loPI   C2A 4232   1.192  10.145   8.908  0.0359  0.0380 -0.2074
  265loPI   C3A 4233   1.122  10.068   8.544  0.1643  0.0867 -0.0330
  265loPI   C4A 4234   1.007  10.139   8.087  0.1588 -0.2234 -0.0278
  265loPI   C5A 4235   0.753  10.186   7.746 -0.0252  0.0774  0.0939
  265loPI   C6A 4236   0.597  10.510   7.455  0.1322 -0.2858  0.1097
  265loPI   C1B 4237   1.224  10.760   8.947 -0.0221 -0.0727 -0.2008
  265loPI   C2B 4238   1.083  10.934   8.626  0.0111 -0.0392 -0.2185
  265loPI   C3B 4239   1.066  11.023   8.264  0.0610 -0.1039 -0.0820
  265loPI   C4B 4240   0.948  11.216   7.908  0.1385 -0.1866  0.1629
  266loPI    C1 4241   8.812   2.188  10.036  0.0966 -0.0204  0.1029
  266loPI    C2 4242   8.503   2.012  10.220 -0.0958  0.0590 -0.1382
  266loPI    C3 4243   8.870   1.990  10.379 -0.2514  0.1056  0.2389
  266loPI   PO4 4244   8.685   2.153   9.768  0.1259  0.1220  0.3113
  266loPI   GL1 4245   8.884   1.882   9.484  0.1902  0.0264  0.0078
  266loPI   GL2 4246   8.644   1.856   9.376  0.0819  0.0141  0.3226
  266loPI   C1A 4247   8.732   2.070   8.981  0.0226  0.0953 -0.0196
  266loPI   C2A 4248   8.775   1.950   8.494 -0.1250  0.0076 -0.1585
  266loPI   C3A 4249   8.856   1.898   8.076 -0.1593 -0.0182  0.1308
  266loPI   C4A 4250   9.120   1.683   7.838 -0.1982  0.0752 -0.0024
  266loPI   C5A 4251   9.509   1.578   7.547  0.1248  0.2644 -0.3616
  266loPI   C6A 4252   9.817   1.129   7.706 -0.1410  0.2106  0.1831
  266loPI   C1B 4253   8.629   1.527   9.113  0.0319 -0.1594  0.2684
  266loPI   C2B 4254   8.475   1.518   8.665 -0.0470  0.1967  0.0757
  266loPI   C3B 4255   8.484   1.470   8.267 -0.0830  0.0103  0.4083
  266loPI   C4B 4256   8.312   1.254   7.801 -0.0790  0.1698 -0.4064
  267loPI    C1 4257   0.103  18.019   9.946 -0.0415  0.2214 -0.0870
  267loPI    C2 4258   0.234  17.802  10.256 -0.0754 -0.1137 -0.3020
  267loPI    C3 4259  -0.127  17.973  10.270  0.0292  0.0931 -0.0541
  267loPI   PO4 4260   0.176  17.876   9.686  0.4458  0.1329  0.2424
  267loPI   GL1 4261   0.213  17.932   9.317  0.1510 -0.0026 -0.1392
  267loPI   GL2 4262  -0.015  18.094   9.256  0.1845  0.0119  0.0710
  267loPI   C1A 4263   0.377  17.999   9.035  0.1684  0.0002 -0.1356
  267loPI   C2A 4264   0.512  17.938   8.597  0.0559  0.1126 -0.0467
  267loPI   C3A 4265   0.537  17.921   8.184 -0.1585  0.3159 -0.2469
  267loPI   C4A 4266   0.723  18.097   7.883 -0.3998  0.3910 -0.0622
  267loPI   C5A 4267   1.107  18.381   7.706 -0.3455 -0.0896 -0.1660
  267loPI   C6A 4268   1.236  18.559   7.360  0.0067 -0.0478 -0.0001
  267loPI   C1B 4269  -0.061  17.911   8.790  0.1319  0.2166  0.2563
  267loPI   C2B 4270  -0.115  17.831   8.381  0.2601 -0.3556 -0.0207
  267loPI   C3B 4271  -0.223  17.953   7.940 -0.0764  0.1053 -0.3296
  267loPI   C4B 4272  -0.191  18.345   7.671  0.2663 -0.0747  0.0956
  268loPI    C1 4273  13.626  11.400  10.129 -0.2290 -0.0726 -0.0301
  268loPI    C2 4274  13.346  11.116  10.159 -0.1684 -0.1149  0.1464
  268loPI    C3 4275  13.455  11.325  10.482 -0.1471  0.0473  0.0356
  268loPI   PO4 4276  13.839  11.249   9.952  0.0574 -0.2857 -0.3001
  268loPI   GL1 4277  14.080  11.207   9.579  0.1847  0.2144  0.2172
  268loPI   GL2 4278  14.349  11.381   9.586  0.0150  0.0783 -0.1040
  268loPI   C1A 4279  13.780  11.286   9.266  0.0918 -0.4396 -0.3796
  268loPI   C2A 4280  13.842  11.286   8.881 -0.1892  0.0289  0.1271
  268loPI   C3A 4281  14.068  11.323   8.496 -0.1283 -0.1356 -0.3524
  268loPI   C4A 4282  14.274  11.384   8.204 -0.0393  0.3909 -0.3582
  268loPI   C5A 4283  14.414  11.453   7.877  0.0823 -0.0438 -0.0486
  268loPI   C6A 4284  14.249  11.563   7.457  0.0501  0.0418 -0.2544
  268loPI   C1B 4285  14.285  11.484   9.177  0.0053  0.2757  0.0516
  268loPI   C2B 4286  14.469  11.516   8.710 -0.1081 -0.0120 -0.1362
  268loPI   C3B 4287  14.561  11.747   8.345  0.3693  0.2161 -0.2385
  268loPI   C4B 4288  14.499  11.925   7.768  0.4952  0.1913  0.1050
  269loPI    C1 4289  16.854  15.006   9.734  0.0619  0.0498 -0.0192
  269loPI    C2 4290  16.932  14.851  10.095  0.0537  0.1370  0.0203
  269loPI    C3 4291  17.115  14.705   9.770 -0.2034 -0.1802  0.0131
  269loPI   PO4 4292  16.506  14.965   9.607 -0.0787 -0.1997 -0.0740
  269loPI   GL1 4293  16.347  14.923   9.114  0.1578 -0.3338  0.1408
  269loPI   GL2 4294  16.049  14.906   9.233  0.1957  0.2948 -0.1874
  269loPI   C1A 4295  16.330  14.899   8.622 -0.0135  0.0629  0.1415
  269loPI   C2A 4296  16.227  14.962   8.165  0.0417  0.0889 -0.0125
  269loPI   C3A 4297  16.102  15.114   7.817  0.2296 -0.1596 -0.0709
  269loPI   C4A 4298  16.036  15.138   7.483  0.1160  0.3490  0.1591
  269loPI   C5A 4299  15.704  14.953   7.181 -0.0195 -0.1725  0.3331
  269loPI   C6A 4300  15.460  14.960   6.804  0.1813  0.2063  0.1845
  269loPI   C1B 4301  15.883  14.852   8.809 -0.2530 -0.0085 -0.2453
  269loPI   C2B 4302  15.889  14.586   8.455 -0.2739  0.1854 -0.1343
  269loPI   C3B 4303  16.093  14.449   7.990  0.1286 -0.1709  0.0590
  269loPI   C4B 4304  16.157  14.631   7.649  0.1037 -0.4056  0.0877
  270loPI    C1 4305   7.996  17.738  10.470 -0.0517 -0.0818  0.0150
  270loPI    C2 4306   8.303  17.956  10.337  0.0860 -0.2899 -0.0133
  270loPI    C3 4307   8.292  17.837  10.719 -0.0652 -0.1067  0.0412
  270loPI   PO4 4308   7.910  17.627  10.169 -0.2407 -0.0833  0.0319
  270loPI   GL1 4309   8.115  17.360   9.793  0.1987  0.3613 -0.3275
  270loPI   GL2 4310   8.381  17.616   9.815 -0.2709 -0.0871 -0.1003
  270loPI   C1A 4311   7.876  17.202   9.506  0.0322 -0.0449  0.0766
  270loPI   C2A 4312   7.661  17.069   9.220 -0.0778  0.1043  0.1334
  270loPI   C3A 4313   7.793  17.038   8.764  0.3190  0.2001  0.1049
  270loPI   C4A 4314   7.831  17.009   8.269  0.0285  0.1887  0.0426
  270loPI   C5A 4315   7.966  17.221   7.897 -0.2945  0.0609  0.0011
  270loPI   C6A 4316   8.271  17.526   7.792 -0.1055 -0.0338  0.4487
  270loPI   C1B 4317   8.533  17.560   9.365  0.0451  0.2920  0.1375
  270loPI   C2B 4318   8.365  17.568   8.889 -0.1197 -0.0978  0.0242
  270loPI   C3B 4319   8.399  17.955   8.646  0.0556 -0.0282 -0.1227
  270loPI   C4B 4320   8.692  18.265   8.715 -0.1132  0.0134 -0.0207
  271loPI    C1 4321   7.950   2.835  10.131  0.0133 -0.1137  0.0706
  271loPI    C2 4322   7.945   3.111  10.421 -0.1067 -0.0793  0.0366
  271loPI    C3 4323   7.827   2.736  10.498 -0.0688 -0.0885  0.0504
  271loPI   PO4 4324   8.109   2.843   9.998  0.3758 -0.0986  0.0138
  271loPI   GL1 4325   8.232   2.639   9.465  0.3112  0.0865 -0.0641
  271loPI   GL2 4326   8.406   2.337   9.406 -0.1300  0.1375 -0.0518
  271loPI   C1A 4327   8.384   2.906   9.063 -0.0666  0.0038  0.0467
  271loPI   C2A 4328   8.290   2.841   8.733 -0.0183 -0.0678 -0.1063
  271loPI   C3A 4329   8.300   2.609   8.216 -0.1514  0.3691  0.1504
  271loPI   C4A 4330   8.552   2.592   7.954 -0.3047 -0.0158 -0.2801
  271loPI   C5A 4331   8.730   2.357   7.634  0.2717 -0.0934  0.2982
  271loPI   C6A 4332   8.792   1.959   7.412 -0.0645 -0.1437 -0.2327
  271loPI   C1B 4333   8.287   2.373   8.981 -0.0458 -0.3397  0.1852
  271loPI   C2B 4334   7.993   2.435   8.628 -0.0326  0.0250  0.0803
  271loPI   C3B 4335   7.778   2.642   8.359  0.0238  0.1329  0.0754
  271loPI   C4B 4336   7.437   2.818   8.059  0.0639  0.0518 -0.0147
  272loPI    C1 4337   5.448   8.829   9.649 -0.2180 -0.2245 -0.0675
  272loPI    C2 4338   5.380   8.904  10.036 -0.0922 -0.0776 -0.0730
  272loPI    C3 4339   5.081   8.930   9.771 -0.1841 -0.2032  0.0173
  272loPI   PO4 4340   5.735   9.056   9.686 -0.1810  0.0721 -0.2382
  272loPI   GL1 4341   6.122   9.080   9.386 -0.2562 -0.0175  0.0038
  272loPI   GL2 4342   6.278   9.310   9.405 -0.3042  0.3037  0.1520
  272loPI   C1A 4343   5.877   8.822   9.004 -0.0534 -0.1747  0.3187
  272loPI   C2A 4344   5.637   8.726   8.596 -0.1815 -0.0439 -0.5273
  272loPI   C3A 4345   5.311   8.593   8.318 -0.1633  0.2008  0.2873
  272loPI   C4A 4346   5.120   8.511   7.914 -0.0729  0.3897  0.1632
  272loPI   C5A 4347   4.776   8.241   7.873  0.1958  0.2016 -0.1025
  272loPI   C6A 4348   4.513   8.094   8.216 -0.1922  0.0351  0.1393
  272loPI   C1B 4349   6.307   9.173   8.919  0.0793 -0.0030 -0.3203
  272loPI   C2B 4350   6.139   9.034   8.604  0.1749  0.2237 -0.2935
  272loPI   C3B 4351   6.030   9.278   8.291  0.1153 -0.0709 -0.1933
  272loPI   C4B 4352   5.908   9.364   7.918  0.3021 -0.3185 -0.1709
  273loPI    C1 4353   7.437  18.581  10.498  0.0101 -0.1301 -0.0101
  273loPI    C2 4354   7.344  18.912  10.703  0.0535 -0.0687 -0.0890
  273loPI    C3 4355   7.586  18.637  10.865 -0.0659 -0.1118  0.0183
  273loPI   PO4 4356   7.242  18.521  10.412  0.0996 -0.3760 -0.1199
  273loPI   GL1 4357   6.973  18.511  10.112  0.0487  0.0826 -0.2139
  273loPI   GL2 4358   6.987  18.163  10.057  0.0725  0.0548  0.1863
  273loPI   C1A 4359   7.133  18.709   9.767 -0.0915  0.0411  0.0826
  273loPI   C2A 4360   7.015  18.704   9.328 -0.1661 -0.0182  0.1823
  273loPI   C3A 4361   6.912  18.703   8.868 -0.0048  0.2891 -0.4784
  273loPI   C4A 4362   6.879  18.526   8.448  0.4410 -0.0764 -0.1043
  273loPI   C5A 4363   6.678  18.412   8.118 -0.0853  0.1389  0.2831
  273loPI   C6A 4364   6.816  18.010   7.878 -0.2785  0.0055  0.0525
  273loPI   C1B 4365   7.238  18.229   9.641 -0.0339 -0.1406 -0.0495
  273loPI   C2B 4366   7.199  18.253   9.255 -0.0596 -0.1216  0.0699
  273loPI   C3B 4367   7.193  18.303   8.827  0.0387 -0.1817 -0.3044
  273loPI   C4B 4368   7.471  18.347   8.573 -0.0775 -0.2942 -0.1976
  274loPI    C1 4369  18.251  12.604  10.164 -0.2256  0.0158  0.3065
  274loPI    C2 4370  18.368  12.225  10.216 -0.1785 -0.0100  0.0270
  274loPI    C3 4371  18.596  12.525  10.351  0.0969 -0.0664 -0.2998
  274loPI   PO4 4372  18.215  12.636   9.888  0.0490  0.0610  0.2813
  274loPI   GL1 4373  18.234  12.873   9.480 -0.1036  0.2126 -0.1861
  274loPI   GL2 4374  18.548  12.998   9.485  0.0424  0.0020 -0.1374
  274loPI   C1A 4375  18.286  12.804   8.934 -0.2157 -0.1746  0.0965
  274loPI   C2A 4376  18.276  12.565   8.576 -0.0782  0.0124  0.0128
  274loPI   C3A 4377  18.360  12.527   8.104  0.1587  0.1365  0.3721
  274loPI   C4A 4378  18.278  12.607   7.800  0.1080 -0.1038  0.4200
  274loPI   C5A 4379  18.517  12.465   7.442 -0.2318 -0.2014 -0.1623
  274loPI   C6A 4380  18.546  12.086   7.114 -0.2312 -0.2116  0.0643
  274loPI   C1B 4381  18.595  13.302   9.159  0.0520  0.2104 -0.1034
  274loPI   C2B 4382  18.570  13.121   8.747  0.0744  0.0643  0.1081
  274loPI   C3B 4383  18.822  12.776   8.601  0.2390  0.2347  0.2316
  274loPI   C4B 4384  18.808  12.537   8.259  0.1307  0.0542 -0.0241
  275loPI    C1 4385  11.684  10.252   9.856 -0.4122  0.0025  0.0530
  275loPI    C2 4386  11.811   9.873   9.861 -0.1536  0.0892  0.2944
  275loPI    C3 4387  11.924  10.126  10.150 -0.2048  0.3893  0.0560
  275loPI   PO4 4388  11.566  10.307   9.598  0.3853  0.3329 -0.0956
  275loPI   GL1 4389  11.247  10.291   9.370  0.0541  0.0396 -0.1319
  275loPI   GL2 4390  11.161   9.891   9.279 -0.1046 -0.0632 -0.0558
  275loPI   C1A 4391  11.189  10.270   8.861 -0.1895  0.1957 -0.0523
  275loPI   C2A 4392  11.030  10.312   8.464 -0.0527 -0.2542  0.0859
  275loPI   C3A 4393  10.921  10.432   7.995 -0.1769  0.0126 -0.1648
  275loPI   C4A 4394  10.728  10.695   7.741  0.0494  0.2950  0.0216
  275loPI   C5A 4395  10.323  10.991   7.622  0.0268  0.1008  0.0316
  275loPI   C6A 4396   9.891  11.081   7.573 -0.1611  0.0600  0.2946
  275loPI   C1B 4397  11.169   9.721   8.919  0.0718  0.1572 -0.1160
  275loPI   C2B 4398  11.084   9.822   8.440 -0.4159  0.2561 -0.0771
  275loPI   C3B 4399  11.157   9.917   8.041 -0.1854 -0.0769  0.4671
  275loPI   C4B 4400  11.099  10.044   7.648 -0.0019 -0.1803 -0.1087
  276loPI    C1 4401   5.194  10.935  10.043  0.0998  0.2337 -0.2104
  276loPI    C2 4402   5.576  11.020   9.960  0.1875 -0.1422 -0.2066
  276loPI    C3 4403   5.487  10.757  10.248 -0.0779 -0.0024 -0.1575
  276loPI   PO4 4404   5.095  10.808   9.746  0.3536  0.0447  0.2987
  276loPI   GL1 4405   5.164  10.456   9.408 -0.2410 -0.0112 -0.1415
  276loPI   GL2 4406   5.178  10.226   9.216 -0.1958 -0.4451  0.1565
  276loPI   C1A 4407   5.546  10.517   9.034  0.0618  0.1878  0.1724
  276loPI   C2A 4408   5.672  10.518   8.683  0.0752  0.0245 -0.1325
  276loPI   C3A 4409   5.754  10.752   8.312 -0.0787  0.2312  0.2713
  276loPI   C4A 4410   5.769  11.011   7.966 -0.0530 -0.2172 -0.3800
  276loPI   C5A 4411   5.561  11.274   7.774  0.2265 -0.1744 -0.1672
  276loPI   C6A 4412   5.475  11.612   7.754  0.0798  0.0235  0.0594
  276loPI   C1B 4413   5.042   9.940   8.840 -0.1773  0.2893  0.0841
  276loPI   C2B 4414   4.972   9.963   8.383  0.2874  0.0788 -0.2136
  276loPI   C3B 4415   5.065  10.153   8.071 -0.2299 -0.0778  0.0188
  276loPI   C4B 4416   4.755  10.259   7.828 -0.1492 -0.0520  0.0505
  277loPI    C1 4417  17.510   3.343  10.315  0.1670 -0.0538  0.0459
  277loPI    C2 4418  17.812   3.563  10.456  0.0215  0.0775  0.1572
  277loPI    C3 4419  17.435   3.682  10.515 -0.0471  0.0560 -0.2137
  277loPI   PO4 4420  17.594   3.305  10.081  0.2205  0.1051  0.0367
  277loPI   GL1 4421  17.467   3.428   9.680 -0.3263 -0.2051  0.0020
  277loPI   GL2 4422  17.768   3.282   9.658  0.1831 -0.1193  0.0557
  277loPI   C1A 4423  17.586   3.579   9.245  0.1354 -0.0131  0.0621
  277loPI   C2A 4424  17.580   3.653   8.800 -0.0225  0.1035  0.3400
  277loPI   C3A 4425  17.695   3.573   8.440 -0.0760 -0.0173  0.1659
  277loPI   C4A 4426  17.708   3.377   8.018  0.0202  0.2827 -0.2297
  277loPI   C5A 4427  17.621   3.036   7.693  0.2324 -0.2777  0.0693
  277loPI   C6A 4428  17.549   2.848   7.432 -0.1924 -0.0685 -0.0030
  277loPI   C1B 4429  18.112   3.499   9.183  0.0367  0.0121 -0.2397
  277loPI   C2B 4430  18.360   3.306   8.833  0.1333 -0.2231  0.0648
  277loPI   C3B 4431  18.306   3.267   8.300  0.4150  0.0725 -0.1878
  277loPI   C4B 4432  18.079   2.964   7.962 -0.0889  0.0355  0.0674
  278loPI    C1 4433  10.452   0.223   9.978  0.1774 -0.0469 -0.0590
  278loPI    C2 4434  10.397   0.613  10.048 -0.1181 -0.0523 -0.2466
  278loPI    C3 4435  10.657   0.406  10.269 -0.0940  0.2097 -0.0240
  278loPI   PO4 4436  10.354   0.218   9.692  0.1412  0.1820  0.1510
  278loPI   GL1 4437  10.172   0.112   9.329  0.1551  0.1006 -0.0998
  278loPI   GL2 4438  10.313  -0.191   9.384 -0.1777 -0.3334  0.4357
  278loPI   C1A 4439  10.250   0.008   8.856  0.4745 -0.0859 -0.0765
  278loPI   C2A 4440  10.153   0.162   8.433 -0.0606 -0.0333 -0.0178
  278loPI   C3A 4441  10.301   0.356   8.015 -0.0656 -0.3324  0.1973
  278loPI   C4A 4442  10.332   0.426   7.632  0.1153  0.1503  0.0598
  278loPI   C5A 4443  10.433   0.603   7.257 -0.0743 -0.0763 -0.1334
  278loPI   C6A 4444  10.744   0.716   6.982  0.0759  0.1639  0.1058
  278loPI   C1B 4445  10.650  -0.174   9.005  0.0579  0.3522  0.0606
  278loPI   C2B 4446  10.684  -0.016   8.617 -0.1009 -0.0088 -0.0183
  278loPI   C3B 4447  10.707   0.136   8.258 -0.0123 -0.1377  0.0271
  278loPI   C4B 4448  10.693   0.524   8.137  0.0517 -0.0588 -0.0677
  279loPI    C1 4449  10.945  15.641  10.285 -0.1005 -0.0553  0.0649
  279loPI    C2 4450  10.771  15.748  10.629  0.0216  0.1151  0.0749
  279loPI    C3 4451  11.130  15.894  10.533 -0.0191  0.0816 -0.1334
  279loPI   PO4 4452  10.853  15.668  10.084 -0.0041 -0.1004  0.1603
  279loPI   GL1 4453  10.988  15.336   9.735  0.0615 -0.2551  0.0848
  279loPI   GL2 4454  10.760  15.588   9.613  0.1249  0.0089 -0.1772
  279loPI   C1A 4455  10.927  15.224   9.223 -0.0740 -0.1758 -0.3578
  279loPI   C2A 4456  10.940  15.139   8.811 -0.1016  0.1064 -0.1053
  279loPI   C3A 4457  11.009  15.167   8.388 -0.3662 -0.0365  0.0322
  279loPI   C4A 4458  10.760  15.266   7.984  0.0550  0.0639  0.0478
  279loPI   C5A 4459  10.756  15.278   7.515 -0.0195 -0.7337  0.0198
  279loPI   C6A 4460  11.174  15.172   7.342  0.0012 -0.0790  0.3364
  279loPI   C1B 4461  10.461  15.872   9.444  0.1306 -0.0258 -0.0070
  279loPI   C2B 4462  10.266  16.167   9.334  0.0905 -0.1901  0.2973
  279loPI   C3B 4463  10.057  16.282   9.041  0.0672 -0.0823  0.0956
  279loPI   C4B 4464   9.791  16.595   8.738 -0.2551  0.0658 -0.1459
  280loPI    C1 4465   2.517   4.877  10.084 -0.0891 -0.0681  0.1667
  280loPI    C2 4466   2.886   4.742  10.008 -0.0643  0.2461 -0.3125
  280loPI    C3 4467   2.709   4.656  10.356  0.3563 -0.1245 -0.1818
  280loPI   PO4 4468   2.417   4.765   9.837 -0.0160 -0.2640 -0.0031
  280loPI   GL1 4469   2.621   4.553   9.609  0.0408  0.3118 -0.2947
  280loPI   GL2 4470   2.977   4.510   9.590 -0.2231  0.3274 -0.3227
  280loPI   C1A 4471   2.429   4.463   9.210  0.0888 -0.2794 -0.0086
  280loPI   C2A 4472   2.556   4.382   8.787  0.3302 -0.1856 -0.3351
  280loPI   C3A 4473   2.594   4.217   8.424  0.1489 -0.0931  0.1288
  280loPI   C4A 4474   2.829   4.274   7.964  0.0507  0.2250  0.1901
  280loPI   C5A 4475   3.082   4.021   7.594 -0.1544  0.0174  0.4091
  280loPI   C6A 4476   3.117   4.258   7.244 -0.0730 -0.3700  0.4070
  280loPI   C1B 4477   2.937   4.504   9.165 -0.2301 -0.2692  0.0543
  280loPI   C2B 4478   3.073   4.674   8.719 -0.0870  0.3228 -0.2777
  280loPI   C3B 4479   2.834   4.642   8.365 -0.0640  0.1353 -0.2142
  280loPI   C4B 4480   2.706   4.852   7.981  0.3292  0.1858 -0.1051
  281loPI    C1 4481   9.777  10.417   9.957 -0.2731 -0.0583  0.3253
  281loPI    C2 4482  10.017  10.234  10.219  0.1672 -0.2845 -0.2152
  281loPI    C3 4483   9.924  10.055   9.874 -0.2050  0.1056 -0.3263
  281loPI   PO4 4484   9.555  10.489  10.034 -0.0204  0.0817 -0.1169
  281loPI   GL1 4485   9.312  10.547   9.734  0.0574 -0.1605  0.1364
  281loPI   GL2 4486   9.297  10.176   9.618  0.0693  0.0510 -0.0714
  281loPI   C1A 4487   9.247  10.773   9.260 -0.0645  0.1069 -0.0848
  281loPI   C2A 4488   9.294  11.132   8.980 -0.1806 -0.0732  0.1386
  281loPI   C3A 4489   8.997  11.320   8.711 -0.1035 -0.1365 -0.2544
  281loPI   C4A 4490   9.005  11.331   8.390 -0.1249 -0.0014  0.1344
  281loPI   C5A 4491   9.427  11.318   8.088 -0.0187  0.1725 -0.1151
  281loPI   C6A 4492   9.786  11.560   7.770 -0.0477 -0.0361  0.0616
  281loPI   C1B 4493   9.457  10.350   9.229  0.1480  0.3944  0.0300
  281loPI   C2B 4494   9.717  10.284   8.911  0.0256 -0.2595 -0.0603
  281loPI   C3B 4495   9.942  10.319   8.432  0.2785  0.0786  0.0007
  281loPI   C4B 4496  10.124  10.158   8.101  0.1506 -0.3339 -0.1745
  282loPI    C1 4497  13.685   1.410   9.764 -0.1564  0.1250 -0.0473
  282loPI    C2 4498  13.435   1.696   9.890 -0.0656  0.1452  0.0894
  282loPI    C3 4499  13.773   1.623  10.091 -0.0700 -0.0336  0.0339
  282loPI   PO4 4500  13.523   1.117   9.675  0.2106 -0.0094  0.2862
  282loPI   GL1 4501  13.573   1.034   9.252  0.1151 -0.2695 -0.3691
  282loPI   GL2 4502  13.494   0.749   9.232  0.0978 -0.2943  0.1357
  282loPI   C1A 4503  13.522   1.232   8.778  0.1291 -0.3174 -0.3900
  282loPI   C2A 4504  13.435   1.300   8.413 -0.0003 -0.0435 -0.0048
  282loPI   C3A 4505  13.872   1.196   8.028 -0.2075  0.1181 -0.1669
  282loPI   C4A 4506  14.012   1.248   7.651  0.1311 -0.1204  0.0617
  282loPI   C5A 4507  13.939   1.342   7.192 -0.6623  0.0573  0.0260
  282loPI   C6A 4508  14.023   1.391   6.822 -0.0773  0.2728 -0.1201
  282loPI   C1B 4509  13.441   0.758   8.754 -0.2073  0.0301 -0.0667
  282loPI   C2B 4510  13.463   0.765   8.398 -0.1687  0.3261  0.1474
  282loPI   C3B 4511  13.438   0.959   7.961 -0.1681  0.2472  0.3741
  282loPI   C4B 4512  13.147   0.766   7.547 -0.0009 -0.2910  0.0794
  283loPI    C1 4513  10.371   9.914  10.056  0.0898 -0.0112 -0.1906
  283loPI    C2 4514  10.581  10.197  10.245  0.1491 -0.0268 -0.2328
  283loPI    C3 4515  10.548   9.832  10.405 -0.1618  0.0828 -0.0382
  283loPI   PO4 4516  10.427   9.931   9.842 -0.1195  0.1941 -0.5598
  283loPI   GL1 4517  10.287  10.014   9.560 -0.2839  0.1049 -0.0056
  283loPI   GL2 4518  10.272   9.726   9.391  0.2044  0.0846 -0.1996
  283loPI   C1A 4519  10.242  10.281   9.157  0.2439 -0.1191  0.1655
  283loPI   C2A 4520  10.186  10.123   8.794 -0.1712 -0.0150  0.0057
  283loPI   C3A 4521  10.261   9.780   8.417 -0.0151 -0.0264 -0.0978
  283loPI   C4A 4522  10.233   9.564   8.020 -0.1291 -0.0973  0.2813
  283loPI   C5A 4523  10.076   9.791   7.755  0.1329  0.0364  0.1310
  283loPI   C6A 4524  10.051   9.770   7.364 -0.2759 -0.0628 -0.2974
  283loPI   C1B 4525   9.830   9.860   9.345 -0.0631  0.0744  0.0175
  283loPI   C2B 4526   9.448   9.803   9.190  0.2520  0.0449  0.0241
  283loPI   C3B 4527   9.234  10.057   8.874 -0.0578 -0.0486 -0.1810
  283loPI   C4B 4528   9.057  10.221   8.516 -0.0626 -0.1148 -0.0553
  284loPI    C1 4529   9.778  17.102  10.265 -0.0360 -0.2936 -0.2547
  284loPI    C2 4530   9.870  16.851  10.562 -0.0640  0.1055  0.1007
  284loPI    C3 4531   9.521  16.814  10.370 -0.0563 -0.1410  0.1309
  284loPI   PO4 4532   9.998  17.135  10.030 -0.3613  0.0215  0.2109
  284loPI   GL1 4533   9.945  17.045   9.598  0.1121  0.0515 -0.0210
  284loPI   GL2 4534  10.040  17.337   9.588 -0.0676 -0.1948 -0.3036
  284loPI   C1A 4535   9.644  17.247   9.322  0.2767  0.2911  0.0236
  284loPI   C2A 4536   9.699  17.489   9.114  0.1259  0.1466 -0.1714
  284loPI   C3A 4537   9.651  17.656   8.644  0.0235  0.2003 -0.0897
  284loPI   C4A 4538   9.872  17.760   8.373  0.1998  0.3024 -0.0433
  284loPI   C5A 4539  10.135  17.834   7.941 -0.2215 -0.0628 -0.0168
  284loPI   C6A 4540  10.304  17.656   7.573  0.3375  0.0767  0.1473
  284loPI   C1B 4541  10.345  17.579   9.261  0.1505  0.4103  0.1605
  284loPI   C2B 4542  10.347  17.589   8.740 -0.3064 -0.1456  0.2694
  284loPI   C3B 4543  10.349  17.530   8.288 -0.1244 -0.0911  0.2450
  284loPI   C4B 4544  10.359  17.335   7.930 -0.1631  0.1532 -0.2959
  285loPI    C1 4545  16.310  11.906  10.320  0.1341 -0.0731  0.2615
  285loPI    C2 4546  15.950  12.077  10.350  0.1062 -0.0504 -0.1490
  285loPI    C3 4547  16.278  12.288  10.437  0.0547  0.1247 -0.3696
  285loPI   PO4 4548  16.312  11.818   9.991  0.2032  0.3322 -0.1322
  285loPI   GL1 4549  16.447  11.831   9.667 -0.2022  0.2149 -0.0878
  285loPI   GL2 4550  16.574  12.158   9.600  0.2000  0.1659  0.1058
  285loPI   C1A 4551  16.281  11.919   9.192 -0.1260  0.0772 -0.2290
  285loPI   C2A 4552  16.391  11.963   8.822 -0.1016 -0.3381 -0.1963
  285loPI   C3A 4553  16.482  12.057   8.361 -0.1114  0.2657  0.2901
  285loPI   C4A 4554  16.568  11.955   7.871 -0.0798 -0.1229  0.1142
  285loPI   C5A 4555  16.736  11.602   7.696 -0.0360  0.2129 -0.2618
  285loPI   C6A 4556  17.033  11.349   7.772  0.0792 -0.1657  0.1843
  285loPI   C1B 4557  16.610  12.464   9.158  0.2711  0.0087 -0.1851
  285loPI   C2B 4558  16.698  12.518   8.690 -0.1631 -0.1048 -0.0766
  285loPI   C3B 4559  16.790  12.710   8.352 -0.0928 -0.1170  0.3282
  285loPI   C4B 4560  16.854  13.064   8.047 -0.2755 -0.0967 -0.0640
  286loPI    C1 4561   1.666  18.674  10.238  0.1901  0.0110 -0.1434
  286loPI    C2 4562   1.337  18.446  10.231  0.2707 -0.1056 -0.1589
  286loPI    C3 4563   1.352  18.769  10.467  0.0931 -0.0204 -0.2622
  286loPI   PO4 4564   1.662  18.828  10.008  0.0499 -0.0749 -0.1130
  286loPI   GL1 4565   1.753  19.095   9.726  0.0364 -0.0175  0.6079
  286loPI   GL2 4566   1.993  19.281   9.800  0.2510 -0.3507 -0.0136
  286loPI   C1A 4567   1.565  19.070   9.268  0.1170  0.5652  0.0777
  286loPI   C2A 4568   1.534  19.153   8.852  0.0499  0.1622 -0.1730
  286loPI   C3A 4569   1.761  19.397   8.537 -0.0545 -0.3374  0.1203
  286loPI   C4A 4570   2.053  19.277   8.181  0.2885 -0.0494 -0.0900
  286loPI   C5A 4571   1.916  19.191   7.718 -0.0874 -0.4423 -0.1985
  286loPI   C6A 4572   1.483  19.151   7.514  0.2296  0.1161 -0.0320
  286loPI   C1B 4573   2.157  19.279   9.434 -0.1521 -0.2802 -0.0140
  286loPI   C2B 4574   2.199  19.426   8.929  0.1800 -0.3936 -0.0164
  286loPI   C3B 4575   2.376  19.535   8.538 -0.2486 -0.1679  0.1261
  286loPI   C4B 4576   2.499  19.427   8.088  0.5039 -0.0707 -0.0456
  287loPI    C1 4577  15.228  14.211   9.707 -0.2558  0.2029 -0.0728
  287loPI    C2 4578  15.284  14.392   9.355  0.0656  0.0269 -0.1161
  287loPI    C3 4579  15.591  14.345   9.606 -0.1114 -0.0598  0.0872
  287loPI   PO4 4580  14.987  14.193   9.682  0.0653  0.2273 -0.0658
  287loPI   GL1 4581  14.923  14.005   9.235  0.0111 -0.4640 -0.1724
  287loPI   GL2 4582  15.163  13.819   9.198  0.0120 -0.1723  0.2138
  287loPI   C1A 4583  15.257  14.143   8.865 -0.1008  0.0633 -0.2205
  287loPI   C2A 4584  15.391  14.283   8.467 -0.3003 -0.0791  0.1653
  287loPI   C3A 4585  15.634  14.281   8.074 -0.1713 -0.1407  0.0375
  287loPI   C4A 4586  15.781  14.266   7.597  0.3109 -0.1302  0.1327
  287loPI   C5A 4587  15.653  14.440   7.377  0.3929  0.1883 -0.0011
  287loPI   C6A 4588  15.615  14.433   6.957 -0.0776 -0.0076  0.0184
  287loPI   C1B 4589  15.022  13.705   8.774  0.3805  0.0674  0.0860
  287loPI   C2B 4590  15.099  13.519   8.329 -0.0253 -0.0357 -0.2189
  287loPI   C3B 4591  15.028  13.252   7.899  0.3878 -0.0624 -0.2005
  287loPI   C4B 4592  14.580  13.019   7.718 -0.3011  0.0758 -0.2543
  288loPI    C1 4593  18.890  17.497  10.026 -0.0917  0.0116 -0.0605
  288loPI    C2 4594  18.746  17.210  10.264  0.2153 -0.0359  0.0717
  288loPI    C3 4595  18.552  17.558  10.231 -0.1335 -0.2372 -0.0524
  288loPI   PO4 4596  18.948  17.393   9.763 -0.1691 -0.2238 -0.2183
  288loPI   GL1 4597  19.177  17.431   9.446  0.2687  0.0781  0.1491
  288loPI   GL2 4598  19.519  17.602   9.424  0.0630 -0.0957 -0.0934
  288loPI   C1A 4599  19.171  17.505   9.003 -0.2681  0.0835 -0.2387
  288loPI   C2A 4600  19.229  17.486   8.526 -0.1651  0.1061  0.1207
  288loPI   C3A 4601  19.067  17.455   8.106  0.0819  0.1686  0.2752
  288loPI   C4A 4602  18.898  17.548   7.668  0.0345 -0.3972  0.1898
  288loPI   C5A 4603  18.831  17.942   7.375 -0.1409 -0.0621  0.1134
  288loPI   C6A 4604  18.813  18.172   7.133 -0.0063  0.1137  0.0121
  288loPI   C1B 4605  19.655  17.183   9.178  0.2964 -0.0654  0.0493
  288loPI   C2B 4606  19.437  16.963   8.711 -0.2947  0.2896  0.1348
  288loPI   C3B 4607  19.285  17.014   8.378  0.0976  0.2896  0.2206
  288loPI   C4B 4608  18.960  16.859   8.120 -0.0379  0.0425 -0.3629
  289loPI    C1 4609  12.314   5.212   9.832 -0.0018  0.1055  0.1125
  289loPI    C2 4610  12.269   4.902  10.081  0.1683  0.0215  0.0402
  289loPI    C3 4611  12.129   5.262  10.183  0.1361 -0.0374  0.2068
  289loPI   PO4 4612  12.380   5.090   9.635  0.2335 -0.1149  0.2151
  289loPI   GL1 4613  12.158   5.004   9.299  0.0833 -0.0166 -0.1689
  289loPI   GL2 4614  11.936   5.212   9.331 -0.1436  0.0817 -0.0416
  289loPI   C1A 4615  12.051   4.863   8.864 -0.0697 -0.0282  0.0547
  289loPI   C2A 4616  12.233   4.823   8.459  0.0337  0.1046 -0.0228
  289loPI   C3A 4617  12.185   4.781   8.010 -0.1550  0.2399 -0.1486
  289loPI   C4A 4618  12.035   4.375   7.834  0.2478  0.0057  0.0854
  289loPI   C5A 4619  12.056   4.096   7.372  0.1198 -0.0630 -0.4218
  289loPI   C6A 4620  12.346   4.330   7.275 -0.0084 -0.0469 -0.1819
  289loPI   C1B 4621  12.075   5.357   8.899 -0.3551 -0.1938 -0.1324
  289loPI   C2B 4622  12.012   5.279   8.526  0.4440  0.0864  0.1080
  289loPI   C3B 4623  12.101   5.357   8.096 -0.0240 -0.2157 -0.2762
  289loPI   C4B 4624  12.333   5.229   7.719 -0.0179 -0.2156 -0.0284
  290loPI    C1 4625   8.210   5.807  10.130 -0.3908  0.1241  0.1407
  290loPI    C2 4626   8.035   5.925  10.470 -0.1700 -0.0763  0.3280
  290loPI    C3 4627   8.379   6.093  10.354 -0.0615 -0.2544  0.3891
  290loPI   PO4 4628   7.980   5.659   9.995  0.0023  0.1664  0.0247
  290loPI   GL1 4629   8.008   5.423   9.680  0.0127 -0.4160 -0.2531
  290loPI   GL2 4630   7.928   5.691   9.462 -0.0638  0.2148  0.0107
  290loPI   C1A 4631   8.098   5.149   9.379  0.0966 -0.1451  0.1438
  290loPI   C2A 4632   8.181   5.142   8.927  0.1355 -0.2172  0.1181
  290loPI   C3A 4633   8.176   5.019   8.525  0.1074  0.2376  0.4448
  290loPI   C4A 4634   8.249   5.049   8.149 -0.2240  0.1689  0.4605
  290loPI   C5A 4635   8.287   4.746   7.690  0.2107  0.1928  0.0652
  290loPI   C6A 4636   8.137   4.401   7.497 -0.0024 -0.2807  0.1341
  290loPI   C1B 4637   7.899   5.607   9.119  0.0354 -0.0603  0.1222
  290loPI   C2B 4638   7.824   5.685   8.805 -0.0195  0.2866  0.1515
  290loPI   C3B 4639   7.653   5.685   8.410  0.1471 -0.3385 -0.1450
  290loPI   C4B 4640   7.747   5.824   7.983  0.0284 -0.3156  0.0291
  291loPI    C1 4641  14.500   2.241   9.922  0.0915 -0.0265  0.1661
  291loPI    C2 4642  14.846   2.294   9.729 -0.0480 -0.0166 -0.0859
  291loPI    C3 4643  14.846   2.215  10.121  0.2338  0.0878 -0.0622
  291loPI   PO4 4644  14.305   2.494   9.891  0.0334  0.1657  0.3220
  291loPI   GL1 4645  13.995   2.697   9.596 -0.2230 -0.1631 -0.1102
  291loPI   GL2 4646  13.922   2.430   9.546 -0.2499 -0.3040 -0.0377
  291loPI   C1A 4647  14.052   2.986   9.251 -0.3414  0.0237  0.2305
  291loPI   C2A 4648  14.229   2.916   8.903 -0.1167 -0.3265  0.0994
  291loPI   C3A 4649  14.221   2.524   8.594 -0.4150  0.3520 -0.1512
  291loPI   C4A 4650  14.512   2.433   8.302  0.3040  0.0752 -0.0866
  291loPI   C5A 4651  14.756   2.382   7.933  0.1698 -0.2478  0.0005
  291loPI   C6A 4652  14.965   2.126   7.595  0.2083  0.2365  0.0780
  291loPI   C1B 4653  14.148   2.478   9.144  0.1048  0.0821  0.0713
  291loPI   C2B 4654  14.523   2.498   8.985 -0.2524 -0.0924  0.2384
  291loPI   C3B 4655  14.838   2.293   9.076 -0.0314  0.0791 -0.0022
  291loPI   C4B 4656  15.316   2.107   9.105  0.0967 -0.1716  0.1308
  292loPI    C1 4657   1.269  12.631  10.533  0.1729  0.0578 -0.0716
  292loPI    C2 4658   1.015  12.685  10.838  0.0028  0.1545 -0.2287
  292loPI    C3 4659   1.407  12.651  10.908 -0.0417  0.1100  0.0061
  292loPI   PO4 4660   1.040  12.503  10.310  0.0736 -0.1286  0.3456
  292loPI   GL1 4661   0.910  12.171   9.991 -0.1399 -0.1679 -0.2406
  292loPI   GL2 4662   0.881  12.003   9.816  0.1292 -0.0449 -0.1449
  292loPI   C1A 4663   0.772  12.480   9.636 -0.1155 -0.0051 -0.0089
  292loPI   C2A 4664   0.558  12.579   9.285  0.0308  0.0445  0.1842
  292loPI   C3A 4665   0.372  12.669   8.833  0.0394  0.0745 -0.1665
  292loPI   C4A 4666   0.653  12.855   8.474 -0.1192  0.3428 -0.3151
  292loPI   C5A 4667   0.913  12.714   8.161 -0.1546 -0.3256  0.2371
  292loPI   C6A 4668   0.859  12.391   7.871  0.1915 -0.0086 -0.1825
  292loPI   C1B 4669   0.950  11.984   9.427 -0.2746 -0.2143  0.0942
  292loPI   C2B 4670   0.873  12.037   8.976 -0.0504  0.2163 -0.0819
  292loPI   C3B 4671   1.060  11.913   8.596  0.1716  0.0966 -0.1763
  292loPI   C4B 4672   1.160  12.099   8.148 -0.0570  0.1222  0.3426
  293loPI    C1 4673  13.576   5.538  10.051 -0.0500  0.0839 -0.1469
  293loPI    C2 4674  13.308   5.285  10.206  0.4296 -0.1871  0.2686
  293loPI    C3 4675  13.431   5.600  10.419  0.2078  0.1227 -0.0502
  293loPI   PO4 4676  13.443   5.591   9.834  0.2504 -0.3056 -0.0647
  293loPI   GL1 4677  13.367   5.885   9.479  0.0015  0.0320 -0.2070
  293loPI   GL2 4678  13.529   6.056   9.612 -0.4028 -0.0221  0.3791
  293loPI   C1A 4679  13.340   6.055   9.102 -0.0564  0.2010 -0.1311
  293loPI   C2A 4680  13.337   6.271   8.693  0.0050 -0.3808 -0.3768
  293loPI   C3A 4681  13.315   6.460   8.345  0.0967 -0.2246  0.0636
  293loPI   C4A 4682  13.007   6.433   8.012 -0.4004 -0.3815 -0.1035
  293loPI   C5A 4683  12.968   6.568   7.549 -0.0162  0.0127 -0.3153
  293loPI   C6A 4684  12.528   6.619   7.321  0.0478 -0.1664  0.4917
  293loPI   C1B 4685  13.775   6.171   9.159 -0.0454 -0.0816 -0.0543
  293loPI   C2B 4686  13.787   6.402   8.896  0.3287  0.0953 -0.2348
  293loPI   C3B 4687  13.794   6.579   8.471 -0.3032  0.1245  0.1526
  293loPI   C4B 4688  13.749   6.612   8.021  0.3021 -0.1373 -0.2350
  294loPI    C1 4689   9.180  11.187  10.543  0.2388 -0.1739  0.0121
  294loPI    C2 4690   8.844  10.971  10.522  0.0090  0.1790 -0.0348
  294loPI    C3 4691   9.152  10.841  10.741 -0.2010 -0.0918  0.1058
  294loPI   PO4 4692   9.280  11.271  10.363  0.0734 -0.1491 -0.2760
  294loPI   GL1 4693   9.073  11.320   9.966  0.0480  0.0767 -0.4265
  294loPI   GL2 4694   8.961  11.614   9.835 -0.2302 -0.1826 -0.0775
  294loPI   C1A 4695   9.066  11.184   9.526 -0.0162 -0.0895  0.1611
  294loPI   C2A 4696   8.912  11.436   9.153 -0.0032  0.0915  0.1291
  294loPI   C3A 4697   8.563  11.552   8.813 -0.1977  0.2677 -0.0483
  294loPI   C4A 4698   8.530  11.493   8.399 -0.0527 -0.1870  0.3576
  294loPI   C5A 4699   8.759  11.433   8.009  0.0804 -0.4176 -0.1288
  294loPI   C6A 4700   8.917  11.198   7.748 -0.2712 -0.4410  0.4782
  294loPI   C1B 4701   9.315  11.636   9.654  0.2183  0.1275  0.1227
  294loPI   C2B 4702   9.393  11.575   9.202  0.0809 -0.3221 -0.0344
  294loPI   C3B 4703   9.711  11.415   9.116  0.5454 -0.0171 -0.0374
  294loPI   C4B 4704  10.040  11.147   8.962 -0.1902  0.3383 -0.0425
  295loPI    C1 4705   6.519   0.347  10.477 -0.1408 -0.0321 -0.0989
  295loPI    C2 4706   6.234   0.564  10.657  0.0144  0.1502 -0.0695
  295loPI    C3 4707   6.614   0.593  10.778  0.0586 -0.0324 -0.1604
  295loPI   PO4 4708   6.407   0.305  10.265 -0.1521  0.1293  0.0944
  295loPI   GL1 4709   6.161   0.320   9.857 -0.2826  0.0311 -0.0932
  295loPI   GL2 4710   5.955   0.581   9.763 -0.1371 -0.1970 -0.0465
  295loPI   C1A 4711   6.073  -0.011   9.492 -0.2221 -0.0517  0.0812
  295loPI   C2A 4712   5.992  -0.109   9.109  0.0746  0.0151 -0.1065
  295loPI   C3A 4713   5.935  -0.253   8.708  0.0466 -0.3450  0.2439
  295loPI   C4A 4714   5.736  -0.254   8.317 -0.1623  0.2727  0.1663
  295loPI   C5A 4715   5.394  -0.343   8.120 -0.0375  0.3470 -0.0035
  295loPI   C6A 4716   4.932  -0.231   7.874  0.0010  0.2899  0.0503
  295loPI   C1B 4717   6.039   0.442   9.308 -0.1694 -0.1481  0.3294
  295loPI   C2B 4718   6.184   0.409   8.963  0.0908  0.1963 -0.0297
  295loPI   C3B 4719   6.061   0.254   8.697 -0.0688  0.1154  0.0253
  295loPI   C4B 4720   6.108   0.096   8.384 -0.1334  0.1073 -0.0594
  296loPI    C1 4721   2.858   8.007  10.454  0.0596  0.0464 -0.2276
  296loPI    C2 4722   2.740   8.386  10.503 -0.0611 -0.0079 -0.0909
  296loPI    C3 4723   2.503   8.085  10.621  0.0796 -0.1242 -0.1020
  296loPI   PO4 4724   3.021   7.964  10.218 -0.0341 -0.0360 -0.3734
  296loPI   GL1 4725   2.805   7.853   9.860 -0.1621 -0.2163 -0.0504
  296loPI   GL2 4726   3.054   7.887   9.658  0.0350  0.0195  0.3114
  296loPI   C1A 4727   2.780   8.337   9.662 -0.3898 -0.0431  0.0452
  296loPI   C2A 4728   2.842   8.464   9.193 -0.5000 -0.1952 -0.2278
  296loPI   C3A 4729   2.771   8.433   8.736  0.4701  0.0542  0.0504
  296loPI   C4A 4730   2.601   8.433   8.431  0.2152 -0.0735  0.0625
  296loPI   C5A 4731   2.709   8.426   7.849 -0.4295 -0.2048 -0.2693
  296loPI   C6A 4732   3.054   8.389   7.501  0.0031  0.1885  0.2377
  296loPI   C1B 4733   3.024   7.997   9.217  0.0737 -0.1358  0.2936
  296loPI   C2B 4734   2.953   7.964   8.736 -0.3539  0.2465  0.0165
  296loPI   C3B 4735   2.911   7.985   8.367  0.0705  0.1578 -0.1059
  296loPI   C4B 4736   2.767   7.607   8.059 -0.0185 -0.2372 -0.2391
  297loPI    C1 4737   9.595  14.971  10.458  0.1197  0.1927 -0.1215
  297loPI    C2 4738   9.798  14.627  10.483 -0.0465  0.0947 -0.1027
  297loPI    C3 4739   9.883  14.928  10.732  0.0170  0.0237 -0.0383
  297loPI   PO4 4740   9.697  15.033  10.177 -0.0059 -0.0787  0.0476
  297loPI   GL1 4741   9.515  14.830   9.774 -0.1920 -0.4442 -0.2254
  297loPI   GL2 4742   9.514  14.404   9.573  0.0603 -0.2400 -0.0226
  297loPI   C1A 4743   9.433  14.850   9.343 -0.0179 -0.0486  0.0749
  297loPI   C2A 4744   9.646  14.873   8.974 -0.0739 -0.2039 -0.0191
  297loPI   C3A 4745   9.573  14.929   8.600 -0.1394 -0.5746 -0.0510
  297loPI   C4A 4746   9.552  15.168   8.177 -0.1474 -0.0783  0.1994
  297loPI   C5A 4747   9.776  15.248   7.750  0.1740 -0.1985  0.0844
  297loPI   C6A 4748  10.058  15.031   7.496 -0.0240  0.1903  0.2622
  297loPI   C1B 4749   9.640  14.335   9.130 -0.1258  0.0847 -0.0729
  297loPI   C2B 4750   9.636  14.320   8.706 -0.1368 -0.2975 -0.1380
  297loPI   C3B 4751   9.764  14.436   8.333 -0.1563 -0.0618  0.0800
  297loPI   C4B 4752   9.803  14.292   8.000 -0.2757 -0.1190 -0.0519
  298loPI    C1 4753   6.893   4.310  10.568  0.0386  0.3036  0.2051
  298loPI    C2 4754   6.679   4.618  10.705  0.1420  0.3344  0.2993
  298loPI    C3 4755   6.995   4.487  10.912 -0.0225  0.0325  0.3658
  298loPI   PO4 4756   6.756   4.341  10.251  0.0286 -0.3223 -0.0585
  298loPI   GL1 4757   6.760   4.438   9.842 -0.1261  0.0481 -0.0914
  298loPI   GL2 4758   6.538   4.687   9.690 -0.0167  0.1060 -0.1034
  298loPI   C1A 4759   6.908   4.486   9.389  0.0248 -0.0284 -0.0967
  298loPI   C2A 4760   7.056   4.651   8.990  0.2909 -0.1419  0.0724
  298loPI   C3A 4761   7.419   4.848   8.724  0.1433 -0.1721  0.3589
  298loPI   C4A 4762   7.438   4.914   8.309  0.0784  0.0966 -0.3353
  298loPI   C5A 4763   7.332   5.111   7.849 -0.0703 -0.1052 -0.1081
  298loPI   C6A 4764   7.406   5.017   7.411  0.1206  0.0796 -0.1313
  298loPI   C1B 4765   6.323   4.735   9.219  0.1735 -0.0936 -0.3869
  298loPI   C2B 4766   6.468   4.818   8.856 -0.0661  0.1754  0.2061
  298loPI   C3B 4767   6.511   4.854   8.366  0.0736  0.2992  0.0505
  298loPI   C4B 4768   6.665   5.288   8.149 -0.1300  0.0878 -0.2402
  299loPI    C1 4769  16.602   5.924  10.227 -0.0288  0.0138  0.1664
  299loPI    C2 4770  16.353   6.079  10.499  0.0608 -0.1637  0.3521
  299loPI    C3 4771  16.468   5.697  10.527  0.2222 -0.1300  0.1725
  299loPI   PO4 4772  16.463   5.962  10.004 -0.1880  0.0525 -0.1650
  299loPI   GL1 4773  16.444   5.944   9.515  0.1998 -0.6528  0.1116
  299loPI   GL2 4774  16.267   5.603   9.402  0.1219  0.1723 -0.0356
  299loPI   C1A 4775  16.234   6.164   9.215 -0.0574  0.0120  0.3060
  299loPI   C2A 4776  16.235   6.280   8.838 -0.1321  0.0751 -0.4048
  299loPI   C3A 4777  16.421   6.593   8.550  0.1420  0.1724  0.0418
  299loPI   C4A 4778  16.637   6.883   8.464  0.0152  0.1205  0.1163
  299loPI   C5A 4779  16.863   7.125   8.092  0.2286  0.3193  0.0152
  299loPI   C6A 4780  16.801   7.409   7.974 -0.1954 -0.2720 -0.2767
  299loPI   C1B 4781  16.399   5.789   8.932 -0.0221  0.0572 -0.1084
  299loPI   C2B 4782  16.498   5.942   8.520  0.0464  0.0538  0.0128
  299loPI   C3B 4783  16.539   6.258   8.187 -0.0447 -0.1054  0.1156
  299loPI   C4B 4784  16.458   6.651   7.956  0.1166  0.1525 -0.0567
  300loPI    C1 4785   8.569  14.010  10.547  0.0623 -0.2056  0.2272
  300loPI    C2 4786   8.947  14.004  10.417 -0.0515  0.0807 -0.1338
  300loPI    C3 4787   8.823  13.732  10.682  0.3633 -0.1129 -0.1303
  300loPI   PO4 4788   8.442  13.977  10.447 -0.0017 -0.2670  0.1757
  300loPI   GL1 4789   8.468  14.010   9.984  0.0562  0.1407  0.3270
  300loPI   GL2 4790   8.808  14.119   9.962  0.0439  0.3632 -0.0866
  300loPI   C1A 4791   8.268  14.087   9.536 -0.1275  0.1238 -0.0607
  300loPI   C2A 4792   8.230  14.177   9.086 -0.4511  0.4066 -0.1237
  300loPI   C3A 4793   8.173  14.142   8.637 -0.3295  0.0587  0.0889
  300loPI   C4A 4794   8.065  14.043   8.214 -0.0417 -0.0147  0.2047
  300loPI   C5A 4795   7.965  14.125   7.785 -0.1311 -0.2943  0.2457
  300loPI   C6A 4796   7.913  14.334   7.391  0.0097  0.0557 -0.1764
  300loPI   C1B 4797   8.733  13.982   9.579 -0.0483  0.1147  0.3964
  300loPI   C2B 4798   8.679  14.027   9.202  0.2022  0.1515  0.0492
  300loPI   C3B 4799   8.699  13.997   8.740  0.0602  0.3283 -0.2352
  300loPI   C4B 4800   8.633  14.032   8.309  0.0751  0.2464 -0.1529
  301loPI    C1 4801  13.661   5.255   9.578  0.3229 -0.1060  0.0899
  301loPI    C2 4802  13.449   4.922   9.512 -0.1789  0.2206  0.0012
  301loPI    C3 4803  13.557   5.020   9.884 -0.0296 -0.0370  0.0277
  301loPI   PO4 4804  13.445   5.416   9.423 -0.0422  0.1520 -0.0747
  301loPI   GL1 4805  13.279   5.580   9.009 -0.2290  0.1167  0.0325
  301loPI   GL2 4806  13.014   5.460   9.174 -0.0969 -0.1497 -0.0803
  301loPI   C1A 4807  13.195   5.635   8.580 -0.2385 -0.0103 -0.2174
  301loPI   C2A 4808  13.182   5.371   8.311 -0.3591 -0.3413 -0.0932
  301loPI   C3A 4809  13.461   5.175   7.976  0.1976  0.2684  0.1500
  301loPI   C4A 4810  13.797   5.365   7.732 -0.1721 -0.1917 -0.0881
  301loPI   C5A 4811  14.225   5.397   7.795  0.0402 -0.0993  0.0300
  301loPI   C6A 4812  14.475   5.724   7.645  0.3323 -0.2379 -0.1904
  301loPI   C1B 4813  13.000   5.116   8.917 -0.0291  0.2344 -0.2105
  301loPI   C2B 4814  13.061   4.871   8.564  0.3367  0.0831 -0.0872
  301loPI   C3B 4815  13.093   4.880   8.132  0.1331  0.3400  0.0935
  301loPI   C4B 4816  13.053   4.779   7.687 -0.0975 -0.0179  0.1259
  302loPI    C1 4817   5.849   3.334  10.004 -0.1282  0.0381 -0.1828
  302loPI    C2 4818   6.177   3.242   9.794 -0.0430 -0.0510 -0.0131
  302loPI    C3 4819   6.038   2.988  10.070 -0.2228  0.0121 -0.0439
  302loPI   PO4 4820   5.832   3.613   9.868 -0.0861  0.1485 -0.2940
  302loPI   GL1 4821   5.876   3.699   9.461  0.0701 -0.1079  0.0762
  302loPI   GL2 4822   5.736   3.373   9.471 -0.0300  0.2014 -0.1104
  302loPI   C1A 4823   5.800   3.925   9.076  0.0662 -0.1396  0.2190
  302loPI   C2A 4824   5.661   4.097   8.566 -0.0910 -0.0752  0.0950
  302loPI   C3A 4825   5.608   4.320   8.134 -0.0609  0.0309 -0.2311
  302loPI   C4A 4826   5.603   4.141   7.703 -0.1175 -0.3168 -0.0295
  302loPI   C5A 4827   5.447   3.815   7.418 -0.0280 -0.0278 -0.0001
  302loPI   C6A 4828   4.969   3.789   7.203 -0.2491 -0.0491  0.1002
  302loPI   C1B 4829   5.868   3.374   9.045 -0.0606  0.0078  0.0695
  302loPI   C2B 4830   5.906   3.333   8.690  0.2757  0.0759 -0.1578
  302loPI   C3B 4831   6.147   3.467   8.349  0.1826 -0.1542  0.0967
  302loPI   C4B 4832   6.361   3.341   7.884  0.1336 -0.0909  0.2164
  303loPI    C1 4833   8.182   9.113  10.510 -0.1331  0.1962 -0.0410
  303loPI    C2 4834   8.196   8.741  10.655  0.1090  0.1964 -0.0607
  303loPI    C3 4835   8.035   9.035  10.873  0.1682  0.1327  0.0701
  303loPI   PO4 4836   8.188   9.119  10.309  0.5045  0.1351 -0.2448
  303loPI   GL1 4837   8.121   8.808  10.016 -0.2209 -0.2916  0.0277
  303loPI   GL2 4838   7.818   8.843   9.929  0.2819 -0.1035  0.1628
  303loPI   C1A 4839   8.269   8.840   9.593  0.0659 -0.2137 -0.1613
  303loPI   C2A 4840   8.347   9.212   9.413  0.1433  0.3893 -0.1463
  303loPI   C3A 4841   8.572   9.433   9.158  0.1865 -0.1873 -0.1482
  303loPI   C4A 4842   8.565   9.464   8.742  0.4601 -0.1572  0.1679
  303loPI   C5A 4843   8.338   9.273   8.437  0.1237 -0.1802 -0.4029
  303loPI   C6A 4844   7.984   9.158   8.246  0.1576 -0.0762  0.0268
  303loPI   C1B 4845   7.618   9.120   9.623  0.3625 -0.0289  0.0753
  303loPI   C2B 4846   7.827   9.386   9.405  0.0142 -0.0477 -0.0005
  303loPI   C3B 4847   8.035   9.406   9.072 -0.1766 -0.0308 -0.0232
  303loPI   C4B 4848   8.356   9.029   8.947  0.1121 -0.0534  0.1837
  304loPI    C1 4849   4.028   9.660  10.265 -0.1038  0.1395  0.2860
  304loPI    C2 4850   4.359   9.439  10.301 -0.1499  0.0074 -0.0608
  304loPI    C3 4851   4.359   9.820  10.423  0.0379 -0.0766  0.2128
  304loPI   PO4 4852   3.980   9.623   9.992  0.1580 -0.1845  0.0340
  304loPI   GL1 4853   4.098   9.518   9.574  0.0589  0.0272  0.0954
  304loPI   GL2 4854   4.194   9.839   9.589 -0.1493 -0.1335  0.2470
  304loPI   C1A 4855   3.855   9.665   9.268 -0.0286 -0.4601 -0.0546
  304loPI   C2A 4856   3.925  10.050   9.120  0.2273  0.0634  0.0943
  304loPI   C3A 4857   3.728  10.255   8.696 -0.1829  0.0419  0.0079
  304loPI   C4A 4858   3.834  10.011   8.265  0.2026 -0.1299  0.0740
  304loPI   C5A 4859   3.853  10.343   7.948  0.0456 -0.3338 -0.2467
  304loPI   C6A 4860   3.938  10.649   7.567 -0.0181  0.0875 -0.3313
  304loPI   C1B 4861   4.322   9.799   9.093 -0.1518  0.0609 -0.3142
  304loPI   C2B 4862   4.207  10.037   8.706  0.3634 -0.1247  0.1347
  304loPI   C3B 4863   4.204  10.354   8.430  0.0251  0.2458  0.5149
  304loPI   C4B 4864   4.359  10.468   8.055 -0.3521  0.1817 -0.0177
  305loPI    C1 4865  13.575  13.786   9.921  0.1381  0.0043 -0.0794
  305loPI    C2 4866  13.558  13.419  10.080 -0.0867  0.1199  0.1722
  305loPI    C3 4867  13.875  13.653  10.150  0.0315 -0.0043  0.0572
  305loPI   PO4 4868  13.399  13.731   9.612 -0.6107 -0.1021 -0.0043
  305loPI   GL1 4869  13.450  13.766   9.298  0.1980 -0.0610 -0.2246
  305loPI   GL2 4870  13.679  13.833   9.179 -0.2047 -0.0811 -0.2394
  305loPI   C1A 4871  13.086  13.700   9.027 -0.0118 -0.1943  0.0762
  305loPI   C2A 4872  12.928  13.569   8.706 -0.0762  0.2087  0.0293
  305loPI   C3A 4873  13.058  13.437   8.290  0.0317 -0.0972  0.1684
  305loPI   C4A 4874  13.029  13.568   7.909 -0.0510 -0.0381 -0.1050
  305loPI   C5A 4875  12.863  13.840   7.556 -0.1993  0.0001 -0.0222
  305loPI   C6A 4876  12.969  14.148   7.261  0.0516  0.2135 -0.2600
  305loPI   C1B 4877  13.649  13.700   8.798 -0.0395  0.0422  0.1763
  305loPI   C2B 4878  13.292  13.840   8.514  0.0326  0.2197 -0.0671
  305loPI   C3B 4879  13.181  13.991   8.129 -0.0461 -0.3128  0.0651
  305loPI   C4B 4880  13.224  14.104   7.771 -0.3586  0.1176 -0.2953
  306loPI    C1 4881   8.436   6.942   9.945  0.0846 -0.0711  0.0988
  306loPI    C2 4882   8.058   6.930   9.814  0.1068  0.0632  0.0209
  306loPI    C3 4883   8.138   7.064  10.182  0.0682 -0.0723  0.0789
  306loPI   PO4 4884   8.547   7.199   9.766  0.1302  0.1019 -0.2367
  306loPI   GL1 4885   8.531   7.285   9.378  0.0172  0.0937 -0.0009
  306loPI   GL2 4886   8.192   7.282   9.405 -0.1526  0.0500  0.0639
  306loPI   C1A 4887   8.663   7.626   9.139  0.1686  0.1018 -0.0447
  306loPI   C2A 4888   8.830   7.694   8.780 -0.1094  0.2448 -0.0108
  306loPI   C3A 4889   8.997   7.836   8.500 -0.1176 -0.0428  0.2333
  306loPI   C4A 4890   9.048   7.963   8.065 -0.0475 -0.3729  0.1495
  306loPI   C5A 4891   8.730   7.968   7.711  0.2005  0.0101 -0.2282
  306loPI   C6A 4892   8.465   8.219   7.373  0.0884 -0.1749  0.2901
  306loPI   C1B 4893   8.374   7.141   8.962  0.0758 -0.0684  0.2289
  306loPI   C2B 4894   8.174   7.105   8.497  0.2743 -0.0866  0.0158
  306loPI   C3B 4895   8.138   7.321   8.109 -0.0029  0.0811 -0.0763
  306loPI   C4B 4896   8.209   7.637   7.800  0.0437 -0.0956  0.2827
  307loPI    C1 4897   1.791   1.017  10.061  0.2300  0.1838 -0.1034
  307loPI    C2 4898   2.003   1.174  10.361 -0.0870  0.2842  0.0736
  307loPI    C3 4899   1.605   1.213  10.356 -0.1018  0.1285 -0.2699
  307loPI   PO4 4900   1.835   1.057   9.894 -0.1674 -0.1259 -0.2317
  307loPI   GL1 4901   1.573   1.039   9.594  0.0544  0.0388 -0.0423
  307loPI   GL2 4902   1.720   0.649   9.550  0.0872  0.0944 -0.1729
  307loPI   C1A 4903   1.597   1.044   9.183 -0.0566 -0.0705 -0.0067
  307loPI   C2A 4904   1.832   0.810   8.862 -0.3411  0.0351  0.3271
  307loPI   C3A 4905   1.967   0.951   8.440 -0.1039  0.0771  0.2389
  307loPI   C4A 4906   1.956   1.311   8.096  0.1141 -0.1311 -0.0564
  307loPI   C5A 4907   1.881   1.516   7.718 -0.1289  0.0786 -0.1087
  307loPI   C6A 4908   2.095   1.892   7.542  0.1489 -0.2580 -0.0510
  307loPI   C1B 4909   2.113   0.878   9.248  0.1748  0.2441 -0.1597
  307loPI   C2B 4910   2.449   1.021   8.926 -0.0417  0.0536  0.0040
  307loPI   C3B 4911   2.381   1.166   8.528  0.0519 -0.1445  0.4375
  307loPI   C4B 4912   2.395   0.953   8.102 -0.1419  0.0404  0.1654
  308loPI    C1 4913  15.986   6.722  10.181 -0.0232  0.1149  0.0687
  308loPI    C2 4914  16.131   6.499  10.479  0.0312 -0.0494 -0.0788
  308loPI    C3 4915  15.736   6.528  10.425  0.0185  0.0574  0.0657
  308loPI   PO4 4916  16.099   6.687  10.001 -0.0700 -0.0091 -0.2971
  308loPI   GL1 4917  16.432   6.931   9.890  0.0100 -0.1094  0.1714
  308loPI   GL2 4918  16.705   6.799   9.845  0.1189 -0.0652  0.0693
  308loPI   C1A 4919  16.358   6.927   9.460  0.0892  0.2273 -0.1324
  308loPI   C2A 4920  16.067   6.843   9.183  0.2832 -0.0408  0.0152
  308loPI   C3A 4921  16.250   6.957   8.782 -0.1022 -0.2528 -0.1106
  308loPI   C4A 4922  16.173   7.019   8.295  0.0181  0.0058  0.0480
  308loPI   C5A 4923  16.364   7.213   7.980 -0.1384 -0.0946  0.0103
  308loPI   C6A 4924  16.451   7.407   7.565 -0.1297  0.2013  0.0596
  308loPI   C1B 4925  16.852   6.933   9.522  0.0547  0.0532 -0.3219
  308loPI   C2B 4926  17.016   7.154   9.310  0.3569 -0.2244  0.0739
  308loPI   C3B 4927  17.010   7.589   9.103 -0.2853 -0.1348  0.2486
  308loPI   C4B 4928  17.234   7.823   8.886 -0.1520  0.0246  0.2447
  309loPI    C1 4929  14.294  14.975  10.100  0.0816  0.2259 -0.1520
  309loPI    C2 4930  13.987  15.108  10.319 -0.0381 -0.0886 -0.1238
  309loPI    C3 4931  14.198  14.791  10.442  0.3670  0.1873 -0.0900
  309loPI   PO4 4932  14.325  15.227   9.890 -0.0871  0.2162 -0.1333
  309loPI   GL1 4933  14.274  15.017   9.438 -0.2847 -0.0427 -0.1483
  309loPI   GL2 4934  14.595  14.893   9.214 -0.0734  0.1408 -0.1229
  309loPI   C1A 4935  14.213  15.171   9.020  0.1490  0.3905 -0.5333
  309loPI   C2A 4936  14.169  15.041   8.621  0.0978  0.1472 -0.1125
  309loPI   C3A 4937  14.106  15.018   8.133 -0.1860  0.0110 -0.1122
  309loPI   C4A 4938  13.747  15.010   7.880  0.3466  0.1787  0.3532
  309loPI   C5A 4939  13.456  15.061   7.515  0.0059 -0.0898 -0.2083
  309loPI   C6A 4940  13.210  15.437   7.326 -0.2352  0.0138  0.1849
  309loPI   C1B 4941  14.494  14.716   8.808  0.1620 -0.1982  0.1385
  309loPI   C2B 4942  14.450  14.715   8.348 -0.0793 -0.3857  0.1045
  309loPI   C3B 4943  14.566  14.818   7.951  0.0754  0.0650  0.3508
  309loPI   C4B 4944  14.295  15.222   7.693  0.1930 -0.0642 -0.0982
  310loPI    C1 4945   5.060  11.811   9.924  0.1277  0.1130  0.1334
  310loPI    C2 4946   4.923  12.186   9.928  0.0132  0.0710  0.1547
  310loPI    C3 4947   4.753  11.908  10.161 -0.1347 -0.0746 -0.1222
  310loPI   PO4 4948   5.304  11.850   9.783 -0.2501  0.2335  0.1665
  310loPI   GL1 4949   5.359  12.252   9.537  0.0804  0.0948  0.1034
  310loPI   GL2 4950   5.000  12.244   9.426  0.2082 -0.0480 -0.1534
  310loPI   C1A 4951   5.421  11.974   9.114  0.0131 -0.3657 -0.0018
  310loPI   C2A 4952   5.377  11.928   8.670 -0.3752  0.2466  0.0370
  310loPI   C3A 4953   5.259  11.863   8.228 -0.2313  0.5063  0.2356
  310loPI   C4A 4954   4.996  11.797   7.892  0.0636 -0.0375  0.4507
  310loPI   C5A 4955   4.697  11.757   7.610  0.1005  0.4267 -0.1018
  310loPI   C6A 4956   4.288  11.981   7.431  0.0742 -0.1878 -0.1360
  310loPI   C1B 4957   4.956  12.098   8.989 -0.0210  0.2070  0.0391
  310loPI   C2B 4958   4.785  12.087   8.581  0.2050  0.0115  0.0699
  310loPI   C3B 4959   4.696  12.071   8.273  0.0655 -0.1702  0.0523
  310loPI   C4B 4960   4.644  12.229   7.772  0.0985  0.3243 -0.1623
  311loPI    C1 4961  10.088  10.981  10.263  0.1891  0.1849 -0.0220
  311loPI    C2 4962   9.864  11.279  10.409 -0.1660 -0.1496  0.1306
  311loPI    C3 4963  10.106  11.072  10.652 -0.1016 -0.1419  0.0730
  311loPI   PO4 4964   9.949  10.889  10.124 -0.1303  0.1478 -0.0918
  311loPI   GL1 4965   9.958  10.874   9.727 -0.2882 -0.2310 -0.1175
  311loPI   GL2 4966  10.122  11.017   9.602 -0.0696  0.0786 -0.0395
  311loPI   C1A 4967   9.647  11.075   9.440  0.2016  0.0549 -0.3096
  311loPI   C2A 4968   9.711  10.800   9.151 -0.0018 -0.0336 -0.3798
  311loPI   C3A 4969   9.498  10.711   8.815  0.1279  0.1771  0.0740
  311loPI   C4A 4970   9.483  10.429   8.482 -0.0793  0.1734  0.0099
  311loPI   C5A 4971   9.549  10.304   8.075 -0.3745  0.1629  0.2030
  311loPI   C6A 4972   9.422  10.249   7.626 -0.0933 -0.0085  0.2556
  311loPI   C1B 4973  10.219  10.798   9.256  0.3151  0.1751  0.3301
  311loPI   C2B 4974  10.078  10.618   8.835 -0.0476 -0.0314 -0.2256
  311loPI   C3B 4975   9.859  10.790   8.404  0.0224 -0.4094  0.1055
  311loPI   C4B 4976   9.437  10.853   8.229 -0.1231  0.0375  0.1661
  312loPI    C1 4977   9.678   6.167  10.283 -0.0163  0.0318 -0.1357
  312loPI    C2 4978   9.804   6.396  10.585  0.0617 -0.1315 -0.0431
  312loPI    C3 4979   9.426   6.266  10.577  0.0163  0.0019 -0.0979
  312loPI   PO4 4980   9.770   6.254   9.946 -0.0399 -0.0533  0.2123
  312loPI   GL1 4981   9.588   6.167   9.482 -0.1174  0.0145  0.2834
  312loPI   GL2 4982   9.969   6.064   9.468 -0.2702  0.2545  0.1598
  312loPI   C1A 4983   9.449   6.092   9.134 -0.0644  0.2582  0.1452
  312loPI   C2A 4984   9.299   6.135   8.689  0.2243  0.3806  0.2814
  312loPI   C3A 4985   9.372   6.475   8.410 -0.1681  0.2508  0.0647
  312loPI   C4A 4986   9.505   6.713   8.031  0.0222 -0.0403  0.0316
  312loPI   C5A 4987   9.383   6.856   7.626  0.2745  0.1863  0.4041
  312loPI   C6A 4988   9.499   7.023   7.342 -0.0180  0.0157 -0.0392
  312loPI   C1B 4989   9.929   6.009   9.082  0.2049 -0.0832  0.3234
  312loPI   C2B 4990   9.988   5.912   8.622 -0.3085  0.1564  0.1633
  312loPI   C3B 4991   9.974   5.732   8.203 -0.3145 -0.2819 -0.1475
  312loPI   C4B 4992   9.688   5.562   7.860 -0.2526  0.0489  0.5262
  313loPI    C1 4993   2.936  12.333   9.927  0.2529  0.1284 -0.1657
  313loPI    C2 4994   3.149  11.998   9.974  0.1570  0.1086  0.1508
  313loPI    C3 4995   2.771  12.015  10.105 -0.0578  0.1292 -0.4428
  313loPI   PO4 4996   2.870  12.471   9.673 -0.0794  0.0174 -0.0443
  313loPI   GL1 4997   3.048  12.466   9.367 -0.0962  0.3129 -0.0168
  313loPI   GL2 4998   2.754  12.647   9.246 -0.0689  0.1506 -0.2307
  313loPI   C1A 4999   3.144  12.479   8.979 -0.1187  0.1604 -0.2973
  313loPI   C2A 5000   3.043  12.493   8.613  0.1879  0.0607 -0.3343
  313loPI   C3A 5001   2.933  12.363   8.198 -0.1606 -0.3382  0.1845
  313loPI   C4A 5002   2.799  12.240   7.786  0.0418 -0.0599  0.0692
  313loPI   C5A 5003   2.912  12.186   7.376 -0.4128 -0.0869 -0.1973
  313loPI   C6A 5004   2.600  12.008   7.038  0.0820 -0.0239  0.0257
  313loPI   C1B 5005   2.744  12.225   8.994 -0.1449  0.1167 -0.2964
  313loPI   C2B 5006   2.632  12.170   8.491  0.1695  0.1596  0.2896
  313loPI   C3B 5007   2.416  12.145   8.083  0.3475  0.2120 -0.0330
  313loPI   C4B 5008   2.077  11.965   7.883 -0.1657 -0.0566  0.2346
  314loPI    C1 5009  16.880  14.375  10.120 -0.1932  0.1009  0.0142
  314loPI    C2 5010  16.656  14.212  10.409 -0.2201  0.0260 -0.0486
  314loPI    C3 5011  17.023  14.347  10.492 -0.2842  0.1390  0.0522
  314loPI   PO4 5012  16.711  14.419   9.868 -0.0659  0.1669  0.1536
  314loPI   GL1 5013  16.771  14.505   9.496  0.0140 -0.0588 -0.0760
  314loPI   GL2 5014  16.513  14.271   9.352 -0.2131  0.0999 -0.1398
  314loPI   C1A 5015  16.779  14.781   9.107 -0.0843  0.3309  0.0211
  314loPI   C2A 5016  16.893  14.811   8.644 -0.1266 -0.2203  0.1951
  314loPI   C3A 5017  16.992  15.050   8.302 -0.0454  0.2094  0.2737
  314loPI   C4A 5018  17.121  15.299   7.881  0.0264  0.0966  0.1705
  314loPI   C5A 5019  16.880  15.632   7.698 -0.1393 -0.1514 -0.0404
  314loPI   C6A 5020  16.971  15.615   7.318  0.2582 -0.1593  0.0477
  314loPI   C1B 5021  16.716  14.302   8.990 -0.0590  0.0744  0.1430
  314loPI   C2B 5022  16.960  14.038   8.629  0.2746 -0.1204 -0.0289
  314loPI   C3B 5023  17.080  13.823   8.220 -0.0791 -0.1032 -0.0177
  314loPI   C4B 5024  17.237  13.880   7.838 -0.1674 -0.2122  0.2752
  315loPI    C1 5025   6.569   2.028  10.504 -0.1837  0.0183 -0.0175
  315loPI    C2 5026   6.810   2.012  10.823 -0.0409  0.1023 -0.1200
  315loPI    C3 5027   6.413   1.996  10.871 -0.0197  0.0983  0.0600
  315loPI   PO4 5028   6.616   2.220  10.396  0.1614 -0.1259 -0.3306
  315loPI   GL1 5029   6.504   2.131   9.933  0.2248 -0.0578  0.1215
  315loPI   GL2 5030   6.283   2.194   9.684  0.0408  0.0744 -0.1060
  315loPI   C1A 5031   6.715   1.956   9.516 -0.0168 -0.1852  0.3294
  315loPI   C2A 5032   6.601   1.840   9.058 -0.2097  0.0480  0.1777
  315loPI   C3A 5033   6.451   1.929   8.720 -0.1158 -0.0007  0.3057
  315loPI   C4A 5034   6.621   1.738   8.440  0.2091 -0.0725  0.2036
  315loPI   C5A 5035   6.605   1.516   8.032  0.2188  0.1829  0.1309
  315loPI   C6A 5036   6.962   1.308   7.740 -0.2086 -0.0038  0.1655
  315loPI   C1B 5037   6.197   2.258   9.296  0.0539 -0.3083 -0.1002
  315loPI   C2B 5038   6.323   2.388   8.941 -0.0117 -0.0381 -0.2458
  315loPI   C3B 5039   6.258   2.339   8.511 -0.2528  0.0919  0.2254
  315loPI   C4B 5040   5.968   2.418   8.274  0.0466 -0.1004  0.0290
  316loPI    C1 5041  15.145  12.862  10.141 -0.0492 -0.0889 -0.3567
  316loPI    C2 5042  14.813  12.680  10.269 -0.1651  0.2675 -0.1338
  316loPI    C3 5043  14.793  13.052  10.124  0.1872  0.4379  0.2364
  316loPI   PO4 5044  15.259  12.643   9.965 -0.1005  0.0996 -0.0177
  316loPI   GL1 5045  15.275  12.743   9.534 -0.1628 -0.0691 -0.0195
  316loPI   GL2 5046  15.109  12.384   9.498  0.1076  0.0875  0.3479
  316loPI   C1A 5047  15.515  12.667   9.215  0.1304 -0.0469 -0.0060
  316loPI   C2A 5048  15.632  12.405   8.978 -0.4091  0.2836 -0.2440
  316loPI   C3A 5049  15.606  12.389   8.676  0.1886 -0.0212 -0.1487
  316loPI   C4A 5050  15.739  12.270   8.286 -0.2441 -0.2617 -0.1807
  316loPI   C5A 5051  15.869  12.417   7.899  0.1998  0.1022  0.1829
  316loPI   C6A 5052  15.885  12.666   7.568  0.0325  0.0724 -0.1443
  316loPI   C1B 5053  15.265  12.210   9.162  0.1544 -0.0376 -0.0897
  316loPI   C2B 5054  15.377  11.974   8.799 -0.1240  0.1785  0.3552
  316loPI   C3B 5055  15.478  11.728   8.492 -0.0312 -0.0867 -0.1740
  316loPI   C4B 5056  15.238  11.454   8.249  0.0547 -0.5469 -0.1069
  317loPI    C1 5057   9.639   0.906   9.989 -0.2698 -0.0458  0.0735
  317loPI    C2 5058   9.952   0.764  10.193 -0.1539 -0.0737 -0.1216
  317loPI    C3 5059   9.629   0.896  10.389  0.0861  0.2094  0.0931
  317loPI   PO4 5060   9.797   1.034   9.820 -0.1920  0.1450  0.2807
  317loPI   GL1 5061   9.960   1.100   9.432 -0.0648  0.1071  0.1691
  317loPI   GL2 5062  10.283   1.275   9.321 -0.1390  0.0793 -0.3046
  317loPI   C1A 5063  10.083   0.745   9.200 -0.2410  0.0443 -0.0728
  317loPI   C2A 5064   9.946   0.484   8.774 -0.0574  0.0416  0.0916
  317loPI   C3A 5065   9.737   0.235   8.787 -0.0867  0.0860  0.1192
  317loPI   C4A 5066   9.550   0.013   8.582 -0.0993  0.2326  0.1007
  317loPI   C5A 5067   9.355  -0.221   8.693  0.1096  0.0462 -0.1162
  317loPI   C6A 5068   9.084  -0.501   8.484  0.1769  0.3008  0.2505
  317loPI   C1B 5069  10.350   1.391   8.867 -0.0043 -0.4617  0.1686
  317loPI   C2B 5070  10.439   1.542   8.579  0.2354 -0.0464  0.3662
  317loPI   C3B 5071  10.291   1.690   8.218  0.0700 -0.0815 -0.0743
  317loPI   C4B 5072   9.992   1.599   7.962  0.1616  0.1755 -0.2187
  318loPI    C1 5073   8.146   8.348  10.343 -0.2121 -0.0949 -0.1186
  318loPI    C2 5074   8.287   7.989  10.238 -0.1173 -0.1150  0.0739
  318loPI    C3 5075   8.130   8.044  10.602 -0.0908  0.0497  0.0614
  318loPI   PO4 5076   7.934   8.378  10.165  0.0634 -0.0361 -0.0256
  318loPI   GL1 5077   7.759   8.263   9.757 -0.1451 -0.3770  0.1841
  318loPI   GL2 5078   8.079   8.003   9.782 -0.0771 -0.0154  0.0701
  318loPI   C1A 5079   7.804   8.657   9.463 -0.1556 -0.1783 -0.1341
  318loPI   C2A 5080   7.869   8.486   9.041  0.1080  0.1324  0.1178
  318loPI   C3A 5081   7.943   8.476   8.657 -0.2976  0.1693 -0.0744
  318loPI   C4A 5082   8.097   8.695   8.221 -0.1953 -0.0933  0.0656
  318loPI   C5A 5083   8.210   8.899   7.938 -0.0602  0.0351 -0.1126
  318loPI   C6A 5084   8.367   9.321   7.966 -0.1880 -0.0892  0.2666
  318loPI   C1B 5085   8.187   8.343   9.461 -0.1695  0.1503 -0.2700
  318loPI   C2B 5086   8.425   8.550   9.094  0.1708 -0.0318 -0.1564
  318loPI   C3B 5087   8.463   8.651   8.638 -0.0341 -0.3013 -0.3365
  318loPI   C4B 5088   8.624   8.890   8.202  0.0240  0.0980 -0.1772
  319loPI    C1 5089   6.991  10.798  10.296 -0.2996 -0.0217 -0.1064
  319loPI    C2 5090   7.096  10.600  10.627  0.1045 -0.0786 -0.2619
  319loPI    C3 5091   6.995  10.987  10.649 -0.1311 -0.1491 -0.0389
  319loPI   PO4 5092   7.238  10.714  10.131  0.0477 -0.2997  0.0724
  319loPI   GL1 5093   7.438  10.470   9.808  0.0508  0.0344  0.0047
  319loPI   GL2 5094   7.488  10.247   9.504  0.0953  0.0489 -0.0957
  319loPI   C1A 5095   7.038  10.402   9.398 -0.0461  0.0300 -0.1536
  319loPI   C2A 5096   7.040  10.469   8.911  0.1309  0.0462 -0.2405
  319loPI   C3A 5097   7.240  10.471   8.520  0.1460  0.1238  0.0640
  319loPI   C4A 5098   7.261  10.236   8.135 -0.4547  0.0361 -0.2262
  319loPI   C5A 5099   7.692  10.398   7.876  0.2362  0.1013  0.0348
  319loPI   C6A 5100   7.692  10.299   7.426 -0.0791 -0.1883 -0.1048
  319loPI   C1B 5101   7.428  10.146   8.965  0.0836  0.1218  0.1194
  319loPI   C2B 5102   7.256  10.017   8.545 -0.2085  0.2842 -0.3974
  319loPI   C3B 5103   7.090   9.710   8.060 -0.0342  0.0603 -0.1825
  319loPI   C4B 5104   6.803   9.804   7.722  0.2733  0.2003 -0.1186
  320loPI    C1 5105  13.361   8.321  10.012 -0.0445  0.0010  0.0360
  320loPI    C2 5106  13.680   8.241  10.240  0.0332 -0.2769 -0.1656
  320loPI    C3 5107  13.329   8.329  10.411  0.1579 -0.2081  0.0585
  320loPI   PO4 5108  13.476   8.430   9.790 -0.0088  0.0286  0.1070
  320loPI   GL1 5109  13.437   8.397   9.428  0.1725 -0.1457 -0.0894
  320loPI   GL2 5110  13.583   8.632   9.282 -0.1469  0.2467  0.1030
  320loPI   C1A 5111  13.368   8.329   8.929  0.0206  0.0191  0.1303
  320loPI   C2A 5112  13.443   8.373   8.383  0.2024 -0.3673  0.0101
  320loPI   C3A 5113  13.685   8.632   8.058  0.1390  0.2998 -0.0724
  320loPI   C4A 5114  13.812   9.038   7.968 -0.0035 -0.0462 -0.1203
  320loPI   C5A 5115  14.204   9.339   7.842  0.1770 -0.1858  0.2811
  320loPI   C6A 5116  14.532   9.691   7.653 -0.2206  0.0732 -0.4756
  320loPI   C1B 5117  13.853   8.771   8.958  0.3168  0.0609  0.1756
  320loPI   C2B 5118  13.934   8.863   8.500  0.1025 -0.0632  0.1967
  320loPI   C3B 5119  14.202   8.828   8.212 -0.0257  0.1494  0.0934
  320loPI   C4B 5120  14.312   8.828   7.776  0.1710 -0.1132  0.1196
  321loPI    C1 5121   9.288  14.599  10.153 -0.1360  0.0147 -0.0523
  321loPI    C2 5122   9.335  14.476  10.530  0.0885  0.1549 -0.0329
  321loPI    C3 5123   9.118  14.802  10.452 -0.1122  0.0207 -0.0428
  321loPI   PO4 5124   9.265  14.355  10.035  0.1809  0.0724 -0.2971
  321loPI   GL1 5125   9.253  14.000   9.722 -0.2729 -0.2733  0.0023
  321loPI   GL2 5126   9.470  13.857   9.557 -0.0153  0.0430 -0.2279
  321loPI   C1A 5127   9.089  14.253   9.362 -0.0462  0.2985 -0.1514
  321loPI   C2A 5128   9.210  14.491   8.991 -0.3001  0.2697  0.0968
  321loPI   C3A 5129   9.092  14.445   8.636  0.3392 -0.0083  0.0775
  321loPI   C4A 5130   9.214  14.189   8.297 -0.1734 -0.2365  0.0071
  321loPI   C5A 5131   9.248  14.219   7.880  0.1144 -0.1559 -0.0366
  321loPI   C6A 5132   9.555  14.276   7.521  0.1252 -0.3293  0.1908
  321loPI   C1B 5133   9.418  13.907   9.130  0.1996 -0.1151  0.0741
  321loPI   C2B 5134   9.202  13.986   8.762 -0.1834 -0.1170 -0.0777
  321loPI   C3B 5135   9.153  13.700   8.382 -0.1554 -0.1864  0.1396
  321loPI   C4B 5136   8.959  13.880   7.933 -0.4565  0.1881 -0.2785
  322loPI    C1 5137  11.542  17.713  10.067 -0.2754 -0.0693 -0.3281
  322loPI    C2 5138  11.839  17.448  10.030 -0.0608  0.1292 -0.0642
  322loPI    C3 5139  11.472  17.324  10.126 -0.0003 -0.0886 -0.1093
  322loPI   PO4 5140  11.517  17.991   9.802 -0.1783  0.0196 -0.3134
  322loPI   GL1 5141  11.484  18.096   9.401  0.1103 -0.0479  0.2661
  322loPI   GL2 5142  11.536  18.389   9.341  0.1755 -0.0963 -0.3124
  322loPI   C1A 5143  11.215  18.071   9.074 -0.2189  0.3370 -0.1332
  322loPI   C2A 5144  11.039  17.945   8.713  0.3261 -0.1483 -0.4333
  322loPI   C3A 5145  11.085  18.072   8.249  0.1490 -0.0098 -0.1299
  322loPI   C4A 5146  11.038  18.242   7.868  0.2398 -0.0421 -0.0600
  322loPI   C5A 5147  11.163  18.326   7.540  0.1413 -0.2375  0.0198
  322loPI   C6A 5148  11.167  18.614   7.152 -0.0810  0.3857 -0.0732
  322loPI   C1B 5149  11.808  18.336   8.967 -0.1493  0.0358  0.1398
  322loPI   C2B 5150  11.987  18.244   8.497 -0.4053 -0.3880  0.0497
  322loPI   C3B 5151  12.134  18.255   8.155  0.1212  0.0556 -0.0004
  322loPI   C4B 5152  12.101  18.072   7.739  0.0040 -0.2345 -0.1206
  323loPI    C1 5153   2.101  18.517  10.280 -0.1028 -0.0204 -0.0366
  323loPI    C2 5154   2.305  18.233  10.474 -0.2296  0.0441  0.1948
  323loPI    C3 5155   2.066  18.481  10.677 -0.2459  0.2121 -0.0264
  323loPI   PO4 5156   2.256  18.626  10.123  0.0884  0.2037 -0.1375
  323loPI   GL1 5157   2.222  18.863   9.784  0.2371  0.1040  0.2196
  323loPI   GL2 5158   2.334  18.535   9.617  0.2470 -0.0334  0.0821
  323loPI   C1A 5159   1.932  18.741   9.391  0.1575 -0.1483 -0.1072
  323loPI   C2A 5160   2.044  18.894   8.973  0.0729 -0.1313  0.0866
  323loPI   C3A 5161   2.148  18.976   8.560 -0.1577  0.1507 -0.1193
  323loPI   C4A 5162   2.438  18.780   8.257  0.0156  0.1094 -0.0611
  323loPI   C5A 5163   2.762  18.552   7.950 -0.0676 -0.3762  0.1878
  323loPI   C6A 5164   2.607  18.153   7.651 -0.0939  0.2516 -0.0541
  323loPI   C1B 5165   2.512  18.837   9.318  0.2656  0.0091 -0.0169
  323loPI   C2B 5166   2.551  19.046   8.906 -0.1342 -0.1405 -0.3183
  323loPI   C3B 5167   2.689  19.131   8.497 -0.1681  0.5099  0.2426
  323loPI   C4B 5168   2.850  18.962   8.101  0.2735  0.1739  0.0430
  324loPI    C1 5169   1.074  15.974   9.870  0.1949 -0.2558 -0.1965
  324loPI    C2 5170   1.288  15.661   9.999  0.0971 -0.1857  0.1462
  324loPI    C3 5171   1.394  16.033  10.103  0.0833 -0.1184 -0.0757
  324loPI   PO4 5172   0.966  15.904   9.507 -0.2414 -0.2089  0.1703
  324loPI   GL1 5173   0.793  16.065   9.136 -0.0620 -0.1009 -0.3508
  324loPI   GL2 5174   0.526  15.991   9.043  0.3868  0.0250 -0.1363
  324loPI   C1A 5175   0.933  16.064   8.759 -0.2916 -0.0580 -0.0472
  324loPI   C2A 5176   1.103  16.012   8.336  0.2029  0.0203  0.0659
  324loPI   C3A 5177   1.267  16.023   7.927  0.1702 -0.0171 -0.1873
  324loPI   C4A 5178   1.434  16.215   7.574 -0.2356  0.0355 -0.0705
  324loPI   C5A 5179   1.770  16.370   7.360  0.0233 -0.0698  0.0544
  324loPI   C6A 5180   2.074  16.376   7.217  0.0491  0.0953 -0.2011
  324loPI   C1B 5181   0.446  16.120   8.738 -0.0306  0.0407 -0.4313
  324loPI   C2B 5182   0.433  15.969   8.297  0.2996 -0.0201  0.0516
  324loPI   C3B 5183   0.513  16.002   7.925  0.1279  0.1133  0.1597
  324loPI   C4B 5184   0.260  15.895   7.615 -0.1446 -0.1333 -0.1488
  325loPI    C1 5185   9.316   4.862  10.409 -0.1922  0.0209  0.0625
  325loPI    C2 5186   9.598   5.132  10.495 -0.1978  0.0151  0.0991
  325loPI    C3 5187   9.638   4.754  10.620 -0.1383 -0.0264 -0.0431
  325loPI   PO4 5188   9.271   4.810  10.036  0.3137 -0.0215  0.0753
  325loPI   GL1 5189   9.383   4.868   9.624 -0.0534 -0.0753  0.0902
  325loPI   GL2 5190   9.269   5.277   9.533  0.0037  0.4323  0.0559
  325loPI   C1A 5191   9.513   4.627   9.226  0.1879  0.2253  0.2193
  325loPI   C2A 5192   9.495   4.262   8.989 -0.2111  0.1514 -0.1064
  325loPI   C3A 5193   9.717   4.062   8.577  0.1487  0.1308 -0.0114
  325loPI   C4A 5194  10.037   3.862   8.674  0.2113 -0.3601 -0.0548
  325loPI   C5A 5195  10.376   3.688   8.819 -0.3845 -0.0508  0.1764
  325loPI   C6A 5196  10.572   3.266   8.632 -0.0646 -0.3844 -0.1033
  325loPI   C1B 5197   9.090   5.276   9.185  0.0576  0.2542 -0.1503
  325loPI   C2B 5198   8.951   5.309   8.899  0.1076  0.0293  0.0553
  325loPI   C3B 5199   9.075   5.425   8.320 -0.3766  0.3811  0.0867
  325loPI   C4B 5200   9.040   5.411   7.891  0.0023  0.1493  0.0614
  326loPI    C1 5201  13.174   7.727  10.410  0.1006 -0.0323 -0.0552
  326loPI    C2 5202  13.485   7.910  10.583 -0.0422 -0.0031  0.1753
  326loPI    C3 5203  13.324   7.585  10.752  0.1006 -0.2446 -0.1420
  326loPI   PO4 5204  13.106   7.918  10.148  0.1671 -0.2256 -0.4397
  326loPI   GL1 5205  13.195   8.021   9.656 -0.0288  0.2800 -0.1540
  326loPI   GL2 5206  12.915   8.093   9.393 -0.3266 -0.2710 -0.1060
  326loPI   C1A 5207  13.313   7.885   9.202  0.0003  0.1707  0.1512
  326loPI   C2A 5208  13.296   7.840   8.754 -0.1286 -0.3330  0.1358
  326loPI   C3A 5209  13.310   7.903   8.245  0.0795 -0.0386 -0.3082
  326loPI   C4A 5210  13.237   7.470   7.943 -0.3195 -0.1938 -0.2151
  326loPI   C5A 5211  13.253   7.231   7.514  0.0154 -0.0257 -0.0980
  326loPI   C6A 5212  13.222   7.324   7.050 -0.2893 -0.2603  0.2501
  326loPI   C1B 5213  12.861   8.200   8.920 -0.0615  0.0328 -0.2824
  326loPI   C2B 5214  12.742   8.024   8.473 -0.1172 -0.0337  0.0967
  326loPI   C3B 5215  12.640   7.984   8.055  0.0172  0.0436  0.0454
  326loPI   C4B 5216  12.298   8.112   7.825  0.0113 -0.0225 -0.1725
  327loPI    C1 5217  17.821  10.625   9.900  0.0414 -0.0378  0.0528
  327loPI    C2 5218  18.076  10.345  10.029 -0.0246 -0.0986  0.0516
  327loPI    C3 5219  17.731  10.406  10.222 -0.1381 -0.2114 -0.1124
  327loPI   PO4 5220  18.005  10.842   9.846 -0.2605  0.0243 -0.1823
  327loPI   GL1 5221  17.816  11.049   9.440  0.1266  0.1492 -0.0396
  327loPI   GL2 5222  18.123  11.118   9.420 -0.2724  0.1122 -0.0819
  327loPI   C1A 5223  17.863  10.863   8.988 -0.1067 -0.2077  0.1671
  327loPI   C2A 5224  18.029  10.659   8.739  0.0376  0.1834  0.3653
  327loPI   C3A 5225  18.134  10.571   8.307 -0.0474  0.0961 -0.3710
  327loPI   C4A 5226  18.316  10.669   7.882  0.0614 -0.2180  0.1062
  327loPI   C5A 5227  18.558  10.572   7.530  0.1962  0.2599  0.0526
  327loPI   C6A 5228  19.013  10.535   7.410 -0.1455 -0.1854 -0.1006
  327loPI   C1B 5229  18.207  11.277   9.079  0.1604  0.1509 -0.1067
  327loPI   C2B 5230  18.075  11.259   8.612  0.1145  0.2852  0.1832
  327loPI   C3B 5231  18.078  11.027   8.286 -0.0992  0.0801  0.1176
  327loPI   C4B 5232  17.977  11.102   7.827 -0.2287 -0.0031  0.0390
  328loPI    C1 5233  14.417   3.666  10.112  0.1298  0.1872 -0.1250
  328loPI    C2 5234  14.679   3.404  10.264  0.0007 -0.0280 -0.2676
  328loPI    C3 5235  14.471   3.645  10.507  0.1634 -0.0158 -0.1393
  328loPI   PO4 5236  14.512   3.527   9.811 -0.3806  0.0156 -0.1278
  328loPI   GL1 5237  14.560   3.309   9.413 -0.2151 -0.0323  0.0165
  328loPI   GL2 5238  14.609   3.572   9.299  0.2951  0.0582 -0.1668
  328loPI   C1A 5239  14.604   3.181   9.020 -0.0405  0.2685  0.0674
  328loPI   C2A 5240  14.579   3.004   8.507 -0.0417  0.1047 -0.0894
  328loPI   C3A 5241  14.554   2.879   8.064 -0.2565 -0.2125  0.2208
  328loPI   C4A 5242  14.732   2.833   7.677 -0.1877  0.0038  0.3445
  328loPI   C5A 5243  14.524   2.841   7.252  0.2865  0.1788 -0.2941
  328loPI   C6A 5244  14.408   3.057   6.899 -0.1058  0.1109  0.0039
  328loPI   C1B 5245  14.416   3.737   8.920 -0.0974 -0.2017  0.3166
  328loPI   C2B 5246  14.341   3.633   8.437 -0.1880 -0.2626  0.1435
  328loPI   C3B 5247  14.372   3.408   8.019  0.0796 -0.0341  0.0107
  328loPI   C4B 5248  14.492   3.423   7.646 -0.0678 -0.2352 -0.3553
  329loPI    C1 5249   3.259   5.432  10.325 -0.0779 -0.1243 -0.1060
  329loPI    C2 5250   3.354   5.044  10.350  0.1103 -0.0695  0.0555
  329loPI    C3 5251   3.239   5.243  10.677  0.5317  0.1395  0.0827
  329loPI   PO4 5252   3.151   5.512  10.107  0.2557  0.0390 -0.0235
  329loPI   GL1 5253   2.854   5.635   9.750  0.0059  0.1528  0.1256
  329loPI   GL2 5254   2.849   5.921   9.624 -0.0736  0.0014 -0.0542
  329loPI   C1A 5255   2.769   5.563   9.274  0.0491 -0.3089 -0.1985
  329loPI   C2A 5256   2.711   5.590   8.822 -0.2142 -0.0561 -0.1287
  329loPI   C3A 5257   2.807   5.580   8.534  0.0964 -0.0647  0.0024
  329loPI   C4A 5258   2.796   5.637   8.133 -0.1115  0.3616 -0.0991
  329loPI   C5A 5259   2.812   5.315   7.805  0.1505 -0.1835 -0.0452
  329loPI   C6A 5260   2.654   4.957   7.507  0.0830 -0.0063 -0.1978
  329loPI   C1B 5261   2.990   6.032   9.190 -0.1516 -0.1110  0.3255
  329loPI   C2B 5262   2.981   6.082   8.762 -0.0285 -0.0271  0.1102
  329loPI   C3B 5263   2.994   6.066   8.365  0.0759 -0.2423  0.1213
  329loPI   C4B 5264   3.149   6.174   7.904  0.0697  0.2703 -0.3588
  330loPI    C1 5265  17.045   4.017  10.328 -0.2354  0.0899 -0.1626
  330loPI    C2 5266  16.685   3.881  10.220 -0.4539  0.4383  0.1073
  330loPI    C3 5267  16.716   4.158  10.507  0.0662  0.0112  0.4800
  330loPI   PO4 5268  17.196   4.076  10.155  0.1500 -0.0670  0.1340
  330loPI   GL1 5269  17.253   4.007   9.728 -0.0389  0.0131 -0.3639
  330loPI   GL2 5270  17.134   3.867   9.567 -0.1739 -0.1548  0.3083
  330loPI   C1A 5271  17.578   4.096   9.346 -0.1589 -0.1272  0.0761
  330loPI   C2A 5272  17.993   4.055   9.149 -0.0986 -0.3065  0.0101
  330loPI   C3A 5273  18.154   3.821   8.779  0.0029  0.2378 -0.1384
  330loPI   C4A 5274  18.183   3.735   8.394  0.0387  0.0525 -0.0744
  330loPI   C5A 5275  18.139   3.542   7.943  0.1239 -0.0329  0.1361
  330loPI   C6A 5276  17.887   3.621   7.615 -0.1768  0.3240  0.1452
  330loPI   C1B 5277  17.019   3.653   9.213  0.1845  0.3309  0.2196
  330loPI   C2B 5278  16.992   3.727   8.832 -0.2078 -0.4456  0.0762
  330loPI   C3B 5279  17.151   3.781   8.524 -0.1559 -0.2810  0.0011
  330loPI   C4B 5280  17.256   3.754   8.068 -0.1819  0.0496 -0.2496
  331loPI    C1 5281   1.542   5.216  10.335  0.1128  0.1457  0.0722
  331loPI    C2 5282   1.910   5.068  10.389  0.1751  0.2602 -0.0330
  331loPI    C3 5283   1.789   5.384  10.602  0.0431  0.0631  0.1897
  331loPI   PO4 5284   1.529   5.189  10.048  0.1196 -0.2673  0.1068
  331loPI   GL1 5285   1.192   4.998   9.736 -0.1205 -0.1466 -0.1291
  331loPI   GL2 5286   1.024   4.817   9.638 -0.1886 -0.1328 -0.0118
  331loPI   C1A 5287   1.287   5.346   9.497 -0.2548  0.0052 -0.1311
  331loPI   C2A 5288   1.312   5.380   9.070  0.0980 -0.0910 -0.3891
  331loPI   C3A 5289   1.254   5.394   8.726 -0.4516  0.2902  0.1513
  331loPI   C4A 5290   1.388   5.482   8.322  0.0441 -0.0123  0.1476
  331loPI   C5A 5291   1.384   5.813   8.024 -0.0523 -0.0578 -0.3432
  331loPI   C6A 5292   1.163   6.159   7.663  0.0501 -0.0178 -0.1138
  331loPI   C1B 5293   1.225   4.809   9.232  0.0593 -0.0106  0.1900
  331loPI   C2B 5294   1.269   4.901   8.845 -0.1661 -0.3000 -0.1150
  331loPI   C3B 5295   1.151   4.970   8.400 -0.0443  0.0744 -0.0456
  331loPI   C4B 5296   1.259   5.187   7.914 -0.0453 -0.0297  0.2451
  332loPI    C1 5297  13.195  14.080   9.934 -0.1838  0.1272 -0.0506
  332loPI    C2 5298  13.224  14.234  10.302  0.0231  0.1134 -0.0604
  332loPI    C3 5299  13.290  13.844  10.242 -0.2335  0.0714 -0.0780
  332loPI   PO4 5300  12.969  14.221   9.872 -0.1260  0.0911  0.0153
  332loPI   GL1 5301  12.993  14.368   9.490 -0.2198 -0.1334  0.1917
  332loPI   GL2 5302  13.188  14.179   9.397 -0.0284 -0.0534  0.0918
  332loPI   C1A 5303  12.958  14.647   9.134  0.2171  0.0303 -0.0101
  332loPI   C2A 5304  12.944  14.739   8.607  0.3533 -0.2448 -0.0957
  332loPI   C3A 5305  12.768  14.858   8.172  0.2671 -0.2180 -0.2337
  332loPI   C4A 5306  12.344  14.980   8.140 -0.1539 -0.0355  0.0467
  332loPI   C5A 5307  12.053  15.017   7.995  0.2744 -0.1507  0.1936
  332loPI   C6A 5308  11.814  14.996   7.655  0.2139 -0.0310 -0.0869
  332loPI   C1B 5309  13.296  14.175   8.975  0.4031 -0.1636 -0.2588
  332loPI   C2B 5310  13.337  14.396   8.833  0.3364 -0.2984  0.3324
  332loPI   C3B 5311  13.359  14.400   8.346 -0.1458 -0.0716  0.2219
  332loPI   C4B 5312  13.536  14.453   7.937 -0.0586  0.1663  0.0016
  333loPI    C1 5313   7.135   2.154  10.402 -0.0836  0.2011 -0.1974
  333loPI    C2 5314   7.364   2.478  10.349  0.1545  0.0800  0.0666
  333loPI    C3 5315   7.034   2.501  10.573  0.1942  0.1307  0.1204
  333loPI   PO4 5316   7.075   2.062  10.226  0.4290 -0.0298  0.0113
  333loPI   GL1 5317   7.219   1.745   9.885  0.0757 -0.2248  0.1013
  333loPI   GL2 5318   7.388   1.500   9.814  0.0365  0.0953 -0.0894
  333loPI   C1A 5319   6.918   1.495   9.689 -0.1120 -0.3336  0.0814
  333loPI   C2A 5320   6.868   1.452   9.271  0.2097 -0.1128 -0.0640
  333loPI   C3A 5321   6.776   1.367   8.774  0.0414  0.0766  0.3866
  333loPI   C4A 5322   6.617   1.065   8.406 -0.1643 -0.2694 -0.1375
  333loPI   C5A 5323   6.812   0.884   8.059  0.1790  0.0342  0.0324
  333loPI   C6A 5324   7.272   0.873   7.969 -0.1340 -0.1795  0.0966
  333loPI   C1B 5325   7.309   1.241   9.468  0.1790 -0.0050 -0.3139
  333loPI   C2B 5326   7.336   1.213   9.080 -0.0230 -0.0321 -0.0113
  333loPI   C3B 5327   7.316   1.267   8.654 -0.1361  0.1731  0.3083
  333loPI   C4B 5328   7.054   1.330   8.237 -0.0759 -0.0496  0.0815
  334loPI    C1 5329   5.742   8.585   9.942 -0.0306 -0.0559  0.0685
  334loPI    C2 5330   5.939   8.285  10.118  0.1647  0.0651  0.0588
  334loPI    C3 5331   5.896   8.635  10.307 -0.2550 -0.0362  0.1626
  334loPI   PO4 5332   5.583   8.377   9.828  0.2328  0.0892  0.1173
  334loPI   GL1 5333   5.610   8.253   9.502 -0.3752 -0.2509  0.0556
  334loPI   GL2 5334   5.839   8.567   9.413 -0.0020 -0.0145 -0.4585
  334loPI   C1A 5335   5.848   8.169   9.102  0.2579 -0.0542  0.0681
  334loPI   C2A 5336   5.959   8.369   8.752 -0.2634 -0.1461  0.0026
  334loPI   C3A 5337   6.096   8.461   8.451 -0.1540  0.2229 -0.0862
  334loPI   C4A 5338   6.114   8.805   8.142  0.2709  0.0184  0.0731
  334loPI   C5A 5339   5.962   8.720   7.742 -0.1914  0.0398  0.1447
  334loPI   C6A 5340   5.871   9.034   7.512  0.1382 -0.1341 -0.1156
  334loPI   C1B 5341   5.505   8.520   9.118 -0.1022  0.0839  0.1864
  334loPI   C2B 5342   5.434   8.356   8.785 -0.1250  0.1146 -0.0652
  334loPI   C3B 5343   5.568   8.153   8.403  0.0443 -0.1977 -0.0172
  334loPI   C4B 5344   5.636   8.338   7.978 -0.2301 -0.1613  0.4970
  335loPI    C1 5345   3.328   3.722  10.224  0.0279  0.0682  0.0234
  335loPI    C2 5346   3.593   3.713   9.925  0.0186 -0.2054  0.0212
  335loPI    C3 5347   3.309   3.433   9.949 -0.1141 -0.0603  0.1660
  335loPI   PO4 5348   3.262   3.891  10.233  0.0118  0.0705  0.1859
  335loPI   GL1 5349   2.904   3.995   9.858  0.1328  0.1353 -0.0597
  335loPI   GL2 5350   2.910   3.678   9.822  0.2940 -0.0735 -0.1813
  335loPI   C1A 5351   2.948   4.081   9.330 -0.0872  0.0030 -0.0777
  335loPI   C2A 5352   2.942   4.069   8.865  0.3640 -0.3111  0.3388
  335loPI   C3A 5353   3.021   3.875   8.430  0.0918  0.0682  0.0449
  335loPI   C4A 5354   2.920   3.759   8.041  0.1897  0.2590  0.1613
  335loPI   C5A 5355   2.724   3.492   7.872 -0.2758  0.0011 -0.1423
  335loPI   C6A 5356   2.728   3.273   7.436  0.1528 -0.1653  0.1184
  335loPI   C1B 5357   3.259   3.760   9.604 -0.1485  0.1951  0.2110
  335loPI   C2B 5358   3.318   3.820   9.144  0.2442  0.0112 -0.0134
  335loPI   C3B 5359   3.477   3.787   8.696  0.2806 -0.1529  0.0771
  335loPI   C4B 5360   3.471   3.666   8.330 -0.0946 -0.0645 -0.0177
  336loPI    C1 5361  18.897   1.107  10.421 -0.1194 -0.0573  0.0195
  336loPI    C2 5362  18.569   1.266  10.585 -0.0580  0.1576 -0.0622
  336loPI    C3 5363  18.678   0.893  10.677 -0.2793  0.1138  0.0280
  336loPI   PO4 5364  18.783   1.230  10.101 -0.2098 -0.0539 -0.0693
  336loPI   GL1 5365  18.702   1.193   9.662 -0.1079 -0.0591  0.0984
  336loPI   GL2 5366  18.412   1.195   9.397 -0.0981  0.0586 -0.1670
  336loPI   C1A 5367  18.935   1.211   9.353  0.1837  0.2488 -0.0561
  336loPI   C2A 5368  18.993   1.276   8.935  0.0793 -0.1036  0.2389
  336loPI   C3A 5369  18.884   1.384   8.552 -0.1560 -0.1947 -0.1514
  336loPI   C4A 5370  18.742   1.306   8.160  0.0403 -0.1383  0.1006
  336loPI   C5A 5371  18.384   1.136   7.920 -0.3223 -0.0542 -0.3183
  336loPI   C6A 5372  18.006   1.200   7.692 -0.1629  0.0149 -0.0080
  336loPI   C1B 5373  18.499   1.003   9.079  0.3716 -0.4521  0.0043
  336loPI   C2B 5374  18.665   0.899   8.629  0.1415 -0.2120  0.1016
  336loPI   C3B 5375  18.597   0.793   8.199 -0.3771 -0.0928 -0.1473
  336loPI   C4B 5376  18.679   0.700   7.722  0.1614 -0.0552  0.2105
  337loPI    C1 5377   2.674  10.716  10.188  0.1442  0.2888  0.0379
  337loPI    C2 5378   2.929  11.023  10.208  0.1484  0.2700  0.3078
  337loPI    C3 5379   2.836  10.819  10.539  0.1820 -0.0502  0.1236
  337loPI   PO4 5380   2.802  10.603   9.909 -0.1339 -0.1927 -0.0592
  337loPI   GL1 5381   2.954  10.730   9.493  0.2233 -0.3039  0.0153
  337loPI   GL2 5382   3.281  10.715   9.375  0.1202 -0.1888  0.1311
  337loPI   C1A 5383   2.788  10.432   9.155 -0.3495  0.3864  0.0038
  337loPI   C2A 5384   2.686  10.480   8.774  0.1091  0.3661  0.1172
  337loPI   C3A 5385   2.482  10.728   8.440  0.1056 -0.5556  0.1111
  337loPI   C4A 5386   2.478  10.701   8.016  0.1820  0.3997 -0.0085
  337loPI   C5A 5387   2.467  10.409   7.662  0.0053 -0.0612 -0.2629
  337loPI   C6A 5388   2.777  10.324   7.430 -0.3026 -0.1653 -0.2088
  337loPI   C1B 5389   3.134  11.126   9.176 -0.3361 -0.2536  0.3178
  337loPI   C2B 5390   3.103  11.319   8.810 -0.2453 -0.2166 -0.3382
  337loPI   C3B 5391   3.191  11.276   8.320 -0.0127 -0.0241  0.2047
  337loPI   C4B 5392   3.228  11.321   8.009  0.3829 -0.1023  0.3525
  338loPI    C1 5393   9.744   7.161  10.447 -0.1222 -0.0541 -0.1055
  338loPI    C2 5394  10.007   6.896  10.590 -0.1773 -0.1380 -0.1595
  338loPI    C3 5395  10.067   7.287  10.648  0.0263 -0.1492 -0.2808
  338loPI   PO4 5396   9.844   7.142  10.116 -0.0957  0.1760  0.2470
  338loPI   GL1 5397   9.875   7.367   9.821  0.1422 -0.1500 -0.1180
  338loPI   GL2 5398   9.842   7.026   9.617  0.2086 -0.1182 -0.2515
  338loPI   C1A 5399  10.214   7.275   9.517 -0.2536  0.1574  0.2743
  338loPI   C2A 5400  10.131   7.215   9.113 -0.1268 -0.0531 -0.4623
  338loPI   C3A 5401   9.883   6.883   8.851 -0.1940  0.0011  0.0243
  338loPI   C4A 5402   9.890   6.838   8.419 -0.2733  0.1013 -0.1078
  338loPI   C5A 5403   9.916   6.447   8.192  0.1131 -0.1234  0.0516
  338loPI   C6A 5404   9.655   6.156   8.159 -0.0477  0.0407  0.3479
  338loPI   C1B 5405   9.565   7.093   9.241 -0.2079 -0.0066  0.1141
  338loPI   C2B 5406   9.518   7.205   8.890  0.2442 -0.1636  0.0632
  338loPI   C3B 5407   9.335   7.421   8.573  0.1171 -0.0193 -0.3650
  338loPI   C4B 5408   9.188   7.544   8.206 -0.1589 -0.1339  0.1289
  339loPI    C1 5409   3.997   4.068  10.112  0.1011  0.1703  0.0682
  339loPI    C2 5410   3.779   3.860  10.375  0.0417 -0.0975 -0.1872
  339loPI    C3 5411   3.633   4.197  10.216  0.0288  0.0007  0.0291
  339loPI   PO4 5412   4.087   3.761  10.032 -0.1781 -0.0386  0.5982
  339loPI   GL1 5413   4.128   3.592   9.652 -0.1593  0.0510 -0.0778
  339loPI   GL2 5414   4.366   3.989   9.629  0.0406  0.3854 -0.0139
  339loPI   C1A 5415   4.253   3.333   9.243 -0.0413 -0.0211 -0.2680
  339loPI   C2A 5416   4.324   3.258   8.822 -0.2896  0.1397 -0.0000
  339loPI   C3A 5417   4.403   3.240   8.394  0.1469 -0.3121  0.1245
  339loPI   C4A 5418   4.294   3.440   7.959  0.0480 -0.1078  0.1326
  339loPI   C5A 5419   4.069   3.557   7.478  0.2515  0.0127  0.1671
  339loPI   C6A 5420   3.718   3.620   7.305 -0.2042 -0.0014 -0.1072
  339loPI   C1B 5421   4.432   3.793   9.263  0.0479  0.0478  0.4192
  339loPI   C2B 5422   4.388   3.756   8.829 -0.3336  0.2330  0.0703
  339loPI   C3B 5423   4.567   3.766   8.501 -0.0242 -0.3383 -0.1922
  339loPI   C4B 5424   4.717   3.726   8.106  0.0328  0.1012 -0.0661
  340loPI    C1 5425   3.923  15.584  10.245  0.1147 -0.1530  0.0815
  340loPI    C2 5426   4.162  15.895  10.327 -0.2295  0.0606  0.3003
  340loPI    C3 5427   4.241  15.535  10.483  0.2962 -0.0237 -0.1307
  340loPI   PO4 5428   3.861  15.654   9.970  0.2034 -0.1450  0.0304
  340loPI   GL1 5429   3.771  15.534   9.537  0.4926 -0.1831 -0.2906
  340loPI   GL2 5430   3.901  15.828   9.499  0.0364  0.0284  0.0358
  340loPI   C1A 5431   3.774  15.255   9.141  0.2530 -0.0652  0.1525
  340loPI   C2A 5432   3.717  15.152   8.760  0.1093  0.1166  0.0618
  340loPI   C3A 5433   3.894  15.140   8.347 -0.1540  0.1952  0.1170
  340loPI   C4A 5434   3.961  15.202   7.946  0.1963 -0.2820 -0.1210
  340loPI   C5A 5435   3.894  15.341   7.523  0.3495 -0.2945  0.1766
  340loPI   C6A 5436   3.797  15.716   7.379  0.0209 -0.3271  0.2989
  340loPI   C1B 5437   3.942  15.712   9.017  0.2007  0.0898 -0.0384
  340loPI   C2B 5438   3.898  15.631   8.673  0.3793 -0.0962 -0.0553
  340loPI   C3B 5439   3.974  15.641   8.255 -0.1081  0.1868  0.2655
  340loPI   C4B 5440   4.038  15.735   7.794 -0.2959  0.4381  0.0881
  341loPI    C1 5441  13.923   0.430   9.834 -0.0738 -0.2254  0.3220
  341loPI    C2 5442  13.589   0.594   9.688  0.3298  0.1366 -0.2351
  341loPI    C3 5443  13.756   0.743  10.019  0.1022  0.1425 -0.1208
  341loPI   PO4 5444  14.099   0.379   9.597 -0.3366  0.1088  0.1829
  341loPI   GL1 5445  14.320   0.426   9.271 -0.2881  0.1752 -0.0030
  341loPI   GL2 5446  14.210   0.851   9.277  0.0248 -0.0260  0.1005
  341loPI   C1A 5447  14.429   0.480   8.735 -0.0247 -0.3371 -0.1708
  341loPI   C2A 5448  14.583   0.325   8.268 -0.0464 -0.2562  0.3250
  341loPI   C3A 5449  14.761   0.132   7.819  0.2056 -0.1513  0.1390
  341loPI   C4A 5450  14.889  -0.138   7.441 -0.3168  0.1059  0.0491
  341loPI   C5A 5451  14.565  -0.449   7.378  0.0531  0.1330  0.0740
  341loPI   C6A 5452  14.169  -0.525   7.119 -0.2387 -0.0053  0.0696
  341loPI   C1B 5453  13.941   0.932   8.941 -0.0079 -0.1422  0.0672
  341loPI   C2B 5454  13.956   1.052   8.504 -0.3362 -0.0591  0.0383
  341loPI   C3B 5455  14.310   1.328   8.381  0.0638  0.0347  0.1490
  341loPI   C4B 5456  14.656   1.664   8.323 -0.1452 -0.0165 -0.1528
  342loPI    C1 5457  14.295  18.496   9.899  0.0660 -0.0790  0.1118
  342loPI    C2 5458  14.087  18.772   9.696 -0.0588 -0.2435  0.0130
  342loPI    C3 5459  14.402  18.881   9.918 -0.2574  0.0110  0.1757
  342loPI   PO4 5460  14.239  18.229   9.729  0.0809  0.2240 -0.1070
  342loPI   GL1 5461  14.393  18.193   9.220  0.1896 -0.1343  0.0010
  342loPI   GL2 5462  14.307  17.985   9.297 -0.1380 -0.2534  0.0852
  342loPI   C1A 5463  14.645  18.338   8.919 -0.0440  0.2403  0.0922
  342loPI   C2A 5464  14.770  18.195   8.590  0.0181 -0.1651  0.1782
  342loPI   C3A 5465  15.000  17.967   8.328 -0.1571  0.1065 -0.1750
  342loPI   C4A 5466  15.195  17.936   7.911  0.0100  0.0386  0.3687
  342loPI   C5A 5467  15.135  18.134   7.443  0.0158  0.1729  0.3329
  342loPI   C6A 5468  14.871  18.262   7.092  0.0144 -0.3101  0.1844
  342loPI   C1B 5469  14.273  17.899   8.858  0.1938  0.1587 -0.0393
  342loPI   C2B 5470  14.408  17.912   8.381  0.1981 -0.0842  0.1713
  342loPI   C3B 5471  14.307  18.024   8.008  0.0225 -0.2976 -0.1011
  342loPI   C4B 5472  14.579  18.076   7.750  0.2108 -0.3407  0.0757
  343loPI    C1 5473  10.864  13.952  10.152  0.0468  0.0419  0.0835
  343loPI    C2 5474  10.601  13.682  10.019 -0.1003  0.1821  0.0859
  343loPI    C3 5475  10.938  13.562  10.198 -0.1880  0.0014  0.1320
  343loPI   PO4 5476  10.718  14.152  10.002 -0.1576  0.2248  0.2341
  343loPI   GL1 5477  10.608  14.412   9.644  0.0615  0.0889 -0.1146
  343loPI   GL2 5478  10.444  14.228   9.569  0.1350 -0.2063 -0.1066
  343loPI   C1A 5479  10.691  14.449   9.162 -0.1890 -0.3438 -0.1541
  343loPI   C2A 5480  10.467  14.475   8.781  0.0607 -0.1523 -0.0128
  343loPI   C3A 5481  10.265  14.481   8.296 -0.1648  0.0628  0.1721
  343loPI   C4A 5482  10.316  14.367   7.871 -0.0113  0.1795 -0.1959
  343loPI   C5A 5483  10.050  14.057   7.572 -0.1732 -0.0282  0.0691
  343loPI   C6A 5484  10.102  13.749   7.269  0.2423 -0.1885 -0.0090
  343loPI   C1B 5485  10.575  13.975   9.251  0.1648  0.0528 -0.2068
  343loPI   C2B 5486  10.657  13.996   8.825 -0.3038 -0.0045  0.2490
  343loPI   C3B 5487  10.582  13.993   8.365 -0.1365 -0.1596  0.3508
  343loPI   C4B 5488  10.642  13.883   7.945 -0.2044  0.0789 -0.0075
  344loPI    C1 5489   2.721   9.827  10.437  0.2193  0.0210 -0.1695
  344loPI    C2 5490   2.691   9.464  10.605 -0.2244 -0.0499 -0.3871
  344loPI    C3 5491   2.657   9.793  10.831  0.3735 -0.1340 -0.1568
  344loPI   PO4 5492   2.668   9.672  10.149  0.1309 -0.0426  0.2291
  344loPI   GL1 5493   2.599   9.927   9.860  0.4140 -0.0268  0.0163
  344loPI   GL2 5494   2.633  10.164   9.731  0.3321 -0.0644  0.0051
  344loPI   C1A 5495   2.300   9.793   9.590 -0.0440  0.1151 -0.2320
  344loPI   C2A 5496   2.065   9.864   9.161  0.1151 -0.3186 -0.0321
  344loPI   C3A 5497   1.839  10.294   8.895 -0.0105  0.4557 -0.1432
  344loPI   C4A 5498   1.520  10.382   8.718  0.2861 -0.0521  0.0238
  344loPI   C5A 5499   1.487  10.547   8.248  0.2062 -0.0569  0.2080
  344loPI   C6A 5500   1.219  10.547   7.860  0.3575  0.0185 -0.0972
  344loPI   C1B 5501   2.741   9.998   9.336 -0.1551 -0.0515  0.3675
  344loPI   C2B 5502   2.667   9.741   8.996 -0.1477  0.1254  0.2722
  344loPI   C3B 5503   2.641   9.712   8.569  0.4018  0.0695 -0.0371
  344loPI   C4B 5504   2.876   9.845   8.306 -0.0316 -0.2232 -0.2232
  345loPI    C1 5505   2.963  13.494   9.849 -0.1343  0.0362  0.1191
  345loPI    C2 5506   3.053  13.708  10.175 -0.0621  0.1907 -0.0011
  345loPI    C3 5507   2.862  13.359  10.212 -0.1021  0.2330  0.2029
  345loPI   PO4 5508   2.887  13.611   9.691 -0.5525 -0.1767  0.1096
  345loPI   GL1 5509   2.959  13.625   9.261  0.1796 -0.0627  0.0285
  345loPI   GL2 5510   2.629  13.653   9.160  0.1361 -0.1252  0.2359
  345loPI   C1A 5511   3.255  13.709   8.895  0.2536 -0.5568 -0.3101
  345loPI   C2A 5512   3.467  13.708   8.389 -0.0039  0.4399 -0.0874
  345loPI   C3A 5513   3.814  13.623   8.198  0.1490 -0.2280  0.0374
  345loPI   C4A 5514   3.939  13.469   7.825 -0.2330 -0.0770  0.1463
  345loPI   C5A 5515   4.279  13.766   7.682 -0.0238 -0.0540  0.0232
  345loPI   C6A 5516   4.567  13.925   7.586 -0.0715  0.2081 -0.5055
  345loPI   C1B 5517   2.281  13.692   8.892 -0.1675 -0.3087 -0.4622
  345loPI   C2B 5518   2.157  13.581   8.457  0.0175  0.0497  0.0998
  345loPI   C3B 5519   2.004  13.540   8.062 -0.0413  0.3041  0.2592
  345loPI   C4B 5520   2.077  13.755   7.610 -0.1322  0.2854 -0.1424
  346loPI    C1 5521   0.764   1.146  10.049 -0.1012  0.1209  0.0676
  346loPI    C2 5522   0.411   1.195  10.230 -0.0661  0.0799  0.1477
  346loPI    C3 5523   0.608   0.849  10.266 -0.0430  0.0834  0.0584
  346loPI   PO4 5524   0.663   1.237   9.807 -0.0584  0.3156  0.3038
  346loPI   GL1 5525   0.626   1.370   9.488 -0.0837 -0.2538  0.1427
  346loPI   GL2 5526   0.391   1.434   9.349  0.1652  0.3940  0.1396
  346loPI   C1A 5527   0.826   1.401   9.175  0.0738  0.1037 -0.0873
  346loPI   C2A 5528   0.942   1.615   8.785  0.0156  0.0592  0.1836
  346loPI   C3A 5529   1.023   1.699   8.361 -0.4571 -0.0611 -0.0726
  346loPI   C4A 5530   0.843   1.622   7.940  0.0821  0.0244 -0.2109
  346loPI   C5A 5531   0.915   1.329   7.538 -0.3132  0.1162 -0.1844
  346loPI   C6A 5532   1.049   0.912   7.422 -0.0606  0.1537 -0.0481
  346loPI   C1B 5533   0.465   1.526   8.893  0.0824 -0.0988  0.0387
  346loPI   C2B 5534   0.493   1.624   8.418 -0.2267 -0.0030 -0.0990
  346loPI   C3B 5535   0.212   1.587   8.063  0.1823  0.1634 -0.0055
  346loPI   C4B 5536  -0.153   1.520   7.768 -0.0632 -0.0622  0.1581
  347loPI    C1 5537   8.355  16.729  10.179  0.1250 -0.1506 -0.0068
  347loPI    C2 5538   8.657  16.531  10.007  0.0897 -0.1914 -0.0220
  347loPI    C3 5539   8.693  16.664  10.383  0.2114  0.0004 -0.0996
  347loPI   PO4 5540   8.280  16.913   9.992  0.2849  0.3192  0.0467
  347loPI   GL1 5541   8.284  16.857   9.584  0.0408  0.3416  0.2811
  347loPI   GL2 5542   8.470  16.653   9.591 -0.2482  0.0164 -0.1967
  347loPI   C1A 5543   8.250  17.100   9.184 -0.1577 -0.0516  0.0149
  347loPI   C2A 5544   8.321  17.087   8.774 -0.0173  0.1948  0.0420
  347loPI   C3A 5545   8.703  17.275   8.523 -0.2920  0.1850  0.0403
  347loPI   C4A 5546   8.681  17.463   8.176 -0.2442  0.0403  0.2155
  347loPI   C5A 5547   8.783  17.311   7.741 -0.1172  0.0634  0.0510
  347loPI   C6A 5548   9.144  17.321   7.467  0.1417 -0.0028 -0.0222
  347loPI   C1B 5549   8.501  16.600   9.201 -0.2455  0.0219  0.3087
  347loPI   C2B 5550   8.621  16.723   8.853 -0.3503 -0.1537 -0.0469
  347loPI   C3B 5551   8.648  16.785   8.357 -0.1346 -0.0666  0.0399
  347loPI   C4B 5552   8.335  17.079   8.219 -0.0921  0.2059 -0.0811
  348loPI    C1 5553   6.952  11.693  10.179 -0.1013 -0.1118  0.4577
  348loPI    C2 5554   6.559  11.723  10.111 -0.0608 -0.0592  0.2395
  348loPI    C3 5555   6.765  12.042  10.236  0.0190  0.0782 -0.2242
  348loPI   PO4 5556   7.019  11.583   9.910 -0.0269 -0.0387  0.2823
  348loPI   GL1 5557   7.136  11.314   9.676 -0.0191  0.0357  0.0573
  348loPI   GL2 5558   7.364  11.003   9.769  0.2099 -0.1750  0.0757
  348loPI   C1A 5559   7.177  11.385   9.242  0.5233  0.1954 -0.2084
  348loPI   C2A 5560   7.279  11.334   8.829  0.2394  0.1079  0.1718
  348loPI   C3A 5561   7.334  11.416   8.485 -0.1627 -0.1094 -0.2319
  348loPI   C4A 5562   7.285  11.581   8.019 -0.0631 -0.1418 -0.0135
  348loPI   C5A 5563   7.039  11.760   7.800 -0.2205  0.0566  0.0393
  348loPI   C6A 5564   6.837  12.126   7.825 -0.0060  0.1843 -0.0287
  348loPI   C1B 5565   7.416  10.786   9.320  0.1518  0.0507  0.2437
  348loPI   C2B 5566   7.459  10.753   8.860  0.2083  0.1030 -0.1117
  348loPI   C3B 5567   7.627  10.770   8.372 -0.0314  0.0000 -0.0424
  348loPI   C4B 5568   7.826  10.921   8.032  0.0644  0.1316  0.2696
  349loPI    C1 5569  17.194   7.691  10.294  0.1052 -0.0018  0.1081
  349loPI    C2 5570  17.112   7.644  10.683  0.1337  0.1418  0.1321
  349loPI    C3 5571  17.114   7.327  10.439 -0.1221  0.0837  0.2027
  349loPI   PO4 5572  17.081   7.910  10.150 -0.2317  0.2004  0.0500
  349loPI   GL1 5573  17.071   8.062   9.812 -0.3061 -0.0687 -0.1979
  349loPI   GL2 5574  17.422   8.150   9.733 -0.0167  0.1326 -0.2397
  349loPI   C1A 5575  16.777   7.853   9.507  0.3237  0.0759 -0.1153
  349loPI   C2A 5576  16.633   7.936   9.027  0.0230  0.2028  0.1542
  349loPI   C3A 5577  16.733   7.959   8.547  0.2017 -0.2796  0.0081
  349loPI   C4A 5578  16.772   7.921   8.123  0.4622  0.1467  0.2006
  349loPI   C5A 5579  16.676   7.907   7.651 -0.2576  0.0668  0.0525
  349loPI   C6A 5580  16.685   8.205   7.324  0.0744  0.0258  0.0323
  349loPI   C1B 5581  17.077   8.275   9.396  0.0080  0.2395 -0.1931
  349loPI   C2B 5582  17.035   8.274   8.997  0.1517 -0.0515 -0.1492
  349loPI   C3B 5583  16.902   8.432   8.617 -0.0869 -0.0161  0.2193
  349loPI   C4B 5584  16.886   8.638   8.194 -0.1058  0.0296  0.0468
  350loPI    C1 5585  16.244   4.057   9.988  0.1740 -0.0044 -0.0877
  350loPI    C2 5586  16.336   4.371  10.218  0.0628  0.0833 -0.1619
  350loPI    C3 5587  16.200   4.034  10.384  0.0904  0.1075 -0.0899
  350loPI   PO4 5588  16.223   4.258   9.772  0.0296  0.0169  0.0799
  350loPI   GL1 5589  16.273   4.352   9.403 -0.0048 -0.0438 -0.0115
  350loPI   GL2 5590  16.067   4.138   9.221  0.4124  0.5747 -0.2148
  350loPI   C1A 5591  16.135   4.608   9.015  0.0832  0.0002 -0.0947
  350loPI   C2A 5592  16.255   4.806   8.615 -0.1157 -0.0582 -0.4219
  350loPI   C3A 5593  16.604   5.143   8.528 -0.1795  0.0111  0.2574
  350loPI   C4A 5594  16.969   5.354   8.263 -0.1465  0.2787 -0.0882
  350loPI   C5A 5595  17.102   5.527   7.923  0.3250 -0.4142  0.3249
  350loPI   C6A 5596  17.106   5.392   7.465  0.1916 -0.1693 -0.1195
  350loPI   C1B 5597  16.192   3.950   8.902  0.1138 -0.0794  0.3667
  350loPI   C2B 5598  16.532   3.892   8.637 -0.0322  0.0419  0.0888
  350loPI   C3B 5599  16.807   4.061   8.280 -0.2873 -0.2690  0.0144
  350loPI   C4B 5600  16.882   4.343   8.000  0.1544  0.1662 -0.0558
  351loPI    C1 5601   4.639   6.135  10.319  0.1741 -0.0449 -0.0244
  351loPI    C2 5602   4.588   6.473  10.528 -0.1379  0.0504 -0.2480
  351loPI    C3 5603   4.632   6.124  10.719  0.0450  0.1962 -0.0181
  351loPI   PO4 5604   4.771   6.173  10.186  0.0381  0.4085 -0.0637
  351loPI   GL1 5605   4.598   6.039   9.732  0.0148 -0.2050 -0.3120
  351loPI   GL2 5606   4.843   5.873   9.795  0.0660  0.1504  0.1492
  351loPI   C1A 5607   4.620   5.837   9.324 -0.1202 -0.1781  0.0239
  351loPI   C2A 5608   4.511   5.527   9.062  0.1109  0.1247 -0.2238
  351loPI   C3A 5609   4.185   5.413   8.919  0.0490  0.2757  0.2072
  351loPI   C4A 5610   4.089   5.224   8.524 -0.2068  0.0376 -0.0431
  351loPI   C5A 5611   4.226   5.036   8.119 -0.0553  0.0714  0.1551
  351loPI   C6A 5612   4.048   4.919   7.652  0.0820  0.0972 -0.2309
  351loPI   C1B 5613   5.147   6.000   9.520 -0.2193  0.0350  0.3003
  351loPI   C2B 5614   5.506   5.828   9.254 -0.0175  0.0078 -0.0809
  351loPI   C3B 5615   5.445   5.851   8.754  0.0732  0.0415 -0.3436
  351loPI   C4B 5616   5.103   5.928   8.487  0.1941 -0.3079 -0.0325
  352loPI    C1 5617   2.095   9.339  10.564  0.1345  0.0578  0.0305
  352loPI    C2 5618   2.232   9.715  10.550  0.1240  0.0591 -0.0431
  352loPI    C3 5619   1.840   9.644  10.520  0.1236  0.0439 -0.0028
  352loPI   PO4 5620   2.281   9.258  10.386  0.0632  0.0061 -0.2115
  352loPI   GL1 5621   2.191   9.003  10.027 -0.3640 -0.0865  0.1145
  352loPI   GL2 5622   2.444   9.267   9.801 -0.0598  0.1307  0.3704
  352loPI   C1A 5623   2.116   9.023   9.633 -0.2088  0.1470  0.3089
  352loPI   C2A 5624   2.120   8.960   9.200  0.0929  0.1827  0.2930
  352loPI   C3A 5625   1.960   8.841   8.810  0.0429  0.0547  0.0246
  352loPI   C4A 5626   1.699   8.779   8.337 -0.1165 -0.1677 -0.1246
  352loPI   C5A 5627   1.644   9.059   8.037 -0.2622 -0.0035  0.1665
  352loPI   C6A 5628   1.438   9.232   7.715 -0.0306 -0.1188  0.1426
  352loPI   C1B 5629   2.465   9.402   9.385  0.2468 -0.2101 -0.2312
  352loPI   C2B 5630   2.333   9.382   8.986 -0.1610  0.0183 -0.2200
  352loPI   C3B 5631   2.061   9.315   8.532 -0.0296  0.0251 -0.1855
  352loPI   C4B 5632   2.138   9.341   8.059 -0.3317 -0.1910 -0.3161
  353loPI    C1 5633  18.141   5.182  10.198 -0.2438 -0.2038 -0.3137
  353loPI    C2 5634  18.103   4.848  10.414 -0.0940  0.0173  0.0648
  353loPI    C3 5635  17.855   5.156  10.477  0.1957  0.2273  0.2013
  353loPI   PO4 5636  18.217   4.993   9.941 -0.1685 -0.0833 -0.1213
  353loPI   GL1 5637  18.507   4.994   9.509  0.1719  0.1730 -0.3946
  353loPI   GL2 5638  18.578   5.305   9.516 -0.1586 -0.0966 -0.0328
  353loPI   C1A 5639  18.788   4.716   9.172  0.2590  0.0983 -0.3190
  353loPI   C2A 5640  18.789   4.802   8.659 -0.2509  0.2534 -0.1520
  353loPI   C3A 5641  18.882   4.908   8.218 -0.2130 -0.0754 -0.0068
  353loPI   C4A 5642  19.156   4.939   7.839 -0.1571 -0.1653  0.2603
  353loPI   C5A 5643  19.481   5.234   7.708  0.2086  0.0366 -0.0469
  353loPI   C6A 5644  19.845   5.358   7.481 -0.0871  0.3080  0.0178
  353loPI   C1B 5645  18.642   5.198   9.008 -0.0205 -0.1000 -0.1693
  353loPI   C2B 5646  18.241   5.325   8.758  0.0491 -0.0632  0.3842
  353loPI   C3B 5647  18.215   5.328   8.333 -0.1803  0.2225 -0.0840
  353loPI   C4B 5648  17.902   5.189   8.069  0.1321 -0.0602 -0.0599
  354loPI    C1 5649  16.889  18.537   9.834  0.3128  0.1606 -0.3123
  354loPI    C2 5650  16.776  18.900   9.709 -0.1260  0.1761  0.1006
  354loPI    C3 5651  16.899  18.847  10.086  0.1212 -0.0720 -0.0110
  354loPI   PO4 5652  17.097  18.479   9.707  0.1361 -0.0039  0.2518
  354loPI   GL1 5653  17.369  18.677   9.430  0.0274 -0.0695  0.2010
  354loPI   GL2 5654  17.177  19.004   9.360 -0.0621 -0.1387 -0.0726
  354loPI   C1A 5655  17.619  18.719   9.027  0.3875  0.3078 -0.1359
  354loPI   C2A 5656  17.665  18.762   8.725  0.0314 -0.3550 -0.0106
  354loPI   C3A 5657  17.848  18.979   8.307 -0.2527  0.2793 -0.1196
  354loPI   C4A 5658  17.584  19.272   8.036  0.1319  0.2327  0.2301
  354loPI   C5A 5659  17.571  19.219   7.584 -0.3017  0.1413  0.0483
  354loPI   C6A 5660  17.598  18.922   7.211 -0.0490  0.0643 -0.1323
  354loPI   C1B 5661  17.431  19.203   9.066 -0.1885  0.0359 -0.1171
  354loPI   C2B 5662  17.638  19.378   8.723 -0.1067 -0.2025 -0.0215
  354loPI   C3B 5663  17.791  19.560   8.398  0.2655 -0.0895  0.2429
  354loPI   C4B 5664  18.034  19.861   8.230  0.1157 -0.3491  0.2575
  355loPI    C1 5665  17.698   2.700  10.108  0.1228 -0.1157  0.0617
  355loPI    C2 5666  17.422   2.827  10.368 -0.3222 -0.3882 -0.2635
  355loPI    C3 5667  17.739   2.620  10.498 -0.2130  0.0089  0.1256
  355loPI   PO4 5668  17.508   2.482   9.859  0.2367 -0.1840  0.1157
  355loPI   GL1 5669  17.268   2.564   9.414 -0.0161 -0.2601 -0.1269
  355loPI   GL2 5670  17.304   2.184   9.350 -0.0931 -0.1329 -0.2573
  355loPI   C1A 5671  17.201   2.581   8.913 -0.1681 -0.3925  0.0942
  355loPI   C2A 5672  16.916   2.371   8.750 -0.0584  0.0663 -0.1440
  355loPI   C3A 5673  16.822   2.226   8.341  0.0937  0.2182 -0.1552
  355loPI   C4A 5674  17.115   2.188   7.989 -0.1495 -0.0450  0.0632
  355loPI   C5A 5675  17.320   2.109   7.552  0.2257 -0.1401  0.0160
  355loPI   C6A 5676  17.580   2.389   7.227  0.2608  0.0891 -0.0115
  355loPI   C1B 5677  17.461   2.194   8.908  0.0928 -0.1816 -0.1027
  355loPI   C2B 5678  17.521   2.151   8.480  0.1456 -0.1624  0.3172
  355loPI   C3B 5679  17.642   2.350   8.145 -0.0071 -0.0051  0.1223
  355loPI   C4B 5680  17.751   2.509   7.696 -0.0651  0.0562 -0.0429
  356loPI    C1 5681   4.891   2.660  10.258  0.3469 -0.2308  0.0157
  356loPI    C2 5682   4.722   2.554  10.605  0.0705 -0.0549 -0.0618
  356loPI    C3 5683   4.868   2.923  10.559  0.0167 -0.0460 -0.1651
  356loPI   PO4 5684   4.912   2.498  10.160 -0.0909 -0.0736 -0.1288
  356loPI   GL1 5685   4.983   2.446   9.822  0.0619  0.0824  0.0802
  356loPI   GL2 5686   5.296   2.406   9.865 -0.1736  0.1663 -0.2671
  356loPI   C1A 5687   4.849   2.313   9.410 -0.0542 -0.0361  0.0599
  356loPI   C2A 5688   4.864   2.472   9.004 -0.2551 -0.3475 -0.1271
  356loPI   C3A 5689   5.081   2.635   8.689 -0.2378  0.0303 -0.2093
  356loPI   C4A 5690   5.091   2.650   8.227  0.2671 -0.2082 -0.0531
  356loPI   C5A 5691   5.084   2.423   7.864 -0.1908  0.0125 -0.0687
  356loPI   C6A 5692   5.125   2.597   7.477 -0.0667 -0.0979  0.0916
  356loPI   C1B 5693   5.376   2.176   9.502 -0.0824  0.4004  0.2541
  356loPI   C2B 5694   5.705   2.052   9.231 -0.2267 -0.1145 -0.0132
  356loPI   C3B 5695   5.589   1.882   8.852 -0.0091 -0.0929  0.0061
  356loPI   C4B 5696   5.538   2.128   8.476  0.2580 -0.4330  0.0968
  357loPI    C1 5697   7.584   8.684  10.407  0.2982  0.2419 -0.1644
  357loPI    C2 5698   7.621   8.799  10.788  0.1168  0.0906 -0.0997
  357loPI    C3 5699   7.731   8.430  10.679  0.1689  0.1339 -0.1945
  357loPI   PO4 5700   7.374   8.842  10.284  0.0787  0.0117  0.1419
  357loPI   GL1 5701   7.352   8.700   9.854 -0.4361 -0.2957 -0.0322
  357loPI   GL2 5702   7.260   8.359   9.820 -0.1700  0.2906  0.0874
  357loPI   C1A 5703   7.212   8.772   9.459 -0.1690  0.1193 -0.1776
  357loPI   C2A 5704   7.442   8.802   9.096 -0.0550 -0.1358  0.1457
  357loPI   C3A 5705   7.459   8.628   8.660 -0.1469  0.2235  0.2710
  357loPI   C4A 5706   7.588   8.807   8.255  0.0633  0.0829 -0.0072
  357loPI   C5A 5707   7.579   8.800   7.785 -0.0079  0.4239  0.3524
  357loPI   C6A 5708   7.752   8.736   7.489  0.1422  0.1199 -0.0613
  357loPI   C1B 5709   7.466   8.322   9.373 -0.1023 -0.1318 -0.0834
  357loPI   C2B 5710   7.469   8.215   8.989  0.3510  0.1797 -0.1171
  357loPI   C3B 5711   7.590   8.163   8.532  0.0026 -0.1342 -0.1689
  357loPI   C4B 5712   7.703   8.260   8.118  0.0591  0.1022  0.0351
  358loPI    C1 5713   0.271   7.264  10.100 -0.2161  0.0399 -0.0307
  358loPI    C2 5714   0.214   7.504  10.415 -0.0105  0.0011  0.0380
  358loPI    C3 5715   0.400   7.154  10.462 -0.0244 -0.0284 -0.1186
  358loPI   PO4 5716   0.503   7.450   9.939  0.0073 -0.0626 -0.0448
  358loPI   GL1 5717   0.223   7.638   9.618 -0.0586 -0.0412 -0.2511
  358loPI   GL2 5718  -0.079   7.798   9.803 -0.1690  0.0986  0.1008
  358loPI   C1A 5719   0.009   7.429   9.282  0.2260  0.1570 -0.1720
  358loPI   C2A 5720  -0.060   7.456   8.821 -0.2594  0.1470 -0.1884
  358loPI   C3A 5721  -0.089   7.285   8.304  0.1255  0.1225 -0.2469
  358loPI   C4A 5722   0.105   6.989   7.989  0.0082 -0.2760 -0.1185
  358loPI   C5A 5723   0.453   7.016   7.754 -0.0292  0.0382  0.3653
  358loPI   C6A 5724   0.792   7.236   7.597  0.0813  0.2859 -0.1257
  358loPI   C1B 5725   0.044   7.927   9.199  0.1690 -0.0235  0.1316
  358loPI   C2B 5726   0.015   7.958   8.780 -0.1084 -0.0971 -0.1175
  358loPI   C3B 5727   0.024   7.757   8.323 -0.5099 -0.0233  0.1205
  358loPI   C4B 5728  -0.134   7.604   7.888 -0.0741  0.1535 -0.1684
  359loPI    C1 5729  16.973  13.749   9.562 -0.0324  0.0481 -0.1241
  359loPI    C2 5730  16.994  14.097   9.366  0.1578  0.0379 -0.1232
  359loPI    C3 5731  17.110  14.075   9.748 -0.1033  0.0316 -0.0423
  359loPI   PO4 5732  17.044  13.626   9.458 -0.1467  0.2313 -0.2547
  359loPI   GL1 5733  17.179  13.384   9.248  0.0841 -0.0481  0.0555
  359loPI   GL2 5734  16.993  13.082   9.158 -0.0732  0.0626 -0.0019
  359loPI   C1A 5735  17.111  13.561   8.877  0.0808  0.2288  0.2379
  359loPI   C2A 5736  17.374  13.688   8.573  0.2269  0.3321  0.0576
  359loPI   C3A 5737  17.572  13.812   8.172  0.4388 -0.1243 -0.2052
  359loPI   C4A 5738  17.671  14.045   7.775 -0.0488 -0.2579  0.2906
  359loPI   C5A 5739  17.592  14.373   7.458  0.1518 -0.0392  0.3469
  359loPI   C6A 5740  17.329  14.695   7.449  0.1325  0.1988 -0.0640
  359loPI   C1B 5741  16.971  13.032   8.726 -0.1506 -0.2886 -0.0459
  359loPI   C2B 5742  17.106  13.279   8.397  0.2217 -0.2455  0.1284
  359loPI   C3B 5743  17.281  13.348   8.062  0.0348  0.1440 -0.1515
  359loPI   C4B 5744  17.492  13.432   7.742 -0.2406  0.0291  0.1345
  360loPI    C1 5745   9.984   4.827  10.182  0.0461 -0.1223 -0.3691
  360loPI    C2 5746   9.697   4.994   9.958 -0.2790  0.1575  0.2320
  360loPI    C3 5747   9.987   5.221  10.113  0.0910 -0.0740 -0.1018
  360loPI   PO4 5748  10.086   4.624   9.931 -0.0011  0.2027 -0.1362
  360loPI   GL1 5749  10.151   4.696   9.551 -0.2676  0.1590 -0.0602
  360loPI   GL2 5750  10.272   4.381   9.389 -0.2021  0.1064  0.0378
  360loPI   C1A 5751  10.164   4.850   9.090  0.1024  0.2391 -0.3756
  360loPI   C2A 5752  10.229   4.855   8.733  0.0434 -0.2976 -0.0360
  360loPI   C3A 5753  10.247   4.716   8.288  0.0549 -0.1335  0.1668
  360loPI   C4A 5754   9.999   4.533   7.894 -0.0510  0.1345  0.1504
  360loPI   C5A 5755  10.108   4.536   7.556 -0.1179 -0.0491  0.3401
  360loPI   C6A 5756  10.377   4.722   7.208 -0.1587 -0.0371  0.0998
  360loPI   C1B 5757  10.009   4.341   9.020 -0.2146  0.0693 -0.0748
  360loPI   C2B 5758   9.825   4.540   8.697  0.1213  0.2134 -0.0525
  360loPI   C3B 5759   9.751   4.738   8.265  0.2356  0.0749 -0.1245
  360loPI   C4B 5760   9.877   4.980   7.852  0.0502 -0.0334 -0.2993
  361loPI    C1 5761  15.793   1.708   9.897 -0.2010 -0.0077 -0.0217
  361loPI    C2 5762  15.932   1.446  10.166 -0.1257 -0.0614 -0.1125
  361loPI    C3 5763  16.180   1.711   9.998 -0.2131  0.1089  0.0232
  361loPI   PO4 5764  15.670   1.609   9.733 -0.0661 -0.0238  0.1177
  361loPI   GL1 5765  15.884   1.679   9.402 -0.0120  0.0303  0.4343
  361loPI   GL2 5766  16.153   1.750   9.460  0.0206 -0.0089 -0.2885
  361loPI   C1A 5767  16.006   1.827   8.978  0.0834 -0.1819  0.0814
  361loPI   C2A 5768  16.142   2.019   8.534 -0.1090  0.0063 -0.0046
  361loPI   C3A 5769  16.316   2.063   8.174  0.3320  0.1776  0.2840
  361loPI   C4A 5770  16.519   1.831   7.915 -0.2475  0.1955 -0.0640
  361loPI   C5A 5771  16.386   1.616   7.652 -0.0900  0.2110 -0.1704
  361loPI   C6A 5772  16.227   1.546   7.255 -0.1886  0.1949 -0.3140
  361loPI   C1B 5773  16.422   1.493   9.099  0.0737  0.3166  0.0426
  361loPI   C2B 5774  16.646   1.324   8.770 -0.2208  0.2723  0.0650
  361loPI   C3B 5775  16.902   1.000   8.324  0.2622  0.2178  0.0344
  361loPI   C4B 5776  17.186   1.158   7.908 -0.1003 -0.2661 -0.1004
  362loPI    C1 5777   7.096  12.527  10.236 -0.3520 -0.1367  0.2046
  362loPI    C2 5778   7.181  12.186  10.427 -0.3993 -0.2093  0.0964
  362loPI    C3 5779   7.090  12.515  10.636 -0.0075 -0.1696  0.2113
  362loPI   PO4 5780   7.312  12.610  10.111  0.0062 -0.1582 -0.1303
  362loPI   GL1 5781   7.372  12.413   9.707  0.0915 -0.0733  0.0078
  362loPI   GL2 5782   7.142  12.279   9.438 -0.2447 -0.2187  0.0012
  362loPI   C1A 5783   7.725  12.130   9.575 -0.1524 -0.0290 -0.1729
  362loPI   C2A 5784   7.916  12.096   9.118 -0.2792  0.1312 -0.0470
  362loPI   C3A 5785   7.973  12.132   8.636  0.1596 -0.1819 -0.1187
  362loPI   C4A 5786   8.116  12.219   8.161  0.0061  0.0711  0.1043
  362loPI   C5A 5787   8.338  12.280   7.766 -0.0300  0.0619  0.1852
  362loPI   C6A 5788   8.738  12.311   7.685 -0.3162  0.3298 -0.0890
  362loPI   C1B 5789   7.458  12.207   9.133  0.1176  0.0795  0.1796
  362loPI   C2B 5790   7.493  12.220   8.807  0.1881 -0.1565 -0.2052
  362loPI   C3B 5791   7.662  12.401   8.409 -0.1889  0.3349 -0.0897
  362loPI   C4B 5792   7.448  12.547   8.035  0.2016 -0.2470  0.0739
  363loPI    C1 5793  10.252   7.733  10.053 -0.1245  0.0411  0.1688
  363loPI    C2 5794   9.972   7.613  10.312 -0.0478 -0.2125  0.1368
  363loPI    C3 5795  10.297   7.805  10.444 -0.1694 -0.0406  0.1891
  363loPI   PO4 5796  10.026   7.870   9.869  0.1618 -0.0218  0.0044
  363loPI   GL1 5797   9.595   7.993   9.779  0.0005 -0.2691  0.2633
  363loPI   GL2 5798   9.546   7.692   9.750 -0.2136  0.1041  0.0822
  363loPI   C1A 5799   9.570   8.005   9.331  0.1257 -0.2372 -0.1099
  363loPI   C2A 5800   9.798   8.158   8.942 -0.2746  0.4440  0.4075
  363loPI   C3A 5801   9.845   8.394   8.577  0.1853  0.0757  0.3426
  363loPI   C4A 5802   9.750   8.754   8.467 -0.0453  0.1755 -0.0917
  363loPI   C5A 5803   9.845   8.983   8.198 -0.1017 -0.1663  0.1476
  363loPI   C6A 5804   9.858   9.264   7.838  0.1161  0.0940 -0.1102
  363loPI   C1B 5805   9.760   7.573   9.372  0.1045 -0.0325 -0.0334
  363loPI   C2B 5806   9.856   7.613   8.969  0.0119 -0.4212 -0.3314
  363loPI   C3B 5807   9.886   7.430   8.570  0.0795  0.2137 -0.0601
  363loPI   C4B 5808  10.248   7.138   8.646 -0.1874  0.2187 -0.1039
  364loPI    C1 5809   7.110   6.054  10.253 -0.0715 -0.0678  0.3477
  364loPI    C2 5810   6.854   6.360  10.219 -0.3141 -0.2793  0.2406
  364loPI    C3 5811   7.033   6.287  10.569  0.0040  0.1839  0.1840
  364loPI   PO4 5812   7.162   6.036  10.009 -0.1320  0.0563  0.0246
  364loPI   GL1 5813   7.485   6.175   9.646  0.2712  0.0483  0.2582
  364loPI   GL2 5814   7.272   6.054   9.516  0.2025 -0.3539 -0.0177
  364loPI   C1A 5815   7.706   6.135   9.266 -0.1926 -0.1986  0.0292
  364loPI   C2A 5816   7.796   6.171   8.898  0.3322  0.2424 -0.1776
  364loPI   C3A 5817   7.894   6.141   8.406 -0.4570  0.0955 -0.1745
  364loPI   C4A 5818   8.166   6.033   8.079  0.4513 -0.1396 -0.2708
  364loPI   C5A 5819   8.199   5.670   7.871 -0.4810  0.2154  0.1637
  364loPI   C6A 5820   8.615   5.559   7.683 -0.2914 -0.2134  0.2691
  364loPI   C1B 5821   7.050   6.115   9.149  0.1012  0.4292 -0.2553
  364loPI   C2B 5822   6.818   6.187   8.857  0.4195 -0.1283 -0.1011
  364loPI   C3B 5823   6.960   6.241   8.492  0.0320 -0.2586  0.1815
  364loPI   C4B 5824   6.746   6.199   8.051  0.1433 -0.0848 -0.1460
  365loPI    C1 5825   0.186   8.436  10.317 -0.0012 -0.1668 -0.0315
  365loPI    C2 5826   0.164   8.835  10.332  0.2597 -0.1384 -0.2980
  365loPI    C3 5827  -0.167   8.615  10.376  0.1302  0.1008 -0.0386
  365loPI   PO4 5828   0.341   8.431  10.102 -0.1324  0.1376 -0.2937
  365loPI   GL1 5829   0.195   8.157   9.660 -0.3241 -0.3206 -0.2990
  365loPI   GL2 5830   0.393   8.488   9.642 -0.1563 -0.0270 -0.1367
  365loPI   C1A 5831   0.554   8.089   9.325  0.0892  0.2614 -0.4772
  365loPI   C2A 5832   0.553   8.153   8.845 -0.3301 -0.0870  0.0717
  365loPI   C3A 5833   0.538   8.194   8.415  0.2535  0.1893  0.1454
  365loPI   C4A 5834   0.380   8.149   8.047 -0.1282  0.3021 -0.1847
  365loPI   C5A 5835   0.503   8.025   7.686  0.1674 -0.1646  0.2256
  365loPI   C6A 5836   0.634   8.036   7.267  0.2631 -0.1173  0.1721
  365loPI   C1B 5837   0.187   8.429   9.256 -0.0565 -0.0343 -0.2189
  365loPI   C2B 5838   0.093   8.431   8.855 -0.1646 -0.0762  0.2744
  365loPI   C3B 5839   0.085   8.377   8.433 -0.3023 -0.1414  0.2554
  365loPI   C4B 5840  -0.036   8.646   8.109  0.3462 -0.0237  0.1312
  366loPI    C1 5841  16.110   7.778  10.167  0.0182  0.0190  0.0229
  366loPI    C2 5842  15.828   7.664   9.906  0.2575 -0.0672 -0.2025
  366loPI    C3 5843  15.760   7.636  10.299 -0.0737 -0.0193 -0.2538
  366loPI   PO4 5844  16.287   7.656  10.044  0.2756  0.0955 -0.0515
  366loPI   GL1 5845  16.329   7.374   9.736  0.0470 -0.1983 -0.0354
  366loPI   GL2 5846  16.604   7.438   9.663 -0.0177 -0.2370 -0.0426
  366loPI   C1A 5847  16.000   7.286   9.474 -0.1016  0.2250 -0.0923
  366loPI   C2A 5848  15.974   7.386   9.085  0.0860 -0.1451  0.1174
  366loPI   C3A 5849  16.012   7.338   8.653  0.0309  0.3137 -0.0729
  366loPI   C4A 5850  15.952   7.410   8.218 -0.1335 -0.1406 -0.0418
  366loPI   C5A 5851  16.008   7.508   7.765 -0.1795  0.0553  0.2379
  366loPI   C6A 5852  15.930   7.370   7.352 -0.1677  0.0846 -0.3062
  366loPI   C1B 5853  16.561   7.332   9.206  0.0042  0.4442 -0.3371
  366loPI   C2B 5854  16.504   7.442   8.823 -0.0771 -0.2948 -0.1878
  366loPI   C3B 5855  16.645   7.416   8.458  0.1001 -0.1653  0.2683
  366loPI   C4B 5856  16.994   7.594   8.391  0.1005  0.1680  0.0181
  367loPI    C1 5857  14.731   5.016   9.678 -0.0341  0.3465 -0.1241
  367loPI    C2 5858  14.597   5.108  10.044  0.1403  0.0948  0.0060
  367loPI    C3 5859  14.367   4.896   9.795  0.1050  0.0824  0.0491
  367loPI   PO4 5860  14.780   5.256   9.516  0.2077 -0.4681  0.0252
  367loPI   GL1 5861  14.608   5.428   9.162 -0.0304 -0.0970 -0.0845
  367loPI   GL2 5862  14.714   5.085   8.944 -0.0524  0.0602 -0.0703
  367loPI   C1A 5863  14.827   5.532   8.771 -0.0362  0.0297 -0.0975
  367loPI   C2A 5864  14.734   5.326   8.444  0.2441  0.0726  0.0846
  367loPI   C3A 5865  14.762   5.521   8.080 -0.0340  0.3167 -0.0795
  367loPI   C4A 5866  14.954   5.726   7.824  0.1743 -0.0486 -0.0119
  367loPI   C5A 5867  15.054   5.820   7.396  0.3956  0.1163  0.3642
  367loPI   C6A 5868  14.887   6.082   7.062 -0.0782 -0.0573  0.3585
  367loPI   C1B 5869  15.000   4.918   8.676  0.2399 -0.2114 -0.0527
  367loPI   C2B 5870  15.248   4.675   8.506  0.2590  0.1313  0.2137
  367loPI   C3B 5871  15.482   4.799   8.094  0.1847  0.1863  0.2570
  367loPI   C4B 5872  15.684   4.897   7.813  0.0789  0.0147  0.0433
  368loPI    C1 5873   5.732   6.933   9.612 -0.2903  0.1647  0.2628
  368loPI    C2 5874   6.054   7.104   9.777 -0.0025 -0.1532  0.0448
  368loPI    C3 5875   5.927   7.224   9.417  0.0092 -0.1821  0.0310
  368loPI   PO4 5876   5.817   6.662   9.646  0.0488  0.2484  0.1990
  368loPI   GL1 5877   5.905   6.587   9.301 -0.1307 -0.1281 -0.0783
  368loPI   GL2 5878   6.030   6.252   9.160  0.0175 -0.4293 -0.0375
  368loPI   C1A 5879   5.680   6.661   8.853  0.1190  0.1146 -0.4487
  368loPI   C2A 5880   5.566   6.727   8.396  0.1297 -0.0536  0.0457
  368loPI   C3A 5881   5.315   6.912   8.122 -0.0103  0.0158  0.1841
  368loPI   C4A 5882   5.224   6.900   7.671  0.1744  0.0989 -0.0803
  368loPI   C5A 5883   4.925   6.606   7.568 -0.0665 -0.0303  0.1305
  368loPI   C6A 5884   4.741   6.376   7.325  0.1162  0.2146  0.0900
  368loPI   C1B 5885   5.928   6.120   8.690 -0.0800  0.3446 -0.3236
  368loPI   C2B 5886   5.787   5.880   8.410 -0.2134 -0.1202  0.0606
  368loPI   C3B 5887   5.760   5.884   8.030  0.0835 -0.4046  0.0554
  368loPI   C4B 5888   5.589   5.603   7.725 -0.1290  0.0688  0.1010
  369loPI    C1 5889   6.300  12.198  10.163 -0.0006  0.0304  0.1665
  369loPI    C2 5890   5.908  12.212  10.242 -0.0237  0.0888  0.0429
  369loPI    C3 5891   6.154  12.485  10.401 -0.0431  0.0937  0.0647
  369loPI   PO4 5892   6.281  12.214   9.881  0.2539 -0.1604  0.3834
  369loPI   GL1 5893   6.173  12.263   9.518  0.1248  0.1288  0.1071
  369loPI   GL2 5894   6.499  12.290   9.423 -0.0520 -0.3755 -0.1175
  369loPI   C1A 5895   5.880  11.980   9.356 -0.0498 -0.1346 -0.1395
  369loPI   C2A 5896   5.786  11.678   8.928 -0.0158 -0.1456  0.0385
  369loPI   C3A 5897   5.870  11.684   8.529  0.1550  0.0449  0.0165
  369loPI   C4A 5898   5.667  11.460   8.236  0.1136  0.0275  0.0917
  369loPI   C5A 5899   5.980  11.486   7.857  0.2143 -0.1396 -0.1018
  369loPI   C6A 5900   6.374  11.602   7.616  0.1660  0.0250  0.1530
  369loPI   C1B 5901   6.228  12.313   9.057 -0.1216 -0.1033 -0.2119
  369loPI   C2B 5902   6.210  12.491   8.606 -0.1868  0.0523  0.2694
  369loPI   C3B 5903   6.235  12.531   8.162 -0.3083 -0.1875  0.0137
  369loPI   C4B 5904   6.612  12.646   7.894  0.1399  0.0777  0.1220
  370loPI    C1 5905   0.171   9.364  10.306  0.0475  0.4415 -0.0962
  370loPI    C2 5906  -0.203   9.240  10.375  0.2571 -0.2082 -0.0555
  370loPI    C3 5907  -0.071   9.580  10.541 -0.2466 -0.0739  0.0909
  370loPI   PO4 5908   0.167   9.285  10.070 -0.2770 -0.1627 -0.1876
  370loPI   GL1 5909   0.463   9.459   9.792 -0.1911 -0.0457 -0.0949
  370loPI   GL2 5910   0.357   9.722   9.657 -0.0178 -0.2107  0.2243
  370loPI   C1A 5911   0.822   9.561   9.499 -0.2028  0.1094  0.1468
  370loPI   C2A 5912   0.710   9.444   9.075 -0.2304 -0.2178  0.3090
  370loPI   C3A 5913   0.608   9.382   8.659  0.0902  0.2230 -0.0852
  370loPI   C4A 5914   0.632   9.171   8.372  0.1798 -0.2985  0.1610
  370loPI   C5A 5915   0.729   9.211   7.862  0.0058 -0.0628 -0.2336
  370loPI   C6A 5916   0.922   9.322   7.661  0.4053  0.1646  0.0472
  370loPI   C1B 5917   0.365   9.722   9.213 -0.0831 -0.0366 -0.0613
  370loPI   C2B 5918   0.244   9.772   8.853 -0.3357 -0.3501  0.1272
  370loPI   C3B 5919   0.140   9.758   8.476 -0.1437 -0.0648  0.0648
  370loPI   C4B 5920   0.216   9.493   8.208 -0.1029  0.4132 -0.0323
  371loPI    C1 5921   6.522  14.882  10.235  0.1024  0.1614 -0.2331
  371loPI    C2 5922   6.466  14.545  10.026 -0.2639 -0.0168  0.1372
  371loPI    C3 5923   6.697  14.542  10.353 -0.0706  0.1518  0.0046
  371loPI   PO4 5924   6.415  15.030  10.001 -0.0874 -0.1336  0.1254
  371loPI   GL1 5925   6.427  15.340   9.702  0.3388  0.2250 -0.0616
  371loPI   GL2 5926   6.647  15.223   9.511 -0.1951 -0.2170  0.3668
  371loPI   C1A 5927   6.168  15.315   9.344 -0.1399  0.1850  0.1588
  371loPI   C2A 5928   6.058  15.297   8.887 -0.0683  0.1469 -0.0101
  371loPI   C3A 5929   5.962  15.140   8.513  0.0177  0.0504  0.2823
  371loPI   C4A 5930   5.912  14.932   7.983  0.2582  0.1742 -0.2431
  371loPI   C5A 5931   5.872  14.525   7.647 -0.3252 -0.1514  0.0843
  371loPI   C6A 5932   5.989  13.998   7.642  0.0693 -0.0583 -0.0760
  371loPI   C1B 5933   6.608  15.145   9.091 -0.2492  0.2363  0.3139
  371loPI   C2B 5934   6.509  14.999   8.702  0.1726 -0.3389 -0.2144
  371loPI   C3B 5935   6.449  14.928   8.275  0.0865 -0.0824 -0.0967
  371loPI   C4B 5936   6.242  14.564   8.079  0.0426  0.5410  0.1941
  372loPI    C1 5937  10.435   3.911   9.776  0.0557 -0.1833 -0.0918
  372loPI    C2 5938  10.074   4.083   9.781  0.1447  0.0117 -0.2263
  372loPI    C3 5939  10.255   3.986  10.125  0.0935  0.1893 -0.1482
  372loPI   PO4 5940  10.541   4.043   9.641  0.3656 -0.1526 -0.1052
  372loPI   GL1 5941  10.757   4.064   9.292  0.2284  0.0466 -0.1518
  372loPI   GL2 5942  10.766   3.783   9.263  0.0082 -0.2452  0.1837
  372loPI   C1A 5943  10.483   4.158   9.000 -0.2621  0.0612  0.1569
  372loPI   C2A 5944  10.251   4.285   8.545 -0.1074 -0.1698 -0.1638
  372loPI   C3A 5945  10.001   4.146   8.202  0.0267 -0.1809 -0.2679
  372loPI   C4A 5946   9.781   3.738   8.200  0.2788  0.0729  0.0182
  372loPI   C5A 5947   9.610   3.361   8.058  0.0031 -0.1389  0.2281
  372loPI   C6A 5948   9.121   3.294   7.988 -0.1004 -0.1311  0.0436
  372loPI   C1B 5949  10.804   3.796   8.769 -0.4922  0.0030 -0.1260
  372loPI   C2B 5950  10.613   3.996   8.428 -0.0558  0.0503 -0.1225
  372loPI   C3B 5951  10.522   4.182   8.071 -0.0869  0.0132 -0.2401
  372loPI   C4B 5952  10.581   4.086   7.722 -0.1114  0.2760 -0.3218
  373loPI    C1 5953   7.844   4.048  10.368 -0.2019 -0.1539 -0.1404
  373loPI    C2 5954   7.887   3.691  10.542 -0.1500 -0.0269  0.1117
  373loPI    C3 5955   7.978   4.024  10.744  0.3198  0.1057 -0.3000
  373loPI   PO4 5956   7.698   4.054  10.176 -0.0767 -0.1722 -0.3357
  373loPI   GL1 5957   7.681   3.931   9.817  0.0080 -0.1814  0.0717
  373loPI   GL2 5958   7.608   3.707   9.575  0.2232 -0.1761 -0.1506
  373loPI   C1A 5959   7.872   4.102   9.388 -0.3654 -0.1682 -0.0095
  373loPI   C2A 5960   8.040   4.119   8.953  0.1132  0.1413  0.0486
  373loPI   C3A 5961   8.071   4.150   8.502  0.0928 -0.1667 -0.3844
  373loPI   C4A 5962   8.459   4.074   8.264  0.1668 -0.0627  0.2673
  373loPI   C5A 5963   8.509   4.214   7.790  0.1525  0.1415  0.1392
  373loPI   C6A 5964   8.757   4.497   7.593  0.0176  0.0085 -0.3132
  373loPI   C1B 5965   7.502   3.854   9.165 -0.2746  0.1248  0.0064
  373loPI   C2B 5966   7.312   3.706   8.828  0.1323 -0.0771  0.1829
  373loPI   C3B 5967   7.101   3.555   8.415 -0.2723  0.1573 -0.0350
  373loPI   C4B 5968   7.018   3.838   8.046  0.1858  0.0859 -0.1282
  374loPI    C1 5969   3.201   1.634  10.286 -0.3619  0.2128 -0.1932
  374loPI    C2 5970   3.504   1.851  10.141 -0.2059  0.1389  0.0162
  374loPI    C3 5971   3.338   1.948  10.492 -0.1671 -0.0504  0.0883
  374loPI   PO4 5972   3.093   1.581  10.119 -0.2328  0.1397  0.0598
  374loPI   GL1 5973   3.294   1.589   9.755 -0.0671 -0.2020  0.3052
  374loPI   GL2 5974   3.047   1.852   9.713  0.2774 -0.1262  0.0533
  374loPI   C1A 5975   3.064   1.342   9.525  0.1410  0.0612 -0.1379
  374loPI   C2A 5976   2.964   1.408   9.023  0.0872 -0.0909 -0.1733
  374loPI   C3A 5977   2.870   1.448   8.657 -0.0555  0.4231 -0.0522
  374loPI   C4A 5978   2.832   1.481   8.175 -0.1985  0.5732  0.1750
  374loPI   C5A 5979   2.670   1.262   7.821 -0.2454 -0.3559  0.0204
  374loPI   C6A 5980   2.307   1.292   7.683  0.2543  0.0059 -0.0858
  374loPI   C1B 5981   2.771   1.739   9.371  0.4885  0.0196 -0.1160
  374loPI   C2B 5982   2.737   1.974   8.996 -0.0703  0.2184 -0.1725
  374loPI   C3B 5983   2.819   1.954   8.588 -0.2110  0.1511 -0.2209
  374loPI   C4B 5984   2.742   2.174   8.218 -0.1772 -0.1639  0.0806
  375loPI    C1 5985  12.581   8.066   9.897  0.3987 -0.0829 -0.0334
  375loPI    C2 5986  12.736   8.318  10.166  0.0505 -0.0412  0.1347
  375loPI    C3 5987  12.509   8.012  10.287 -0.0647 -0.0546 -0.1084
  375loPI   PO4 5988  12.515   8.221   9.671 -0.1480 -0.2508 -0.1416
  375loPI   GL1 5989  12.373   8.110   9.377 -0.0057 -0.0811  0.3366
  375loPI   GL2 5990  12.084   8.248   9.249 -0.0321  0.0844  0.0734
  375loPI   C1A 5991  12.185   7.762   9.150 -0.1449  0.1031 -0.3188
  375loPI   C2A 5992  12.082   7.727   8.788  0.0772 -0.0478 -0.0039
  375loPI   C3A 5993  11.738   7.977   8.421 -0.2365 -0.3049  0.2185
  375loPI   C4A 5994  11.401   7.846   8.169 -0.0751  0.0309 -0.2533
  375loPI   C5A 5995  11.160   8.145   7.945 -0.2988 -0.1098  0.1066
  375loPI   C6A 5996  10.841   8.409   7.562  0.0956 -0.0257 -0.0804
  375loPI   C1B 5997  12.316   8.167   8.892  0.1204 -0.2747  0.0969
  375loPI   C2B 5998  12.237   8.126   8.556  0.2668  0.0875  0.0195
  375loPI   C3B 5999  12.053   8.378   8.281 -0.0746 -0.1334  0.6062
  375loPI   C4B 6000  11.991   8.502   7.905  0.1262  0.2675 -0.1594
  376loPI    C1 6001  18.146   6.940  10.304  0.0220  0.1198 -0.1100
  376loPI    C2 6002  18.172   6.546  10.369 -0.1000  0.1360  0.0438
  376loPI    C3 6003  18.414   6.797  10.564 -0.0859  0.1440  0.0159
  376loPI   PO4 6004  17.916   6.968  10.212 -0.1983  0.0904 -0.4660
  376loPI   GL1 6005  17.760   6.898   9.826 -0.2490  0.3235  0.2424
  376loPI   GL2 6006  17.735   6.601   9.773 -0.0581 -0.1043  0.0724
  376loPI   C1A 6007  17.850   7.004   9.409  0.0522  0.2540  0.2299
  376loPI   C2A 6008  17.735   7.030   8.945  0.0059  0.0155 -0.0474
  376loPI   C3A 6009  17.734   7.037   8.478 -0.1889  0.0672  0.2461
  376loPI   C4A 6010  17.715   6.976   8.019 -0.4296  0.0876 -0.0700
  376loPI   C5A 6011  17.560   7.182   7.614 -0.3207  0.0234 -0.1053
  376loPI   C6A 6012  17.403   7.584   7.495 -0.1405  0.0410 -0.0124
  376loPI   C1B 6013  17.716   6.517   9.328 -0.0306 -0.2698  0.3201
  376loPI   C2B 6014  17.673   6.537   8.849  0.1680  0.1930 -0.1146
  376loPI   C3B 6015  17.646   6.510   8.430 -0.0235 -0.0453  0.1580
  376loPI   C4B 6016  17.451   6.521   8.147 -0.1109  0.1588 -0.1051
  377loPI    C1 6017   5.835   4.910  10.264  0.0185  0.1273 -0.0043
  377loPI    C2 6018   6.017   4.780  10.596 -0.2668  0.0008  0.1057
  377loPI    C3 6019   6.120   5.132  10.436 -0.2434  0.1433  0.4256
  377loPI   PO4 6020   5.809   4.713  10.145 -0.1744 -0.0932  0.2136
  377loPI   GL1 6021   5.834   4.595   9.759  0.3940 -0.1452  0.1910
  377loPI   GL2 6022   5.833   4.230   9.713 -0.2672  0.2832  0.0461
  377loPI   C1A 6023   5.791   4.734   9.391 -0.2391 -0.1537  0.1687
  377loPI   C2A 6024   5.627   4.825   8.985 -0.2742  0.0425 -0.0479
  377loPI   C3A 6025   5.585   4.804   8.438  0.4094 -0.0492 -0.0186
  377loPI   C4A 6026   5.341   4.941   8.149 -0.1691  0.1652  0.2753
  377loPI   C5A 6027   5.220   5.322   7.840 -0.0141 -0.1024  0.1633
  377loPI   C6A 6028   5.051   5.142   7.478  0.0994 -0.1711  0.0737
  377loPI   C1B 6029   6.029   4.271   9.321  0.1691 -0.1497 -0.3532
  377loPI   C2B 6030   6.001   4.455   8.881  0.2059 -0.0142 -0.1117
  377loPI   C3B 6031   5.970   4.531   8.473  0.2313  0.0238  0.0179
  377loPI   C4B 6032   6.193   4.432   8.050  0.4143  0.4203  0.1903
  378loPI    C1 6033  18.237  16.610   9.350 -0.0881 -0.2489 -0.0203
  378loPI    C2 6034  18.262  16.732   9.730  0.1666  0.2576 -0.1902
  378loPI    C3 6035  17.914  16.757   9.535  0.0594  0.0902 -0.0237
  378loPI   PO4 6036  18.362  16.522   9.298 -0.0155 -0.0206 -0.2233
  378loPI   GL1 6037  18.559  16.404   8.887 -0.0819 -0.1935 -0.0667
  378loPI   GL2 6038  18.606  16.693   8.939  0.0840  0.1060 -0.3962
  378loPI   C1A 6039  18.394  16.396   8.527 -0.0548  0.0248 -0.1186
  378loPI   C2A 6040  18.133  16.302   8.282 -0.0333 -0.0091  0.0622
  378loPI   C3A 6041  18.259  16.343   7.899 -0.2256 -0.1052 -0.0003
  378loPI   C4A 6042  18.145  15.951   7.616  0.2422  0.0653  0.1333
  378loPI   C5A 6043  17.895  15.782   7.331  0.0174  0.3986  0.3359
  378loPI   C6A 6044  17.465  15.848   7.158  0.1539  0.1023 -0.2251
  378loPI   C1B 6045  18.536  16.822   8.562  0.1500  0.0664 -0.0448
  378loPI   C2B 6046  18.464  16.880   8.202 -0.1625  0.0330  0.0245
  378loPI   C3B 6047  18.180  16.976   7.954 -0.1835  0.0130  0.0174
  378loPI   C4B 6048  17.960  17.305   7.844 -0.0081  0.2111 -0.0399
  379loPI    C1 6049  13.645  11.799  10.425  0.2339  0.1605 -0.0133
  379loPI    C2 6050  13.657  12.103  10.685 -0.0641  0.1511  0.0141
  379loPI    C3 6051  13.851  11.763  10.766 -0.0587  0.1906  0.1705
  379loPI   PO4 6052  13.755  11.927  10.159  0.1642  0.1363  0.1463
  379loPI   GL1 6053  13.692  12.214   9.733  0.1775  0.0046 -0.3310
  379loPI   GL2 6054  13.430  12.121   9.521  0.0497  0.5904 -0.1792
  379loPI   C1A 6055  13.850  11.888   9.379 -0.3007 -0.1013  0.0430
  379loPI   C2A 6056  13.892  11.764   9.006 -0.1802 -0.1714  0.0628
  379loPI   C3A 6057  13.641  11.649   8.639 -0.4010 -0.2165 -0.3221
  379loPI   C4A 6058  13.612  11.508   8.265 -0.0229  0.4304  0.1458
  379loPI   C5A 6059  13.455  11.550   7.853  0.2271  0.1152  0.2035
  379loPI   C6A 6060  13.436  11.819   7.534  0.2651 -0.0167 -0.2888
  379loPI   C1B 6061  13.440  12.160   9.098  0.1780 -0.0405 -0.0175
  379loPI   C2B 6062  13.541  12.095   8.616 -0.2797 -0.0212 -0.1011
  379loPI   C3B 6063  13.476  12.001   8.255  0.2916  0.0048 -0.1551
  379loPI   C4B 6064  13.166  11.979   7.927  0.0694  0.1819  0.3421
  380loPI    C1 6065  18.315   8.706  10.209 -0.0524  0.1880  0.0080
  380loPI    C2 6066  18.268   9.100  10.160 -0.0503  0.2206  0.2561
  380loPI    C3 6067  17.979   8.884  10.334 -0.0524  0.1116  0.1192
  380loPI   PO4 6068  18.377   8.611   9.956 -0.1491 -0.1926 -0.0016
  380loPI   GL1 6069  18.595   8.504   9.580  0.0340  0.1784  0.2501
  380loPI   GL2 6070  18.805   8.609   9.649 -0.1479 -0.3132 -0.5515
  380loPI   C1A 6071  18.623   8.265   9.203 -0.0522  0.0826  0.1885
  380loPI   C2A 6072  18.509   8.135   8.830 -0.0461 -0.0312 -0.1767
  380loPI   C3A 6073  18.528   8.139   8.421  0.0807  0.2730  0.0928
  380loPI   C4A 6074  18.339   8.360   8.102  0.1037  0.3328 -0.1387
  380loPI   C5A 6075  18.076   8.255   7.763  0.1758 -0.4540 -0.2453
  380loPI   C6A 6076  18.118   8.224   7.331  0.0758 -0.1141  0.0078
  380loPI   C1B 6077  18.876   8.849   9.284 -0.0286  0.1753 -0.0889
  380loPI   C2B 6078  18.724   9.313   9.125  0.0030 -0.0468  0.5412
  380loPI   C3B 6079  18.478   9.316   8.766 -0.0841  0.6823 -0.1877
  380loPI   C4B 6080  18.275   9.039   8.626 -0.0177 -0.1268 -0.0339
  381loPI    C1 6081   1.900  17.417  10.049  0.0366 -0.0339  0.0876
  381loPI    C2 6082   2.057  17.136  10.287  0.0336 -0.1662 -0.0655
  381loPI    C3 6083   1.673  17.240  10.327  0.1196  0.0573  0.2149
  381loPI   PO4 6084   1.986  17.357   9.735  0.2878  0.1788  0.3099
  381loPI   GL1 6085   2.195  17.332   9.411 -0.4125 -0.3147 -0.1608
  381loPI   GL2 6086   2.437  17.052   9.380 -0.1599  0.2316  0.3016
  381loPI   C1A 6087   2.432  17.591   9.110  0.4271  0.1796  0.2043
  381loPI   C2A 6088   2.336  17.925   8.820  0.0995  0.0882 -0.0064
  381loPI   C3A 6089   2.346  18.134   8.441 -0.2107 -0.2668 -0.1985
  381loPI   C4A 6090   2.671  18.083   8.131 -0.1560  0.1666  0.1421
  381loPI   C5A 6091   2.702  17.727   7.892  0.0195  0.2885 -0.0895
  381loPI   C6A 6092   2.713  17.308   7.719 -0.0884 -0.3425  0.0111
  381loPI   C1B 6093   2.456  17.074   8.937  0.0652  0.0205  0.2021
  381loPI   C2B 6094   2.620  16.972   8.500  0.1905  0.2092 -0.0203
  381loPI   C3B 6095   2.486  17.197   8.146 -0.0915  0.0336 -0.1800
  381loPI   C4B 6096   2.219  17.246   7.803  0.1504 -0.0670  0.1389
  382loPI    C1 6097   7.375  11.769  10.365  0.0154  0.1059  0.1291
  382loPI    C2 6098   7.561  11.468  10.551  0.1592  0.0421 -0.1129
  382loPI    C3 6099   7.189  11.569  10.657  0.1679 -0.1173  0.0764
  382loPI   PO4 6100   7.478  11.644  10.115  0.0493 -0.3413 -0.1786
  382loPI   GL1 6101   7.536  11.674   9.644  0.0840  0.0393  0.1498
  382loPI   GL2 6102   7.206  11.789   9.523  0.2259  0.1241 -0.1342
  382loPI   C1A 6103   7.576  11.647   9.190 -0.0613  0.1949 -0.0231
  382loPI   C2A 6104   7.669  11.757   8.774  0.3049  0.1691  0.0402
  382loPI   C3A 6105   7.643  11.915   8.250 -0.1039  0.4031  0.3089
  382loPI   C4A 6106   7.751  11.838   7.739 -0.0066  0.2003  0.1299
  382loPI   C5A 6107   7.829  11.863   7.266 -0.2119 -0.2940  0.0807
  382loPI   C6A 6108   7.718  11.840   6.710  0.4416 -0.1044  0.0568
  382loPI   C1B 6109   7.189  11.806   8.990  0.2398 -0.1101  0.0873
  382loPI   C2B 6110   7.206  11.973   8.582  0.1041  0.0718  0.0012
  382loPI   C3B 6111   7.227  12.133   8.080 -0.0224 -0.1810  0.3942
  382loPI   C4B 6112   7.363  12.139   7.675  0.1117  0.1214  0.1038
  383loPI    C1 6113  16.631   3.405   9.967 -0.3142  0.0161 -0.0777
  383loPI    C2 6114  16.457   3.177   9.688 -0.0709 -0.0990 -0.1380
  383loPI    C3 6115  16.597   3.011  10.024  0.1051 -0.0399 -0.1807
  383loPI   PO4 6116  16.686   3.620   9.823  0.2666 -0.1874 -0.1282
  383loPI   GL1 6117  16.508   3.726   9.454 -0.0458 -0.0735 -0.2113
  383loPI   GL2 6118  16.621   3.941   9.227  0.1037 -0.0160  0.0262
  383loPI   C1A 6119  16.506   3.469   9.016 -0.1418 -0.0652 -0.2331
  383loPI   C2A 6120  16.665   3.331   8.626 -0.2447  0.0219  0.0855
  383loPI   C3A 6121  16.812   3.549   8.251  0.0943 -0.0090 -0.2959
  383loPI   C4A 6122  16.778   3.721   7.817  0.1272  0.1228  0.2510
  383loPI   C5A 6123  16.880   3.427   7.542 -0.0005 -0.0880 -0.2458
  383loPI   C6A 6124  17.077   3.106   7.490  0.0599 -0.0863 -0.0833
  383loPI   C1B 6125  16.552   4.299   8.913  0.0401  0.0302  0.0488
  383loPI   C2B 6126  16.421   4.354   8.517 -0.0112 -0.0475  0.0511
  383loPI   C3B 6127  16.385   4.351   8.138 -0.0693 -0.0213 -0.0641
  383loPI   C4B 6128  16.459   4.161   7.701  0.4220 -0.0034 -0.0072
  384loPI    C1 6129   8.243   0.760  10.334 -0.1698 -0.0576 -0.0003
  384loPI    C2 6130   8.278   0.824  10.727  0.0111  0.0484 -0.0323
  384loPI    C3 6131   8.023   0.547  10.592 -0.0190 -0.0203  0.1612
  384loPI   PO4 6132   8.349   1.048  10.291  0.3752 -0.2472 -0.0259
  384loPI   GL1 6133   8.384   1.404   9.915  0.3079  0.1288 -0.1160
  384loPI   GL2 6134   8.409   1.698   9.727  0.0330 -0.2119  0.1710
  384loPI   C1A 6135   8.233   1.304   9.512 -0.2615 -0.0200  0.2963
  384loPI   C2A 6136   8.142   1.241   9.019  0.2462 -0.1526  0.2229
  384loPI   C3A 6137   8.128   1.173   8.577  0.2366  0.1579  0.2530
  384loPI   C4A 6138   8.176   0.816   8.264  0.1896 -0.2153 -0.1298
  384loPI   C5A 6139   8.327   0.784   7.897 -0.2821 -0.0185 -0.0125
  384loPI   C6A 6140   8.632   0.702   7.617 -0.1195 -0.1654 -0.0837
  384loPI   C1B 6141   8.182   1.814   9.434  0.2557 -0.0331  0.1354
  384loPI   C2B 6142   8.182   1.806   9.015  0.3341 -0.0920  0.1085
  384loPI   C3B 6143   8.280   2.021   8.636  0.0078  0.0785 -0.0533
  384loPI   C4B 6144   8.402   2.140   8.255  0.1628  0.0178  0.2767
  385loPI    C1 6145   5.462  16.743   9.993  0.0368  0.0753 -0.0713
  385loPI    C2 6146   5.370  16.506  10.302  0.1795  0.1633  0.0399
  385loPI    C3 6147   5.082  16.638  10.058  0.0657  0.0973  0.1378
  385loPI   PO4 6148   5.678  16.636   9.907 -0.0298  0.0394 -0.1699
  385loPI   GL1 6149   5.837  16.508   9.414 -0.4165 -0.0895 -0.0803
  385loPI   GL2 6150   5.829  16.197   9.323  0.0846  0.2719  0.1027
  385loPI   C1A 6151   5.527  16.546   9.101 -0.1992  0.0889 -0.0312
  385loPI   C2A 6152   5.523  16.571   8.649 -0.0389  0.2799  0.2571
  385loPI   C3A 6153   5.745  16.587   8.318  0.1809 -0.0152  0.0939
  385loPI   C4A 6154   6.107  16.702   8.115 -0.2900  0.2270  0.2232
  385loPI   C5A 6155   6.315  17.059   7.900  0.2282  0.1070 -0.2449
  385loPI   C6A 6156   6.810  17.168   7.929 -0.1055  0.0532 -0.0733
  385loPI   C1B 6157   6.026  16.434   8.889 -0.1254  0.2083 -0.0893
  385loPI   C2B 6158   6.164  16.306   8.429 -0.2571  0.1605 -0.0853
  385loPI   C3B 6159   6.332  16.303   7.972  0.1070 -0.0011  0.0210
  385loPI   C4B 6160   6.325  16.382   7.622  0.0207 -0.0735 -0.1939
  386loPI    C1 6161   5.082  15.861  10.218  0.0423 -0.1192  0.0898
  386loPI    C2 6162   4.953  16.202  10.382  0.0133 -0.1422  0.1149
  386loPI    C3 6163   5.293  16.035  10.511  0.1095 -0.0406 -0.0046
  386loPI   PO4 6164   5.078  15.832   9.966 -0.1745  0.0630  0.1120
  386loPI   GL1 6165   5.163  15.905   9.539  0.2985  0.1032  0.1312
  386loPI   GL2 6166   5.293  16.073   9.312 -0.0539  0.3049  0.0072
  386loPI   C1A 6167   4.916  15.938   9.084 -0.0922  0.0545  0.2387
  386loPI   C2A 6168   4.834  15.951   8.588 -0.1549  0.4473  0.1249
  386loPI   C3A 6169   4.695  16.225   8.158 -0.1424  0.0036  0.1606
  386loPI   C4A 6170   4.515  16.153   7.651 -0.2544 -0.0572 -0.0027
  386loPI   C5A 6171   4.424  15.877   7.480 -0.3291 -0.2153 -0.0547
  386loPI   C6A 6172   4.246  15.640   7.262  0.1118  0.1029 -0.3190
  386loPI   C1B 6173   5.570  16.011   8.935 -0.1317  0.3500 -0.4842
  386loPI   C2B 6174   5.751  16.146   8.549  0.0244 -0.1794 -0.3193
  386loPI   C3B 6175   5.834  16.118   8.090 -0.0913 -0.3412  0.0229
  386loPI   C4B 6176   5.983  15.839   7.779 -0.0967  0.0393  0.2209
  387loPI    C1 6177   9.792   2.235   9.961  0.0199 -0.1975 -0.1040
  387loPI    C2 6178   9.659   2.057  10.294  0.3163  0.0240  0.1383
  387loPI    C3 6179   9.762   1.837   9.977  0.0186 -0.1880  0.1847
  387loPI   PO4 6180   9.604   2.459   9.933 -0.2068  0.1518 -0.1179
  387loPI   GL1 6181   9.323   2.476   9.597 -0.3133 -0.0114 -0.4740
  387loPI   GL2 6182   8.912   2.523   9.512  0.2895 -0.1788  0.0761
  387loPI   C1A 6183   9.346   2.698   9.216  0.0200  0.3988  0.0800
  387loPI   C2A 6184   9.180   2.412   8.787 -0.1857  0.0401 -0.3445
  387loPI   C3A 6185   9.302   2.098   8.401  0.1057 -0.2851 -0.1749
  387loPI   C4A 6186   9.481   2.039   8.022  0.0648 -0.2569 -0.2620
  387loPI   C5A 6187   9.812   1.964   7.701  0.1930  0.0488 -0.0391
  387loPI   C6A 6188  10.256   2.051   7.499 -0.2845  0.1090 -0.0934
  387loPI   C1B 6189   9.202   2.202   9.229 -0.0205  0.1682  0.0320
  387loPI   C2B 6190   9.479   2.068   8.882  0.0124 -0.1064 -0.0903
  387loPI   C3B 6191   9.221   1.720   8.661  0.0553  0.0737  0.1390
  387loPI   C4B 6192   9.047   1.468   8.295 -0.1610  0.1685  0.1725
  388loPI    C1 6193  14.271   1.323  10.040  0.1015 -0.0026  0.2478
  388loPI    C2 6194  13.939   1.146  10.176  0.0626 -0.0530  0.0893
  388loPI    C3 6195  14.286   0.947  10.176  0.0440 -0.0859  0.0285
  388loPI   PO4 6196  14.180   1.567   9.820 -0.1813 -0.2861  0.0942
  388loPI   GL1 6197  13.872   1.808   9.532 -0.1877 -0.3797  0.0554
  388loPI   GL2 6198  13.555   1.736   9.389  0.1944  0.3110  0.0473
  388loPI   C1A 6199  13.894   2.049   9.182  0.1948  0.1136  0.0161
  388loPI   C2A 6200  13.851   2.137   8.720  0.2410 -0.0195  0.0091
  388loPI   C3A 6201  13.813   2.184   8.336  0.0840 -0.3492 -0.8358
  388loPI   C4A 6202  13.755   2.297   7.996  0.1177 -0.1010  0.2932
  388loPI   C5A 6203  13.901   2.553   7.657  0.0175  0.0837  0.0910
  388loPI   C6A 6204  14.200   2.942   7.699  0.1802  0.0811 -0.0242
  388loPI   C1B 6205  13.467   1.716   8.964 -0.1190  0.1403 -0.3142
  388loPI   C2B 6206  13.441   1.864   8.616 -0.0280 -0.2124 -0.0183
  388loPI   C3B 6207  13.346   1.777   8.189 -0.0722  0.1062  0.0577
  388loPI   C4B 6208  13.351   1.478   7.980 -0.0097 -0.5097  0.0266
  389loPI    C1 6209  18.852   6.716  10.120  0.2029  0.0847 -0.1175
  389loPI    C2 6210  18.945   6.920  10.451  0.2805 -0.0092 -0.0808
  389loPI    C3 6211  19.166   6.605  10.341 -0.0873 -0.3384  0.0981
  389loPI   PO4 6212  18.595   6.702  10.101 -0.3476  0.0840 -0.0273
  389loPI   GL1 6213  18.228   6.663   9.860 -0.0568 -0.0696  0.0543
  389loPI   GL2 6214  18.259   7.046   9.802  0.1415  0.1198 -0.0654
  389loPI   C1A 6215  18.279   6.645   9.388  0.0784  0.1130  0.1569
  389loPI   C2A 6216  18.151   6.573   8.979 -0.0113 -0.2319  0.3097
  389loPI   C3A 6217  18.097   6.712   8.565  0.0660  0.0557  0.0905
  389loPI   C4A 6218  18.132   6.595   8.116  0.0746 -0.1173  0.0798
  389loPI   C5A 6219  18.304   6.105   7.940  0.0341 -0.0692 -0.0146
  389loPI   C6A 6220  18.458   5.853   7.568 -0.0147  0.0331  0.3272
  389loPI   C1B 6221  18.367   7.167   9.438  0.0306  0.0221 -0.1094
  389loPI   C2B 6222  18.357   7.192   9.002 -0.2154  0.0807  0.0805
  389loPI   C3B 6223  18.315   7.168   8.556 -0.1048 -0.1645 -0.2157
  389loPI   C4B 6224  18.229   7.117   8.148  0.1705 -0.0820 -0.0882
  390loPI    C1 6225   8.696   8.328  10.243  0.0082  0.2360  0.2047
  390loPI    C2 6226   8.539   8.690  10.311 -0.0816  0.1885  0.2523
  390loPI    C3 6227   8.561   8.423  10.608 -0.1571  0.1012  0.1794
  390loPI   PO4 6228   8.889   8.475  10.046  0.0353  0.0161  0.2405
  390loPI   GL1 6229   9.062   8.540   9.562  0.0714 -0.1784 -0.1574
  390loPI   GL2 6230   9.191   8.312   9.453 -0.2768 -0.2554  0.2229
  390loPI   C1A 6231   8.829   8.805   9.383  0.0811  0.0231  0.0946
  390loPI   C2A 6232   8.871   9.025   8.969 -0.0566  0.0653  0.2158
  390loPI   C3A 6233   8.857   9.056   8.594  0.1039 -0.0612 -0.0429
  390loPI   C4A 6234   8.841   9.380   8.327  0.0470 -0.0073  0.0909
  390loPI   C5A 6235   8.822   9.606   7.795  0.1684 -0.2678  0.1368
  390loPI   C6A 6236   8.993   9.943   7.488  0.1387  0.1416  0.2475
  390loPI   C1B 6237   9.377   8.423   9.093 -0.1618 -0.0778 -0.2026
  390loPI   C2B 6238   9.392   8.273   8.718 -0.2770  0.1949  0.0755
  390loPI   C3B 6239   9.385   8.282   8.274 -0.0326 -0.0819  0.1181
  390loPI   C4B 6240   9.771   8.068   8.100 -0.0518 -0.0643 -0.3493
  391loPI    C1 6241   2.080  15.392   9.699  0.1950 -0.0342 -0.0197
  391loPI    C2 6242   1.689  15.472   9.725  0.1653 -0.1642 -0.0579
  391loPI    C3 6243   1.918  15.490  10.052  0.2012  0.2784 -0.1006
  391loPI   PO4 6244   2.138  15.440   9.436 -0.0590 -0.0197  0.0841
  391loPI   GL1 6245   2.142  15.398   9.017 -0.1147  0.0042 -0.1258
  391loPI   GL2 6246   2.263  15.686   9.005  0.2474 -0.4712  0.1713
  391loPI   C1A 6247   2.268  15.421   8.580 -0.1176 -0.1195 -0.0548
  391loPI   C2A 6248   2.277  15.502   8.152  0.3153 -0.0339 -0.0957
  391loPI   C3A 6249   2.207  15.597   7.793  0.0059  0.1570 -0.2241
  391loPI   C4A 6250   2.205  15.410   7.390 -0.0055  0.1757 -0.0503
  391loPI   C5A 6251   2.272  14.950   7.360  0.0514  0.2820 -0.1499
  391loPI   C6A 6252   2.223  14.506   7.129  0.0091  0.2475 -0.0528
  391loPI   C1B 6253   2.624  15.440   9.018 -0.0813  0.2726  0.0762
  391loPI   C2B 6254   2.847  15.476   8.606  0.0884 -0.4208 -0.0727
  391loPI   C3B 6255   2.888  15.358   8.244 -0.0049  0.1818 -0.0341
  391loPI   C4B 6256   3.101  15.349   7.897  0.1524  0.1109 -0.0213
  392loPI    C1 6257   5.679  17.407  10.034 -0.0496  0.0025 -0.1154
  392loPI    C2 6258   5.923  17.131   9.880  0.0096  0.0946 -0.1873
  392loPI    C3 6259   5.750  17.068  10.235  0.1081  0.0127 -0.1531
  392loPI   PO4 6260   5.845  17.683  10.008  0.0094 -0.2307 -0.4988
  392loPI   GL1 6261   6.076  17.776   9.640  0.2420  0.2490  0.3115
  392loPI   GL2 6262   5.887  17.581   9.492 -0.2206  0.0147  0.2669
  392loPI   C1A 6263   6.388  17.836   9.433  0.0310  0.2687  0.4151
  392loPI   C2A 6264   6.605  17.864   9.008  0.3436  0.1989 -0.1385
  392loPI   C3A 6265   7.002  17.820   8.894  0.0221  0.0735  0.0730
  392loPI   C4A 6266   7.007  18.002   8.509 -0.1873 -0.0158 -0.2301
  392loPI   C5A 6267   7.151  18.169   8.234  0.0254  0.0138  0.1890
  392loPI   C6A 6268   7.313  18.492   7.953 -0.1783  0.1163  0.0902
  392loPI   C1B 6269   5.996  17.801   9.050 -0.0797  0.1197 -0.3151
  392loPI   C2B 6270   5.924  17.745   8.499  0.2846  0.1952 -0.0416
  392loPI   C3B 6271   5.755  17.896   8.144  0.1454 -0.3366  0.2458
  392loPI   C4B 6272   5.346  17.970   8.012 -0.1884 -0.5214  0.1488
  393loPI    C1 6273  10.422  12.463  10.361 -0.0812 -0.0133  0.0859
  393loPI    C2 6274  10.264  12.793  10.201 -0.1174 -0.0274  0.0925
  393loPI    C3 6275  10.558  12.823  10.471 -0.1047 -0.0014  0.0759
  393loPI   PO4 6276  10.505  12.321  10.144 -0.0586  0.0986  0.0844
  393loPI   GL1 6277  10.603  12.222   9.737  0.0161 -0.3714 -0.1493
  393loPI   GL2 6278  10.890  12.315   9.690  0.1702  0.1071  0.0246
  393loPI   C1A 6279  10.500  12.557   9.391  0.1793  0.1364  0.1313
  393loPI   C2A 6280  10.392  12.653   8.981  0.1567  0.1126 -0.0241
  393loPI   C3A 6281  10.325  12.477   8.563  0.0798 -0.0992 -0.0125
  393loPI   C4A 6282  10.290  12.280   8.181 -0.0296 -0.0339  0.4311
  393loPI   C5A 6283  10.191  11.918   7.823 -0.1454  0.1620 -0.0685
  393loPI   C6A 6284  10.326  11.457   7.856 -0.2048  0.1313  0.1377
  393loPI   C1B 6285  10.799  12.160   9.283  0.1040 -0.1442  0.0463
  393loPI   C2B 6286  10.676  12.163   8.847 -0.4863  0.2204 -0.3604
  393loPI   C3B 6287  10.672  12.028   8.379  0.0389 -0.2916 -0.2782
  393loPI   C4B 6288  10.732  12.134   7.962 -0.0120 -0.1098 -0.1257
  394loPI    C1 6289  14.831  16.916   9.904  0.0858  0.1377 -0.0297
  394loPI    C2 6290  14.634  17.252   9.994 -0.1288 -0.0127  0.0703
  394loPI    C3 6291  14.625  16.941  10.246  0.1466 -0.0611  0.0233
  394loPI   PO4 6292  14.869  17.011   9.621  0.3100 -0.0753 -0.2046
  394loPI   GL1 6293  14.690  17.099   9.326  0.2684 -0.0344  0.1985
  394loPI   GL2 6294  14.810  17.340   9.138  0.1168  0.1729  0.2617
  394loPI   C1A 6295  14.452  16.928   8.955 -0.1062  0.0641 -0.0499
  394loPI   C2A 6296  14.590  16.875   8.564 -0.4277 -0.0204  0.0895
  394loPI   C3A 6297  14.476  16.668   8.227  0.0947  0.2378 -0.1427
  394loPI   C4A 6298  14.444  16.400   7.888  0.0544  0.0102 -0.2288
  394loPI   C5A 6299  14.803  16.288   7.594 -0.1605 -0.0154  0.0897
  394loPI   C6A 6300  15.230  16.483   7.363 -0.1402 -0.1287 -0.0544
  394loPI   C1B 6301  14.955  17.243   8.715 -0.3496 -0.1025  0.1063
  394loPI   C2B 6302  15.009  17.196   8.198 -0.0582  0.0114 -0.1577
  394loPI   C3B 6303  15.275  17.017   7.764  0.0556 -0.2401  0.1772
  394loPI   C4B 6304  15.478  16.947   7.467  0.2744 -0.0948  0.0892
  395loPI    C1 6305   6.789  13.993  10.352 -0.1539 -0.2410  0.2089
  395loPI    C2 6306   7.096  13.737  10.342 -0.1540 -0.2330 -0.0953
  395loPI    C3 6307   6.721  13.599  10.339 -0.1548 -0.2372  0.0838
  395loPI   PO4 6308   6.804  14.150  10.094  0.1895  0.2512  0.0966
  395loPI   GL1 6309   6.982  14.347   9.738 -0.0308  0.1406 -0.1753
  395loPI   GL2 6310   6.622  14.223   9.670  0.0043 -0.2050  0.0006
  395loPI   C1A 6311   7.114  14.446   9.382  0.1222 -0.2843 -0.0004
  395loPI   C2A 6312   7.129  14.425   9.026  0.5166  0.2839 -0.2426
  395loPI   C3A 6313   7.062  14.435   8.709 -0.1544 -0.0351  0.0948
  395loPI   C4A 6314   6.850  14.497   8.383  0.1408  0.3933  0.0796
  395loPI   C5A 6315   6.790  14.755   7.994 -0.2396 -0.4817  0.2639
  395loPI   C6A 6316   6.422  14.931   7.778  0.0957  0.1111  0.1826
  395loPI   C1B 6317   6.660  13.973   9.466 -0.1025  0.2051 -0.0688
  395loPI   C2B 6318   6.779  13.534   9.261 -0.1344 -0.0741  0.0789
  395loPI   C3B 6319   6.716  13.420   8.856  0.3353 -0.0915 -0.1494
  395loPI   C4B 6320   6.770  13.369   8.432 -0.1264 -0.0896 -0.0131
  396loPI    C1 6321   3.643   6.386  10.260 -0.1190  0.1080 -0.0448
  396loPI    C2 6322   3.378   6.302  10.548 -0.1056 -0.0940 -0.0901
  396loPI    C3 6323   3.765   6.213  10.600 -0.1008 -0.1162 -0.1641
  396loPI   PO4 6324   3.614   6.298  10.092  0.0685  0.1208 -0.0628
  396loPI   GL1 6325   3.658   5.909   9.767 -0.0287 -0.0004  0.4284
  396loPI   GL2 6326   3.468   5.700   9.778 -0.1994  0.2291 -0.0715
  396loPI   C1A 6327   3.590   6.066   9.412  0.1515 -0.0154  0.2020
  396loPI   C2A 6328   3.494   6.071   9.039 -0.1688  0.0926 -0.2730
  396loPI   C3A 6329   3.434   6.115   8.669 -0.2083  0.2241  0.1796
  396loPI   C4A 6330   3.504   6.139   8.248 -0.1720  0.0430  0.0739
  396loPI   C5A 6331   3.685   6.345   7.970  0.2065 -0.0575 -0.3606
  396loPI   C6A 6332   3.865   6.608   7.706 -0.2827  0.2007  0.0389
  396loPI   C1B 6333   3.230   5.501   9.481 -0.2574  0.0671 -0.0284
  396loPI   C2B 6334   3.177   5.510   9.055 -0.1211 -0.0721 -0.0003
  396loPI   C3B 6335   3.257   5.674   8.679 -0.1875 -0.3594  0.0066
  396loPI   C4B 6336   3.305   5.680   8.152 -0.3223 -0.1136  0.3606
  397loPI    C1 6337  16.876  15.721  10.180  0.2359 -0.0073  0.2319
  397loPI    C2 6338  17.196  15.855  10.378  0.3872  0.0361 -0.0377
  397loPI    C3 6339  17.172  15.469  10.276  0.0918 -0.0889  0.4710
  397loPI   PO4 6340  16.858  15.768   9.914  0.1686 -0.2252  0.0728
  397loPI   GL1 6341  16.803  15.970   9.412 -0.0617 -0.0615 -0.1601
  397loPI   GL2 6342  16.892  16.229   9.296 -0.1705  0.1415 -0.2729
  397loPI   C1A 6343  16.816  15.918   8.965  0.0200 -0.1033  0.0977
  397loPI   C2A 6344  16.781  15.919   8.466 -0.3163  0.3878  0.0353
  397loPI   C3A 6345  16.727  15.899   8.094  0.0088  0.0620  0.2495
  397loPI   C4A 6346  16.757  16.135   7.686  0.2925  0.0754 -0.0278
  397loPI   C5A 6347  16.665  16.486   7.451 -0.3321 -0.5692  0.0117
  397loPI   C6A 6348  16.336  16.902   7.223 -0.1346 -0.4737  0.2106
  397loPI   C1B 6349  17.271  15.919   9.212  0.2819 -0.1740  0.0270
  397loPI   C2B 6350  17.606  15.893   8.916  0.2761  0.0360  0.1053
  397loPI   C3B 6351  17.509  15.895   8.454  0.2242 -0.0199  0.0071
  397loPI   C4B 6352  17.221  15.875   8.022  0.1100  0.1154  0.2313
  398loPI    C1 6353   5.328   5.105  10.219 -0.0492 -0.0600 -0.0034
  398loPI    C2 6354   5.513   5.217  10.556 -0.1041  0.1264 -0.0346
  398loPI    C3 6355   5.373   4.844  10.520 -0.0275  0.0822  0.1178
  398loPI   PO4 6356   5.412   5.223  10.105  0.1237  0.3605 -0.0612
  398loPI   GL1 6357   5.688   5.181   9.746  0.6386 -0.2195 -0.1734
  398loPI   GL2 6358   5.922   5.448   9.743 -0.2958 -0.0579 -0.1894
  398loPI   C1A 6359   5.497   5.251   9.357 -0.0887 -0.1444  0.3145
  398loPI   C2A 6360   5.581   5.375   8.956 -0.2064  0.2854 -0.2539
  398loPI   C3A 6361   5.585   5.338   8.574  0.3876  0.0072  0.0183
  398loPI   C4A 6362   5.654   5.405   8.232  0.2493 -0.2701  0.1533
  398loPI   C5A 6363   5.850   5.213   7.745 -0.0611  0.0628 -0.3416
  398loPI   C6A 6364   5.630   4.826   7.504 -0.3239 -0.2873  0.1124
  398loPI   C1B 6365   6.034   5.177   9.329 -0.2188  0.1161 -0.5449
  398loPI   C2B 6366   6.027   5.074   8.869 -0.0152 -0.0899  0.2019
  398loPI   C3B 6367   6.009   5.082   8.363 -0.1568 -0.1709 -0.2306
  398loPI   C4B 6368   5.915   4.853   8.097 -0.0813 -0.0148  0.1260
  399loPI    C1 6369   2.591   5.340  10.082  0.0551  0.2794  0.0436
  399loPI    C2 6370   2.412   5.215  10.417  0.0460  0.0632 -0.0406
  399loPI    C3 6371   2.811   5.206  10.388  0.0382 -0.0982 -0.1054
  399loPI   PO4 6372   2.376   5.403   9.881 -0.1354 -0.1234 -0.1469
  399loPI   GL1 6373   2.376   5.421   9.480  0.2961 -0.2282  0.0095
  399loPI   GL2 6374   2.287   5.093   9.431 -0.2998  0.5904 -0.2575
  399loPI   C1A 6375   2.258   5.486   9.083 -0.2838 -0.0574  0.0550
  399loPI   C2A 6376   2.207   5.450   8.648  0.2931  0.2420 -0.1319
  399loPI   C3A 6377   1.990   5.377   8.295  0.0566 -0.4417 -0.0964
  399loPI   C4A 6378   1.736   5.416   7.938  0.1598  0.2507 -0.1220
  399loPI   C5A 6379   1.612   5.225   7.531  0.0425  0.0837  0.1777
  399loPI   C6A 6380   1.500   4.779   7.456 -0.1462  0.1477  0.3187
  399loPI   C1B 6381   2.164   4.891   9.035  0.1758  0.0083 -0.0388
  399loPI   C2B 6382   2.196   4.741   8.573  0.1211  0.2222  0.1688
  399loPI   C3B 6383   2.240   4.618   8.056  0.0164 -0.0447 -0.0310
  399loPI   C4B 6384   2.140   4.370   7.787  0.2545 -0.0686 -0.0893
  400loPI    C1 6385   6.211  13.645  10.320 -0.0358  0.3924  0.1061
  400loPI    C2 6386   6.085  13.424  10.628  0.1128  0.1321 -0.0171
  400loPI    C3 6387   6.338  13.728  10.690  0.0915  0.1213  0.1251
  400loPI   PO4 6388   5.987  13.706  10.156  0.0991  0.2012  0.3180
  400loPI   GL1 6389   6.084  13.903   9.693  0.3747 -0.0989  0.3267
  400loPI   GL2 6390   6.110  14.261   9.686  0.0392  0.1947 -0.1809
  400loPI   C1A 6391   6.308  13.629   9.390  0.1376 -0.2766 -0.0452
  400loPI   C2A 6392   6.413  13.821   9.035  0.2895 -0.0919 -0.1307
  400loPI   C3A 6393   6.397  13.827   8.677 -0.0845  0.2920  0.0980
  400loPI   C4A 6394   6.328  13.645   8.238 -0.1071 -0.1023  0.1074
  400loPI   C5A 6395   6.122  13.658   7.931 -0.1920 -0.0229  0.2220
  400loPI   C6A 6396   5.691  13.603   7.704  0.2154 -0.0847  0.0311
  400loPI   C1B 6397   6.229  14.191   9.339 -0.2282 -0.0529  0.0063
  400loPI   C2B 6398   6.091  14.167   8.960  0.1813 -0.1498  0.3368
  400loPI   C3B 6399   5.872  13.816   8.554 -0.0165  0.0012 -0.3141
  400loPI   C4B 6400   5.894  13.426   8.250  0.0532  0.0130 -0.2410
  401loPI    C1 6401  14.045  13.755   9.576  0.0679 -0.0068 -0.1114
  401loPI    C2 6402  14.030  14.053   9.843 -0.0388 -0.1556  0.0511
  401loPI    C3 6403  14.090  14.134   9.456 -0.0736  0.0768  0.0928
  401loPI   PO4 6404  13.914  13.634   9.599 -0.1929  0.1362  0.2344
  401loPI   GL1 6405  13.940  13.404   9.228  0.2243 -0.1969  0.2023
  401loPI   GL2 6406  14.127  13.131   9.294  0.0760  0.0687  0.0989
  401loPI   C1A 6407  13.938  13.332   8.720 -0.4822  0.1722  0.0597
  401loPI   C2A 6408  14.052  13.188   8.275  0.3155 -0.0649  0.0365
  401loPI   C3A 6409  14.086  13.136   7.821 -0.0821  0.0063 -0.0001
  401loPI   C4A 6410  14.211  13.219   7.397  0.2137 -0.2093  0.1881
  401loPI   C5A 6411  14.399  13.342   6.980 -0.2426 -0.1283 -0.1953
  401loPI   C6A 6412  14.612  13.316   6.638  0.0097 -0.2171 -0.2372
  401loPI   C1B 6413  13.877  12.895   9.001  0.1338 -0.0894 -0.0283
  401loPI   C2B 6414  13.767  12.843   8.518  0.1162  0.1448 -0.1434
  401loPI   C3B 6415  13.741  12.762   8.111 -0.1496  0.2281 -0.1831
  401loPI   C4B 6416  14.020  12.674   7.681  0.0276 -0.2497  0.1886
  402loPI    C1 6417   7.477  16.614  10.056 -0.0594  0.0698  0.0104
  402loPI    C2 6418   7.865  16.702  10.100 -0.0358  0.0113 -0.0781
  402loPI    C3 6419   7.598  16.840  10.363  0.0390  0.0922 -0.0442
  402loPI   PO4 6420   7.517  16.412   9.859 -0.0334  0.2503  0.4274
  402loPI   GL1 6421   7.278  16.241   9.662 -0.1690 -0.1445  0.0948
  402loPI   GL2 6422   7.021  16.117   9.702 -0.0440  0.0756  0.0272
  402loPI   C1A 6423   7.410  16.264   9.213  0.1025  0.2989  0.0200
  402loPI   C2A 6424   7.539  16.195   8.837  0.0500  0.2987  0.0377
  402loPI   C3A 6425   7.621  16.100   8.451  0.2058  0.0921  0.1084
  402loPI   C4A 6426   7.368  16.053   8.135  0.2824 -0.1007 -0.0219
  402loPI   C5A 6427   7.252  15.885   7.705 -0.0966  0.2063  0.0687
  402loPI   C6A 6428   6.926  15.696   7.633 -0.2364 -0.2891 -0.1536
  402loPI   C1B 6429   6.875  15.959   9.276 -0.1071 -0.0578  0.1156
  402loPI   C2B 6430   6.808  15.937   8.931  0.3872 -0.1321 -0.1978
  402loPI   C3B 6431   7.030  15.925   8.552  0.0810 -0.2111 -0.2277
  402loPI   C4B 6432   7.003  15.658   8.138  0.1038  0.2374 -0.0119
  403loPI    C1 6433  14.113   7.154  10.278 -0.0364 -0.0744  0.0471
  403loPI    C2 6434  14.003   7.434  10.542 -0.3157  0.0489 -0.1931
  403loPI    C3 6435  14.274   7.519  10.260 -0.2899  0.0303 -0.1742
  403loPI   PO4 6436  13.948   7.105  10.177  0.2998 -0.1856 -0.0806
  403loPI   GL1 6437  13.924   7.043   9.810  0.2142  0.1677  0.1268
  403loPI   GL2 6438  13.665   7.208   9.748  0.0209  0.0492  0.3745
  403loPI   C1A 6439  13.874   6.940   9.372  0.0939 -0.0178 -0.0203
  403loPI   C2A 6440  13.638   6.935   8.975  0.5423  0.2531 -0.0144
  403loPI   C3A 6441  13.818   7.239   8.691  0.1600  0.3354  0.3810
  403loPI   C4A 6442  13.742   7.380   8.340 -0.2009  0.1073  0.1280
  403loPI   C5A 6443  13.690   7.263   7.957  0.4381  0.1615  0.1752
  403loPI   C6A 6444  13.721   7.032   7.584  0.0322  0.2344 -0.0712
  403loPI   C1B 6445  13.429   7.065   9.361 -0.3265 -0.0156  0.2047
  403loPI   C2B 6446  13.357   7.327   9.042  0.3373 -0.0727  0.2117
  403loPI   C3B 6447  13.313   7.323   8.565 -0.0196 -0.1354  0.3478
  403loPI   C4B 6448  12.998   7.513   8.374  0.1606 -0.1906 -0.0854
  404loPI    C1 6449   4.218   3.674  10.520 -0.0934  0.1252 -0.0152
  404loPI    C2 6450   4.344   3.630  10.897  0.1282 -0.1316 -0.1163
  404loPI    C3 6451   3.996   3.813  10.823  0.3023  0.3411  0.1834
  404loPI   PO4 6452   4.511   3.738  10.350 -0.0075  0.4454 -0.0550
  404loPI   GL1 6453   4.650   3.692   9.981 -0.2632  0.0724  0.6500
  404loPI   GL2 6454   4.638   3.504   9.763 -0.2877  0.1164 -0.0285
  404loPI   C1A 6455   4.850   3.921   9.542  0.0079  0.0888  0.0675
  404loPI   C2A 6456   4.952   4.095   9.183 -0.1476  0.0620  0.1416
  404loPI   C3A 6457   4.872   4.104   8.764 -0.1345  0.2528  0.2406
  404loPI   C4A 6458   4.744   4.216   8.337  0.1900  0.0849  0.3258
  404loPI   C5A 6459   4.775   4.153   7.893  0.1800  0.0305  0.3824
  404loPI   C6A 6460   5.052   4.267   7.493 -0.2230  0.0915  0.1148
  404loPI   C1B 6461   4.893   3.481   9.416 -0.1410  0.1942  0.2766
  404loPI   C2B 6462   4.819   3.592   9.023  0.2292 -0.0855  0.2532
  404loPI   C3B 6463   5.014   3.634   8.628 -0.2998 -0.1388  0.0136
  404loPI   C4B 6464   5.122   3.907   8.253 -0.0053  0.0438 -0.1944
  405loPI    C1 6465  14.725   1.722  10.154  0.1881  0.0964  0.0321
  405loPI    C2 6466  14.346   1.801  10.252  0.1433 -0.1718  0.0831
  405loPI    C3 6467  14.641   1.902  10.501  0.0903 -0.1396  0.1332
  405loPI   PO4 6468  14.709   1.792   9.842 -0.1151 -0.3324 -0.0935
  405loPI   GL1 6469  14.695   1.628   9.519 -0.2136 -0.3103 -0.0383
  405loPI   GL2 6470  14.479   1.507   9.411  0.1501  0.1379  0.3814
  405loPI   C1A 6471  14.915   1.747   9.158 -0.0342  0.1330  0.2175
  405loPI   C2A 6472  14.953   1.782   8.809  0.0482  0.0991  0.0961
  405loPI   C3A 6473  14.926   2.070   8.443 -0.2900 -0.1767  0.0590
  405loPI   C4A 6474  15.188   2.128   8.022 -0.1715  0.1095 -0.1581
  405loPI   C5A 6475  15.470   1.924   7.752 -0.0564 -0.0067 -0.0489
  405loPI   C6A 6476  15.630   1.445   7.595 -0.1935 -0.1377  0.0477
  405loPI   C1B 6477  14.414   1.278   9.055  0.5575 -0.3528 -0.0154
  405loPI   C2B 6478  14.403   1.003   8.773  0.1799 -0.0602  0.4698
  405loPI   C3B 6479  14.387   0.816   8.304 -0.0789 -0.0025 -0.3474
  405loPI   C4B 6480  14.326   0.965   7.901 -0.1404  0.1051  0.2376
  406loPI    C1 6481  10.732  15.061  10.431 -0.2806 -0.2081  0.0278
  406loPI    C2 6482  11.025  14.792  10.473  0.0812  0.1376 -0.2034
  406loPI    C3 6483  10.863  14.963  10.796 -0.1432 -0.3370 -0.0551
  406loPI   PO4 6484  10.877  15.124  10.151 -0.1897 -0.0182  0.0008
  406loPI   GL1 6485  11.035  14.833   9.800  0.0333  0.3384  0.3921
  406loPI   GL2 6486  11.309  14.704   9.743  0.2006  0.3660  0.1626
  406loPI   C1A 6487  10.961  14.786   9.372  0.0176 -0.0587 -0.0226
  406loPI   C2A 6488  11.080  14.717   9.045 -0.2543 -0.1990  0.0107
  406loPI   C3A 6489  10.888  14.682   8.613  0.2398 -0.0170 -0.3381
  406loPI   C4A 6490  10.753  14.409   8.207 -0.0536 -0.0688  0.1734
  406loPI   C5A 6491  10.887  14.319   7.807 -0.0986 -0.0352 -0.1492
  406loPI   C6A 6492  11.179  14.276   7.546  0.1381  0.0562 -0.0616
  406loPI   C1B 6493  11.428  14.967   9.417  0.2154  0.0251 -0.0770
  406loPI   C2B 6494  11.600  15.065   9.055  0.2663  0.0047  0.7417
  406loPI   C3B 6495  11.922  15.069   8.697  0.2713 -0.1926  0.0320
  406loPI   C4B 6496  12.373  15.024   8.631  0.0824  0.3390 -0.1672
  407loPI    C1 6497  17.585   6.019  10.314  0.0643  0.0582 -0.2145
  407loPI    C2 6498  17.890   6.139  10.543  0.0372 -0.4991  0.1332
  407loPI    C3 6499  17.520   6.269  10.620  0.1335 -0.0716 -0.0924
  407loPI   PO4 6500  17.711   6.087   9.989  0.3288 -0.1006 -0.0519
  407loPI   GL1 6501  17.990   5.898   9.709 -0.1282 -0.0467 -0.2153
  407loPI   GL2 6502  18.123   6.194   9.617 -0.1843  0.0721  0.0551
  407loPI   C1A 6503  17.749   5.707   9.420  0.2558  0.3752 -0.0010
  407loPI   C2A 6504  17.716   5.620   8.976  0.1645  0.0035  0.0348
  407loPI   C3A 6505  17.898   5.678   8.535  0.0233  0.1387 -0.1105
  407loPI   C4A 6506  17.995   5.764   8.166 -0.1325  0.2282 -0.0453
  407loPI   C5A 6507  18.153   5.491   7.801 -0.0753 -0.1945  0.1595
  407loPI   C6A 6508  18.127   5.538   7.259 -0.0127 -0.1141 -0.1245
  407loPI   C1B 6509  18.005   6.160   9.191 -0.3401  0.4778  0.2396
  407loPI   C2B 6510  17.977   6.144   8.772  0.0099  0.2663  0.0879
  407loPI   C3B 6511  17.968   6.173   8.385 -0.1451  0.0634 -0.2894
  407loPI   C4B 6512  17.808   6.238   7.974  0.0189 -0.0131  0.0657
  408loPI    C1 6513   8.409   4.749  10.162  0.0668 -0.0209  0.0490
  408loPI    C2 6514   8.455   4.855  10.545  0.0601 -0.0932  0.0700
  408loPI    C3 6515   8.104   4.915  10.362  0.0749 -0.0237  0.0638
  408loPI   PO4 6516   8.608   4.665   9.940  0.1532 -0.1242 -0.1354
  408loPI   GL1 6517   8.874   4.845   9.620  0.3335 -0.0116  0.0559
  408loPI   GL2 6518   8.605   5.064   9.592 -0.0946  0.3089  0.0062
  408loPI   C1A 6519   8.965   4.779   9.209 -0.2064  0.4641  0.2790
  408loPI   C2A 6520   9.117   4.559   8.807 -0.0839 -0.1451 -0.0428
  408loPI   C3A 6521   9.352   4.500   8.460 -0.2903 -0.2462  0.0208
  408loPI   C4A 6522   9.341   4.260   8.215  0.1080 -0.0714 -0.1422
  408loPI   C5A 6523   9.441   3.966   7.819 -0.1447  0.1630 -0.1418
  408loPI   C6A 6524   9.649   3.674   7.464 -0.0049  0.3335  0.1628
  408loPI   C1B 6525   8.590   5.113   9.203 -0.1565 -0.0558  0.0841
  408loPI   C2B 6526   8.615   5.010   8.781  0.1722 -0.1050  0.3045
  408loPI   C3B 6527   8.571   5.270   8.463 -0.4630 -0.2319  0.1415
  408loPI   C4B 6528   8.585   5.706   8.225  0.3929 -0.1448  0.0049
  409loPI    C1 6529   5.243  10.192   9.850 -0.2476 -0.2599  0.0067
  409loPI    C2 6530   5.345  10.271  10.229  0.0470 -0.2774 -0.0664
  409loPI    C3 6531   5.031  10.455  10.063  0.0326 -0.1260  0.1259
  409loPI   PO4 6532   5.309   9.896   9.823  0.1713 -0.3864 -0.0946
  409loPI   GL1 6533   5.280   9.684   9.442  0.3516  0.4031 -0.0985
  409loPI   GL2 6534   5.269   9.357   9.477 -0.1917 -0.1694 -0.2624
  409loPI   C1A 6535   5.271   9.554   9.000  0.1563 -0.0716 -0.0816
  409loPI   C2A 6536   5.068   9.491   8.586  0.0039 -0.0667  0.1206
  409loPI   C3A 6537   4.859   9.478   8.296 -0.0203 -0.0346  0.1616
  409loPI   C4A 6538   5.030   9.687   7.961 -0.0782  0.0114 -0.0969
  409loPI   C5A 6539   5.420   9.794   7.864 -0.1163 -0.0557 -0.5486
  409loPI   C6A 6540   5.681   9.997   7.491  0.0645  0.1140 -0.0200
  409loPI   C1B 6541   5.392   9.084   9.099 -0.2144  0.2235 -0.0356
  409loPI   C2B 6542   5.264   8.989   8.652 -0.0010 -0.3502 -0.0188
  409loPI   C3B 6543   5.115   9.026   8.226 -0.1586 -0.0966 -0.0294
  409loPI   C4B 6544   4.925   9.190   7.872  0.4074 -0.2214  0.1869
  410loPI    C1 6545   4.237  17.918  10.114 -0.0733  0.0542  0.1132
  410loPI    C2 6546   4.039  17.582  10.200  0.1221 -0.0468  0.1744
  410loPI    C3 6547   4.404  17.563  10.038  0.2105  0.1334  0.3485
  410loPI   PO4 6548   4.043  18.128   9.956 -0.4441 -0.0691  0.1452
  410loPI   GL1 6549   3.879  18.089   9.444  0.1522  0.1023 -0.1051
  410loPI   GL2 6550   4.079  17.998   9.328 -0.0874 -0.1469 -0.0325
  410loPI   C1A 6551   3.763  18.148   8.939 -0.2927 -0.0634 -0.1347
  410loPI   C2A 6552   3.693  17.871   8.653  0.2613 -0.2305 -0.1098
  410loPI   C3A 6553   3.763  17.692   8.318  0.2381  0.2675 -0.0795
  410loPI   C4A 6554   3.934  17.527   7.982  0.0621  0.1423  0.2477
  410loPI   C5A 6555   4.225  17.274   7.842  0.1642 -0.1297  0.1472
  410loPI   C6A 6556   4.646  17.283   7.779  0.0388  0.0528  0.3336
  410loPI   C1B 6557   4.022  17.709   8.942  0.0013  0.2394 -0.0820
  410loPI   C2B 6558   4.257  17.534   8.573  0.0783 -0.1793  0.0885
  410loPI   C3B 6559   4.442  17.517   8.212 -0.1676 -0.0828  0.1307
  410loPI   C4B 6560   4.452  17.723   7.788 -0.4946  0.3339 -0.0914
  411loPI    C1 6561   6.509  10.968  10.567 -0.1165  0.1620 -0.1387
  411loPI    C2 6562   6.585  11.175  10.902  0.1891 -0.0867 -0.0495
  411loPI    C3 6563   6.242  10.973  10.865  0.1189  0.0074  0.0799
  411loPI   PO4 6564   6.601  11.052  10.379 -0.1182  0.2614  0.2709
  411loPI   GL1 6565   6.752  11.045   9.923  0.1163  0.0198 -0.3173
  411loPI   GL2 6566   6.601  11.336   9.819 -0.0167  0.2399 -0.2146
  411loPI   C1A 6567   6.923  10.928   9.511  0.1641  0.1509  0.0101
  411loPI   C2A 6568   6.891  10.956   8.984  0.0722 -0.0933 -0.1356
  411loPI   C3A 6569   7.160  10.932   8.469  0.4407  0.0128 -0.0908
  411loPI   C4A 6570   7.333  11.101   8.052  0.1178 -0.2804  0.4437
  411loPI   C5A 6571   7.012  11.191   7.729 -0.1270  0.0659  0.0416
  411loPI   C6A 6572   6.854  10.934   7.436  0.1129  0.0366 -0.0950
  411loPI   C1B 6573   6.671  11.325   9.400 -0.1343  0.2878  0.2745
  411loPI   C2B 6574   6.727  11.474   8.925  0.2513  0.0483  0.0027
  411loPI   C3B 6575   6.761  11.606   8.496 -0.1418  0.1312  0.0370
  411loPI   C4B 6576   6.558  11.645   8.088 -0.0893  0.1717  0.1588
  412loPI    C1 6577   1.757  17.892  10.014  0.0886  0.0822 -0.1679
  412loPI    C2 6578   2.036  17.834  10.294 -0.0871 -0.1096 -0.0285
  412loPI    C3 6579   1.801  18.157  10.310  0.0288 -0.0228 -0.0638
  412loPI   PO4 6580   1.863  17.889   9.835  0.0089  0.3039  0.1450
  412loPI   GL1 6581   1.718  17.677   9.409  0.1516  0.1456 -0.0698
  412loPI   GL2 6582   1.604  18.039   9.448  0.1277  0.0111 -0.0635
  412loPI   C1A 6583   1.916  17.806   9.041 -0.0054 -0.1020 -0.2664
  412loPI   C2A 6584   1.937  17.810   8.564 -0.3058 -0.4106 -0.2760
  412loPI   C3A 6585   1.661  17.951   8.177  0.1086 -0.0367  0.0163
  412loPI   C4A 6586   1.266  18.005   8.013 -0.0462 -0.1516  0.2301
  412loPI   C5A 6587   1.119  17.887   7.745 -0.4187 -0.0785  0.0904
  412loPI   C6A 6588   1.177  18.010   7.290  0.1484  0.1609  0.0562
  412loPI   C1B 6589   1.491  18.028   9.039  0.1629 -0.0450 -0.0312
  412loPI   C2B 6590   1.632  18.217   8.615  0.2246  0.1746  0.0878
  412loPI   C3B 6591   1.488  18.382   8.311 -0.0010 -0.0388  0.2339
  412loPI   C4B 6592   1.521  18.471   8.003 -0.1046 -0.1162 -0.1628
  413loPI    C1 6593   3.896  13.188  10.197 -0.0289 -0.0963 -0.1298
  413loPI    C2 6594   3.640  13.170  10.504  0.1723  0.1873  0.0589
  413loPI    C3 6595   3.956  12.925  10.493 -0.0266 -0.0670 -0.1042
  413loPI   PO4 6596   3.786  13.067  10.037 -0.0375 -0.0344  0.0509
  413loPI   GL1 6597   3.751  13.027   9.675 -0.1397 -0.0134  0.0397
  413loPI   GL2 6598   3.515  13.289   9.626  0.1560  0.1956 -0.0045
  413loPI   C1A 6599   3.890  13.051   9.225  0.0652 -0.2821 -0.1662
  413loPI   C2A 6600   4.192  12.967   8.935  0.0402 -0.0382 -0.0490
  413loPI   C3A 6601   4.319  12.642   8.750  0.3933  0.1387  0.0645
  413loPI   C4A 6602   4.312  12.416   8.454 -0.1025 -0.0266 -0.0475
  413loPI   C5A 6603   4.289  12.520   8.053 -0.3139 -0.2715 -0.1437
  413loPI   C6A 6604   4.073  12.307   7.856  0.1014 -0.1227 -0.1730
  413loPI   C1B 6605   3.489  13.297   9.162 -0.0957  0.1493 -0.0445
  413loPI   C2B 6606   3.646  13.282   8.769 -0.0711  0.0975 -0.3239
  413loPI   C3B 6607   4.001  13.173   8.558  0.1024 -0.2104  0.2264
  413loPI   C4B 6608   4.199  12.990   8.287  0.0970 -0.2352 -0.1531
  414loPI    C1 6609   1.452   4.211  10.035  0.0755 -0.1880  0.3113
  414loPI    C2 6610   1.204   4.518   9.966  0.0936 -0.2298  0.0509
  414loPI    C3 6611   1.221   4.353  10.330 -0.4055 -0.3522  0.0254
  414loPI   PO4 6612   1.627   4.237   9.971 -0.1553  0.1207  0.0291
  414loPI   GL1 6613   1.621   4.120   9.584 -0.3832  0.3430 -0.0331
  414loPI   GL2 6614   1.540   4.424   9.459 -0.1760 -0.0177  0.0866
  414loPI   C1A 6615   1.581   4.100   9.055 -0.1882 -0.0417 -0.3406
  414loPI   C2A 6616   1.611   4.046   8.587 -0.3173 -0.4382  0.1899
  414loPI   C3A 6617   1.419   4.010   8.097  0.0671 -0.3241 -0.1697
  414loPI   C4A 6618   1.227   4.078   7.767 -0.1019  0.0764  0.0779
  414loPI   C5A 6619   0.930   3.875   7.605 -0.2290 -0.2160  0.1882
  414loPI   C6A 6620   0.570   3.779   7.637 -0.1781  0.3381  0.1281
  414loPI   C1B 6621   1.691   4.633   9.060  0.0207  0.1716 -0.0239
  414loPI   C2B 6622   1.732   4.581   8.693 -0.0069  0.0822 -0.1237
  414loPI   C3B 6623   1.736   4.486   8.297  0.0256  0.2411 -0.1305
  414loPI   C4B 6624   1.624   4.421   7.797  0.0889  0.1277 -0.0667
  415loPI    C1 6625  13.329  15.273   9.791 -0.0563  0.1541 -0.0831
  415loPI    C2 6626  13.100  15.395   9.486  0.0651  0.1124 -0.1922
  415loPI    C3 6627  13.263  15.664   9.733 -0.1428  0.1398 -0.0823
  415loPI   PO4 6628  13.369  15.065   9.779  0.2013  0.0464 -0.0277
  415loPI   GL1 6629  13.344  14.847   9.409 -0.0994  0.0838  0.1077
  415loPI   GL2 6630  13.416  14.621   9.233 -0.1834  0.0513 -0.0842
  415loPI   C1A 6631  13.304  14.987   8.928  0.1227  0.0220  0.1361
  415loPI   C2A 6632  13.346  15.070   8.527 -0.0045 -0.1778  0.1649
  415loPI   C3A 6633  13.246  14.919   8.137  0.1753 -0.1348 -0.0019
  415loPI   C4A 6634  13.155  14.815   7.814  0.2942  0.3208 -0.2700
  415loPI   C5A 6635  13.216  14.560   7.424  0.0241 -0.1189  0.0719
  415loPI   C6A 6636  13.576  14.324   7.416 -0.0115  0.3423  0.2037
  415loPI   C1B 6637  13.745  14.995   9.169  0.2331  0.2190  0.3101
  415loPI   C2B 6638  13.663  15.321   8.793 -0.3987  0.0639 -0.1273
  415loPI   C3B 6639  13.733  15.307   8.345 -0.0655 -0.0320 -0.0035
  415loPI   C4B 6640  14.019  15.484   8.099 -0.2012  0.3900 -0.2794
  416loPI    C1 6641  12.781   5.424   9.683  0.0972 -0.0432 -0.0347
  416loPI    C2 6642  13.116   5.208   9.724 -0.0222 -0.2226  0.0080
  416loPI    C3 6643  12.839   5.097   9.458 -0.1151 -0.1601  0.0781
  416loPI   PO4 6644  12.892   5.625   9.622 -0.0673 -0.0952  0.1320
  416loPI   GL1 6645  12.794   5.886   9.315  0.1631  0.1464 -0.3637
  416loPI   GL2 6646  12.508   6.078   9.371  0.0822  0.0899  0.2532
  416loPI   C1A 6647  12.898   5.920   8.900  0.1512  0.3173 -0.1607
  416loPI   C2A 6648  12.962   6.065   8.428  0.1742 -0.1832 -0.0748
  416loPI   C3A 6649  12.954   5.886   8.048 -0.0408 -0.0399  0.0923
  416loPI   C4A 6650  13.318   5.629   7.795 -0.2691 -0.0202 -0.4636
  416loPI   C5A 6651  13.601   5.739   7.538  0.1164 -0.1179 -0.5074
  416loPI   C6A 6652  14.056   5.792   7.333  0.2206  0.3315  0.0055
  416loPI   C1B 6653  12.419   6.212   8.963  0.2302 -0.1498 -0.0286
  416loPI   C2B 6654  12.452   6.204   8.574 -0.1298  0.0969  0.0237
  416loPI   C3B 6655  12.503   6.170   8.148 -0.1026  0.0287 -0.3070
  416loPI   C4B 6656  12.629   6.191   7.759 -0.1306 -0.1649  0.2006
  417loPI    C1 6657  12.931  11.493  10.216 -0.1442  0.1220 -0.0977
  417loPI    C2 6658  13.116  11.735  10.475  0.2126 -0.1644 -0.0767
  417loPI    C3 6659  12.963  11.387  10.600  0.0667 -0.1405 -0.1852
  417loPI   PO4 6660  13.052  11.522   9.942 -0.0137 -0.1589  0.0315
  417loPI   GL1 6661  13.427  11.619   9.653  0.0596 -0.0529 -0.0200
  417loPI   GL2 6662  13.403  11.314   9.657  0.1398 -0.0385  0.1150
  417loPI   C1A 6663  13.420  11.660   9.148  0.2381  0.2127  0.0814
  417loPI   C2A 6664  13.318  11.287   8.900  0.1137 -0.2809  0.1004
  417loPI   C3A 6665  13.422  11.155   8.494 -0.2344  0.2053  0.2043
  417loPI   C4A 6666  13.309  11.043   8.032 -0.0138 -0.0506  0.4071
  417loPI   C5A 6667  13.020  10.944   7.702  0.2134  0.1218  0.1782
  417loPI   C6A 6668  12.986  10.757   7.341 -0.1910 -0.2628  0.0967
  417loPI   C1B 6669  13.059  11.338   9.334  0.0780  0.0569 -0.2789
  417loPI   C2B 6670  12.882  11.144   9.001 -0.0024 -0.0804 -0.0137
  417loPI   C3B 6671  12.913  11.211   8.527  0.0242  0.1005  0.2286
  417loPI   C4B 6672  12.775  11.089   8.164  0.2994 -0.0371 -0.2160
  418loPI    C1 6673   8.251  10.352  10.396  0.0876  0.0930 -0.0904
  418loPI    C2 6674   8.064  10.001  10.442  0.1032  0.1019  0.0450
  418loPI    C3 6675   8.059  10.270  10.738  0.2249  0.1525  0.0017
  418loPI   PO4 6676   8.127  10.440  10.106  0.1932  0.1400  0.5621
  418loPI   GL1 6677   7.912  10.499   9.738 -0.0041 -0.1965  0.0403
  418loPI   GL2 6678   7.844  10.726   9.690 -0.0889 -0.3851  0.0262
  418loPI   C1A 6679   7.851  10.359   9.276 -0.2085  0.0003 -0.0574
  418loPI   C2A 6680   7.923  10.582   8.915  0.0082  0.1311  0.0920
  418loPI   C3A 6681   8.136  10.683   8.557  0.3612  0.2529  0.0419
  418loPI   C4A 6682   8.178  10.615   8.107  0.1093  0.0757  0.4112
  418loPI   C5A 6683   8.409  10.678   7.744  0.1028  0.0570  0.0876
  418loPI   C6A 6684   8.582  10.740   7.259 -0.0858  0.2539  0.1029
  418loPI   C1B 6685   8.083  10.851   9.349  0.3876 -0.3344 -0.3516
  418loPI   C2B 6686   8.210  11.045   8.919  0.5458  0.1878 -0.1568
  418loPI   C3B 6687   8.134  11.187   8.378  0.1253 -0.3164 -0.1311
  418loPI   C4B 6688   8.236  11.201   7.948  0.0192 -0.1767 -0.0023
  419loPI    C1 6689  16.584   2.064   9.915 -0.0862 -0.0644  0.1265
  419loPI    C2 6690  16.621   2.458   9.973 -0.0728 -0.0525  0.0385
  419loPI    C3 6691  16.824   2.202  10.203 -0.2673 -0.0150  0.2548
  419loPI   PO4 6692  16.574   2.022   9.724  0.2480  0.3611  0.2237
  419loPI   GL1 6693  16.556   1.899   9.269  0.0726 -0.2209  0.2027
  419loPI   GL2 6694  16.971   1.853   9.458 -0.2176 -0.0829 -0.3226
  419loPI   C1A 6695  16.560   1.896   8.781  0.1245  0.3063 -0.2079
  419loPI   C2A 6696  16.536   1.694   8.392 -0.3107  0.0678 -0.1453
  419loPI   C3A 6697  16.086   1.584   8.215 -0.2037  0.2772 -0.0946
  419loPI   C4A 6698  15.952   1.812   7.806  0.1351  0.5737 -0.3317
  419loPI   C5A 6699  15.785   1.947   7.386 -0.0030  0.2951 -0.0764
  419loPI   C6A 6700  15.790   2.082   7.039  0.0811 -0.0247  0.1639
  419loPI   C1B 6701  17.017   1.881   9.020 -0.2302  0.0027  0.1688
  419loPI   C2B 6702  17.048   1.841   8.549  0.0465 -0.1470 -0.0585
  419loPI   C3B 6703  16.977   1.716   8.176 -0.1739  0.0631  0.4466
  419loPI   C4B 6704  16.949   1.582   7.746 -0.1532  0.1598  0.1905
  420loPI    C1 6705   3.572   9.001  10.306 -0.0164 -0.1321  0.2014
  420loPI    C2 6706   3.918   9.196  10.354  0.0869 -0.2531 -0.0337
  420loPI    C3 6707   3.718   9.062  10.674  0.2473 -0.1670  0.1045
  420loPI   PO4 6708   3.524   8.772  10.241 -0.0833  0.0549 -0.2167
  420loPI   GL1 6709   3.478   8.622   9.835  0.0087  0.3615  0.0021
  420loPI   GL2 6710   3.792   8.521   9.700 -0.0944  0.2032 -0.1042
  420loPI   C1A 6711   3.231   8.718   9.437 -0.1187  0.0358 -0.0624
  420loPI   C2A 6712   3.130   8.962   9.055 -0.0592 -0.3074 -0.2689
  420loPI   C3A 6713   2.973   8.892   8.656  0.1379 -0.1184  0.0379
  420loPI   C4A 6714   2.691   8.875   8.185 -0.3658 -0.1710 -0.1951
  420loPI   C5A 6715   2.650   8.909   7.766 -0.0356  0.0757  0.2077
  420loPI   C6A 6716   2.449   9.190   7.683 -0.3521  0.2055 -0.1144
  420loPI   C1B 6717   3.750   8.860   9.444 -0.0090 -0.1178  0.1379
  420loPI   C2B 6718   3.606   8.817   9.003 -0.1687 -0.0166  0.3621
  420loPI   C3B 6719   3.876   9.093   8.775 -0.3952 -0.1281  0.0256
  420loPI   C4B 6720   3.928   9.605   8.759 -0.3223  0.1615  0.0108
  421loPI    C1 6721   2.137  13.676  10.051  0.2091 -0.1853  0.0397
  421loPI    C2 6722   2.516  13.765  10.144  0.1443 -0.0872  0.2139
  421loPI    C3 6723   2.315  13.497  10.361  0.0886 -0.0805  0.1706
  421loPI   PO4 6724   2.097  13.734   9.806  0.0975  0.1858  0.0121
  421loPI   GL1 6725   2.109  13.487   9.367 -0.1331 -0.2259  0.1439
  421loPI   GL2 6726   1.992  13.788   9.310 -0.0817 -0.1986 -0.1779
  421loPI   C1A 6727   2.093  13.288   9.066  0.0618  0.3038 -0.1377
  421loPI   C2A 6728   2.170  13.044   8.685 -0.0023  0.0625 -0.2721
  421loPI   C3A 6729   2.295  13.139   8.299  0.2482  0.3086  0.2115
  421loPI   C4A 6730   2.138  13.084   7.988 -0.2408  0.1458  0.0630
  421loPI   C5A 6731   1.922  13.176   7.575 -0.2208  0.1594  0.0254
  421loPI   C6A 6732   1.686  12.853   7.522 -0.0247 -0.0052 -0.1321
  421loPI   C1B 6733   1.711  13.585   9.102  0.1280 -0.3043  0.1123
  421loPI   C2B 6734   1.758  13.379   8.713  0.0921 -0.2828 -0.3128
  421loPI   C3B 6735   1.699  13.266   8.340 -0.0987 -0.2130  0.1334
  421loPI   C4B 6736   1.577  13.064   7.958 -0.4337 -0.1588  0.0978
  422loPI    C1 6737   1.266   5.334  10.745  0.1999 -0.1107 -0.1241
  422loPI    C2 6738   1.278   4.940  10.677  0.0007 -0.1744  0.1882
  422loPI    C3 6739   1.245   5.077  11.051  0.0220  0.1395  0.0779
  422loPI   PO4 6740   1.089   5.476  10.408  0.0567 -0.1646  0.1128
  422loPI   GL1 6741   1.181   5.561  10.021 -0.1088 -0.3410  0.1043
  422loPI   GL2 6742   1.459   5.692   9.826  0.0577  0.3331 -0.0010
  422loPI   C1A 6743   0.992   5.704   9.743 -0.3398  0.1521 -0.0658
  422loPI   C2A 6744   0.963   5.709   9.326 -0.1462  0.0037 -0.3867
  422loPI   C3A 6745   0.632   5.760   9.054  0.0506  0.2389 -0.1241
  422loPI   C4A 6746   0.409   5.651   8.694 -0.0724 -0.1325  0.2080
  422loPI   C5A 6747   0.500   5.763   8.190 -0.0509 -0.1562  0.0870
  422loPI   C6A 6748   0.905   5.686   7.870 -0.1916 -0.0060  0.0151
  422loPI   C1B 6749   1.496   5.788   9.437 -0.0328 -0.1409 -0.1552
  422loPI   C2B 6750   1.379   5.886   9.087 -0.0237 -0.2707  0.0789
  422loPI   C3B 6751   1.066   5.850   8.785  0.2396  0.3178 -0.3481
  422loPI   C4B 6752   0.879   5.551   8.441 -0.2332  0.1378 -0.0477
  423loPI    C1 6753  13.047  12.460  10.131  0.0263 -0.0628  0.0183
  423loPI    C2 6754  13.445  12.426  10.100  0.0271 -0.1274  0.0960
  423loPI    C3 6755  13.268  12.396  10.458 -0.0317  0.0746  0.0852
  423loPI   PO4 6756  12.923  12.283  10.021  0.0079  0.2096  0.3381
  423loPI   GL1 6757  12.956  12.278   9.594 -0.1660  0.1522  0.2295
  423loPI   GL2 6758  12.898  11.913   9.555 -0.0975  0.2204  0.0439
  423loPI   C1A 6759  13.016  12.399   9.208 -0.1628  0.0852  0.4545
  423loPI   C2A 6760  12.960  12.355   8.753 -0.0056  0.0759  0.3553
  423loPI   C3A 6761  13.059  12.194   8.373  0.0306 -0.2659 -0.0205
  423loPI   C4A 6762  13.161  12.483   7.960  0.1161  0.0732  0.1552
  423loPI   C5A 6763  13.025  12.310   7.560 -0.0884  0.1973 -0.0360
  423loPI   C6A 6764  12.918  12.357   7.175 -0.3049  0.1280 -0.1644
  423loPI   C1B 6765  12.949  11.860   9.125 -0.1400 -0.3469  0.3554
  423loPI   C2B 6766  13.052  11.769   8.760  0.4242  0.3684 -0.0184
  423loPI   C3B 6767  13.168  11.626   8.390 -0.2310  0.2246 -0.1729
  423loPI   C4B 6768  13.020  11.470   8.003 -0.0012  0.1736 -0.1093
  424loPI    C1 6769   7.948  12.339  10.507 -0.2364 -0.2127 -0.1549
  424loPI    C2 6770   7.999  12.729  10.583  0.1406 -0.3099  0.1154
  424loPI    C3 6771   7.631  12.581  10.535 -0.0266  0.0183  0.3512
  424loPI   PO4 6772   8.121  12.304  10.293  0.1754 -0.3648  0.3058
  424loPI   GL1 6773   8.092  12.240   9.903  0.0491  0.1926  0.1403
  424loPI   GL2 6774   7.999  11.930   9.976  0.0267 -0.0956  0.2056
  424loPI   C1A 6775   8.276  12.241   9.523 -0.1042 -0.1127 -0.0864
  424loPI   C2A 6776   8.267  12.471   9.070 -0.1102  0.0596  0.0993
  424loPI   C3A 6777   8.324  12.545   8.599  0.0715  0.1665 -0.1019
  424loPI   C4A 6778   8.428  12.617   8.171  0.0669 -0.3342  0.1825
  424loPI   C5A 6779   8.389  12.740   7.696 -0.3116  0.0060 -0.1619
  424loPI   C6A 6780   8.341  13.143   7.491  0.0490  0.0408  0.2244
  424loPI   C1B 6781   8.090  11.765   9.544 -0.0219 -0.1116 -0.1437
  424loPI   C2B 6782   8.084  11.528   9.175 -0.0708  0.2079  0.1166
  424loPI   C3B 6783   8.107  11.646   8.652  0.2363  0.3636  0.2687
  424loPI   C4B 6784   8.166  11.715   8.135 -0.4154  0.2506  0.1205
  425loPI    C1 6785  11.417  14.936  10.193 -0.0963  0.0296  0.4380
  425loPI    C2 6786  11.612  15.283  10.236  0.0997 -0.0354  0.1136
  425loPI    C3 6787  11.421  15.203   9.894 -0.0939 -0.1753  0.2523
  425loPI   PO4 6788  11.655  14.745  10.166  0.0099 -0.0603 -0.0752
  425loPI   GL1 6789  11.976  14.566   9.777  0.0294 -0.0793 -0.1093
  425loPI   GL2 6790  11.753  14.502   9.634  0.0448 -0.1312  0.0035
  425loPI   C1A 6791  12.141  14.410   9.336 -0.1878 -0.1278  0.3430
  425loPI   C2A 6792  12.259  14.187   8.889 -0.0931  0.1804  0.0497
  425loPI   C3A 6793  12.135  14.183   8.458  0.2593 -0.3994 -0.0244
  425loPI   C4A 6794  12.005  14.189   7.953 -0.1161 -0.2431  0.0836
  425loPI   C5A 6795  11.986  13.841   7.638  0.1147 -0.1569 -0.0225
  425loPI   C6A 6796  11.885  13.801   7.137  0.3611 -0.0416 -0.1797
  425loPI   C1B 6797  11.579  14.509   9.142 -0.0543 -0.0107 -0.0414
  425loPI   C2B 6798  11.494  14.600   8.847  0.1531 -0.0079  0.2387
  425loPI   C3B 6799  11.385  14.665   8.554  0.0129 -0.2096  0.0954
  425loPI   C4B 6800  11.211  14.687   8.131  0.0054 -0.2135  0.1977
  426loPI    C1 6801  10.852  10.198   9.746 -0.0693 -0.0442 -0.0337
  426loPI    C2 6802  11.173   9.959   9.739 -0.2154 -0.2397 -0.2560
  426loPI    C3 6803  10.892   9.908  10.019 -0.0844 -0.1070 -0.0977
  426loPI   PO4 6804  10.740  10.207   9.556  0.0977  0.2515 -0.1409
  426loPI   GL1 6805  10.746  10.336   9.193  0.0235  0.1631  0.0704
  426loPI   GL2 6806  10.672  10.002   9.047  0.1044  0.0999  0.0819
  426loPI   C1A 6807  10.669  10.433   8.833 -0.2242 -0.0268  0.0518
  426loPI   C2A 6808  10.461  10.420   8.461 -0.0021 -0.1507  0.0761
  426loPI   C3A 6809  10.358  10.593   8.034  0.3205 -0.0982  0.0530
  426loPI   C4A 6810   9.969  10.596   7.799 -0.2442 -0.1359 -0.0238
  426loPI   C5A 6811   9.570  10.732   7.656  0.1958 -0.1862  0.1179
  426loPI   C6A 6812   9.225  10.736   7.359 -0.1489  0.2265  0.2099
  426loPI   C1B 6813  10.671   9.989   8.644  0.1412 -0.1245 -0.1981
  426loPI   C2B 6814  10.642   9.986   8.223 -0.1444 -0.3997  0.1385
  426loPI   C3B 6815  10.644  10.090   7.892 -0.3916  0.0792  0.0618
  426loPI   C4B 6816  10.593   9.804   7.573 -0.2043 -0.1284 -0.1071
  427loPI    C1 6817   9.611  13.911  10.105 -0.0855 -0.0167 -0.1402
  427loPI    C2 6818   9.885  14.023  10.375  0.0079 -0.3056 -0.1115
  427loPI    C3 6819   9.508  13.950  10.490 -0.1358  0.2754 -0.1809
  427loPI   PO4 6820   9.751  13.695   9.941 -0.0335 -0.2088 -0.1461
  427loPI   GL1 6821  10.016  13.460   9.761  0.0037 -0.4589  0.0089
  427loPI   GL2 6822  10.146  13.665   9.652  0.1132  0.0730  0.2327
  427loPI   C1A 6823   9.905  13.413   9.316  0.1283  0.5245  0.1294
  427loPI   C2A 6824   9.838  13.454   8.899  0.2234 -0.1803  0.1439
  427loPI   C3A 6825   9.506  13.613   8.673  0.1912  0.2883 -0.0381
  427loPI   C4A 6826   9.595  13.892   8.395  0.1123  0.4153 -0.2454
  427loPI   C5A 6827   9.624  13.805   7.990  0.0589 -0.0501 -0.2076
  427loPI   C6A 6828   9.873  13.641   7.743  0.3009  0.0496  0.0162
  427loPI   C1B 6829  10.404  13.521   9.300 -0.1297 -0.0697  0.1441
  427loPI   C2B 6830  10.461  13.561   8.949 -0.1640 -0.0545 -0.1812
  427loPI   C3B 6831  10.343  13.537   8.486  0.1230 -0.2163  0.2811
  427loPI   C4B 6832   9.990  13.576   8.224  0.2264  0.3239 -0.1317
  428loPI    C1 6833  13.251   4.660  10.108  0.2169  0.1076 -0.1205
  428loPI    C2 6834  13.101   4.868  10.415  0.0046 -0.0700 -0.1013
  428loPI    C3 6835  13.498   4.833  10.372  0.0369  0.0039  0.1197
  428loPI   PO4 6836  13.181   4.688   9.927 -0.2139 -0.2541  0.1054
  428loPI   GL1 6837  13.049   4.665   9.524  0.2625  0.2660 -0.0517
  428loPI   GL2 6838  12.901   4.390   9.602 -0.0144 -0.0065 -0.0268
  428loPI   C1A 6839  13.244   4.711   9.117  0.0664 -0.0352 -0.1540
  428loPI   C2A 6840  13.501   4.696   8.803  0.2514 -0.0751  0.1793
  428loPI   C3A 6841  13.612   4.907   8.467 -0.0265  0.0605  0.1046
  428loPI   C4A 6842  13.926   5.089   8.128 -0.2422  0.0698 -0.0233
  428loPI   C5A 6843  14.100   4.860   7.766 -0.1779 -0.2147 -0.0831
  428loPI   C6A 6844  14.329   4.640   7.415 -0.2084 -0.0424  0.2702
  428loPI   C1B 6845  12.876   4.309   9.114  0.0230  0.1368 -0.0297
  428loPI   C2B 6846  13.156   4.348   8.739  0.0488 -0.2112  0.0651
  428loPI   C3B 6847  13.197   4.385   8.191  0.1143  0.1123  0.0326
  428loPI   C4B 6848  13.289   4.389   7.776  0.4050 -0.0109  0.1014
  429loPI    C1 6849   6.235   7.583   9.884  0.1842 -0.1631  0.0277
  429loPI    C2 6850   6.335   7.948  10.012 -0.2571 -0.1282  0.2927
  429loPI    C3 6851   6.594   7.646  10.049  0.0536  0.1229  0.2111
  429loPI   PO4 6852   6.177   7.607   9.558  0.1954 -0.1222 -0.4999
  429loPI   GL1 6853   6.365   7.505   9.219  0.3713 -0.0243 -0.2051
  429loPI   GL2 6854   6.631   7.338   9.151  0.1076  0.1997  0.0401
  429loPI   C1A 6855   6.309   7.411   8.796 -0.1374 -0.1318  0.1246
  429loPI   C2A 6856   6.391   7.537   8.491 -0.3918  0.1598  0.3057
  429loPI   C3A 6857   6.309   7.515   8.084 -0.1342  0.1381 -0.0179
  429loPI   C4A 6858   6.458   7.682   7.908 -0.0434 -0.1634 -0.0112
  429loPI   C5A 6859   6.406   7.900   7.492  0.0687  0.1453  0.0702
  429loPI   C6A 6860   6.395   8.414   7.494 -0.0348  0.0866 -0.0706
  429loPI   C1B 6861   6.749   7.278   8.692 -0.3944  0.0127 -0.2757
  429loPI   C2B 6862   6.720   7.185   8.237 -0.3805 -0.0847  0.4267
  429loPI   C3B 6863   6.705   7.256   7.843 -0.0851  0.1034  0.0231
  429loPI   C4B 6864   6.463   7.325   7.556  0.2182 -0.0131  0.2487
  430loPI    C1 6865  12.799  13.200  10.231  0.0776  0.1115 -0.0700
  430loPI    C2 6866  12.807  13.466  10.528 -0.0276  0.0295  0.0073
  430loPI    C3 6867  13.142  13.381  10.327  0.0280  0.1423  0.0509
  430loPI   PO4 6868  12.584  13.208  10.113  0.0248  0.3209 -0.0212
  430loPI   GL1 6869  12.577  13.338   9.712 -0.1448 -0.0322  0.0043
  430loPI   GL2 6870  12.273  13.539   9.725 -0.1046  0.0415  0.1044
  430loPI   C1A 6871  12.393  13.172   9.349 -0.1990 -0.1068  0.0034
  430loPI   C2A 6872  12.252  13.113   9.000  0.1154  0.4615 -0.2150
  430loPI   C3A 6873  12.159  13.045   8.556 -0.3257 -0.3218 -0.0468
  430loPI   C4A 6874  11.979  12.813   8.180  0.1176 -0.1846 -0.1529
  430loPI   C5A 6875  12.054  12.665   7.801 -0.1607 -0.0366  0.0409
  430loPI   C6A 6876  11.721  12.506   7.594 -0.1060  0.2749 -0.2885
  430loPI   C1B 6877  12.457  13.646   9.352 -0.1118 -0.3579  0.3306
  430loPI   C2B 6878  12.453  13.565   8.880 -0.0716  0.0215 -0.1436
  430loPI   C3B 6879  12.477  13.721   8.522  0.0808 -0.0350  0.0443
  430loPI   C4B 6880  12.705  13.863   8.132  0.3336 -0.2007 -0.1432
  431loPI    C1 6881   7.312  15.210  10.522  0.1230 -0.4889 -0.0803
  431loPI    C2 6882   7.002  14.958  10.534  0.0603 -0.4052  0.0872
  431loPI    C3 6883   7.254  14.981  10.844 -0.0352 -0.1369  0.1478
  431loPI   PO4 6884   7.369  15.102  10.131  0.0786  0.0105 -0.1832
  431loPI   GL1 6885   7.203  15.199   9.641 -0.2176  0.2450  0.1645
  431loPI   GL2 6886   7.506  15.227   9.621 -0.2324 -0.4046  0.0131
  431loPI   C1A 6887   7.094  14.961   9.354 -0.2836  0.0957 -0.3266
  431loPI   C2A 6888   6.991  14.889   8.919  0.0084 -0.0356  0.1481
  431loPI   C3A 6889   7.008  14.917   8.576  0.1673 -0.2261  0.1601
  431loPI   C4A 6890   7.064  15.116   8.215 -0.0622 -0.1111 -0.1052
  431loPI   C5A 6891   6.863  15.212   7.880  0.3195 -0.1256 -0.1032
  431loPI   C6A 6892   6.794  15.141   7.517 -0.2316  0.1510  0.0826
  431loPI   C1B 6893   7.436  15.251   9.185 -0.0727  0.3858  0.1637
  431loPI   C2B 6894   7.476  15.189   8.676  0.1640 -0.0345 -0.1369
  431loPI   C3B 6895   7.484  15.460   8.271  0.0525  0.0739  0.1151
  431loPI   C4B 6896   7.370  15.380   7.853  0.1262  0.1182 -0.0870
  432loPI    C1 6897   3.557  16.185   9.980  0.1666  0.1558  0.0505
  432loPI    C2 6898   3.476  16.483  10.234  0.1601  0.2070 -0.0113
  432loPI    C3 6899   3.772  16.226  10.315  0.0704  0.1418  0.1143
  432loPI   PO4 6900   3.544  16.359   9.733 -0.0149 -0.1204  0.0793
  432loPI   GL1 6901   3.689  16.229   9.316 -0.1367 -0.0752  0.1689
  432loPI   GL2 6902   3.941  16.306   9.381 -0.0767 -0.0945  0.0543
  432loPI   C1A 6903   3.319  16.298   9.077 -0.2391 -0.0436  0.1939
  432loPI   C2A 6904   2.954  16.265   8.997  0.2005 -0.1817 -0.2714
  432loPI   C3A 6905   2.730  15.904   8.856 -0.0987 -0.1121 -0.1085
  432loPI   C4A 6906   2.390  15.913   8.469  0.0793 -0.2253 -0.3354
  432loPI   C5A 6907   2.341  16.048   8.022 -0.1131  0.1619 -0.0119
  432loPI   C6A 6908   2.681  16.196   7.803 -0.1676 -0.2581 -0.0689
  432loPI   C1B 6909   4.104  16.186   8.955  0.0923 -0.2070 -0.2183
  432loPI   C2B 6910   3.851  16.160   8.512 -0.0581  0.0855  0.0835
  432loPI   C3B 6911   3.783  16.467   8.097  0.1817 -0.0767 -0.2787
  432loPI   C4B 6912   3.412  16.791   8.031 -0.1660 -0.0082  0.1508
  433loPI    C1 6913   5.288   1.626  10.240  0.2786  0.0042  0.1858
  433loPI    C2 6914   4.919   1.531  10.359  0.2410  0.0136  0.0780
  433loPI    C3 6915   5.182   1.677  10.622  0.1880 -0.0530  0.1686
  433loPI   PO4 6916   5.274   1.371  10.024 -0.0620 -0.0036  0.2025
  433loPI   GL1 6917   4.863   1.441   9.812  0.1693  0.2598 -0.1899
  433loPI   GL2 6918   4.573   1.481   9.895  0.0914  0.1370 -0.2976
  433loPI   C1A 6919   4.842   1.775   9.479  0.4051 -0.0742  0.4138
  433loPI   C2A 6920   5.123   1.935   9.171  0.2466 -0.1639 -0.2168
  433loPI   C3A 6921   5.140   2.137   8.805  0.1934  0.1701  0.0567
  433loPI   C4A 6922   5.066   2.152   8.365 -0.1646  0.1309 -0.6308
  433loPI   C5A 6923   4.652   2.254   8.044  0.0161 -0.0493 -0.0509
  433loPI   C6A 6924   4.308   2.078   7.911 -0.1830  0.0596 -0.1651
  433loPI   C1B 6925   4.277   1.545   9.504  0.1726 -0.1555 -0.1259
  433loPI   C2B 6926   4.176   1.694   9.168 -0.1829 -0.3909  0.0823
  433loPI   C3B 6927   4.084   1.855   8.742 -0.0484 -0.1787 -0.0152
  433loPI   C4B 6928   4.164   2.055   8.416  0.4404 -0.2038  0.2213
  434loPI    C1 6929   8.451  15.992  10.135  0.0730  0.1003 -0.0118
  434loPI    C2 6930   8.458  15.944  10.532  0.1570  0.0327 -0.0213
  434loPI    C3 6931   8.338  16.292  10.375 -0.2706 -0.0750  0.0533
  434loPI   PO4 6932   8.600  15.977   9.986  0.2380  0.1798 -0.1571
  434loPI   GL1 6933   8.677  16.194   9.654  0.1752 -0.1444  0.1906
  434loPI   GL2 6934   8.386  16.135   9.432  0.0744 -0.1011 -0.2910
  434loPI   C1A 6935   8.889  16.286   9.322 -0.1821 -0.1400  0.0697
  434loPI   C2A 6936   8.977  16.354   8.870 -0.0582  0.0799 -0.1671
  434loPI   C3A 6937   9.024  16.456   8.462 -0.1490 -0.3008  0.0856
  434loPI   C4A 6938   9.061  16.576   8.056 -0.1452 -0.2321 -0.1282
  434loPI   C5A 6939   9.144  16.237   7.681  0.1882 -0.3200 -0.3397
  434loPI   C6A 6940   9.425  16.310   7.305 -0.2437  0.1728  0.1320
  434loPI   C1B 6941   8.440  16.163   8.944 -0.0089 -0.2080 -0.2794
  434loPI   C2B 6942   8.587  16.186   8.557  0.0170  0.1560  0.2183
  434loPI   C3B 6943   8.594  16.266   8.181 -0.3996  0.1440  0.2356
  434loPI   C4B 6944   8.654  16.422   7.727  0.0414 -0.2581 -0.1197
  435loPI    C1 6945   8.419   9.609  10.458  0.0950  0.3825  0.2083
  435loPI    C2 6946   8.778   9.609  10.633  0.1366  0.1750  0.1259
  435loPI    C3 6947   8.485   9.379  10.778  0.1362  0.0921 -0.0040
  435loPI   PO4 6948   8.538   9.572  10.151 -0.1129  0.1796  0.2688
  435loPI   GL1 6949   8.714   9.663   9.751  0.1403 -0.1045  0.2197
  435loPI   GL2 6950   8.891   9.856   9.725 -0.3261  0.0743 -0.2536
  435loPI   C1A 6951   8.389   9.753   9.476 -0.0623 -0.2932 -0.1541
  435loPI   C2A 6952   8.278   9.850   9.049 -0.2751 -0.2284 -0.1124
  435loPI   C3A 6953   8.153   9.728   8.615 -0.0143 -0.1635 -0.1688
  435loPI   C4A 6954   8.068   9.710   8.200 -0.0200 -0.0705  0.0195
  435loPI   C5A 6955   8.180   9.687   7.732  0.1249  0.0934 -0.1356
  435loPI   C6A 6956   8.451   9.625   7.357 -0.3225 -0.0511  0.1627
  435loPI   C1B 6957   8.831   9.869   9.242  0.0462 -0.4233  0.0090
  435loPI   C2B 6958   8.773   9.927   8.851 -0.1167 -0.1306  0.1243
  435loPI   C3B 6959   8.621   9.943   8.436 -0.2420  0.1902  0.3613
  435loPI   C4B 6960   8.582  10.028   8.011 -0.0274  0.0422  0.1698
  436loPI    C1 6961  18.257  13.733  10.068  0.0038  0.1267 -0.2605
  436loPI    C2 6962  18.252  14.097  10.234 -0.1634  0.0278 -0.0440
  436loPI    C3 6963  18.236  13.771  10.466 -0.0438 -0.1180 -0.2380
  436loPI   PO4 6964  18.109  13.757   9.776  0.0472 -0.3338  0.0800
  436loPI   GL1 6965  18.135  13.385   9.400  0.2736 -0.2380 -0.4169
  436loPI   GL2 6966  17.907  13.226   9.536 -0.1057 -0.3573  0.0448
  436loPI   C1A 6967  18.159  13.453   8.930 -0.2501 -0.0531 -0.1175
  436loPI   C2A 6968  17.893  13.464   8.622 -0.1669  0.2805  0.1687
  436loPI   C3A 6969  18.046  13.454   8.154 -0.1153 -0.2976  0.1788
  436loPI   C4A 6970  17.906  13.625   7.866  0.2041 -0.2089  0.1024
  436loPI   C5A 6971  18.101  13.821   7.578  0.0023  0.1131 -0.3494
  436loPI   C6A 6972  18.475  13.793   7.452  0.1553 -0.1941 -0.0376
  436loPI   C1B 6973  17.822  12.880   9.151  0.0123 -0.0529 -0.1385
  436loPI   C2B 6974  17.714  12.619   8.815  0.1564 -0.5281  0.0159
  436loPI   C3B 6975  17.843  12.578   8.416 -0.3124 -0.0572  0.2728
  436loPI   C4B 6976  17.801  12.567   7.991  0.0690  0.0367  0.3292
  437loPI    C1 6977  13.602   2.328  10.074  0.0907 -0.1899  0.1667
  437loPI    C2 6978  13.512   2.332  10.464  0.2071 -0.1261  0.1932
  437loPI    C3 6979  13.870   2.460  10.340  0.1681 -0.1406  0.0645
  437loPI   PO4 6980  13.398   2.223   9.907 -0.2021 -0.0690  0.1341
  437loPI   GL1 6981  13.446   2.308   9.513  0.1137 -0.2589  0.1546
  437loPI   GL2 6982  13.178   2.193   9.365 -0.1756  0.0474  0.0992
  437loPI   C1A 6983  13.664   2.528   9.076 -0.4298  0.1113 -0.0239
  437loPI   C2A 6984  13.769   2.641   8.696  0.1892  0.0064 -0.2062
  437loPI   C3A 6985  13.588   2.735   8.328 -0.0557 -0.1773 -0.3798
  437loPI   C4A 6986  13.574   2.830   7.901  0.5476  0.1793  0.3770
  437loPI   C5A 6987  13.725   3.055   7.654  0.1507  0.1228 -0.1047
  437loPI   C6A 6988  13.627   3.239   7.213  0.1141 -0.2458 -0.2343
  437loPI   C1B 6989  13.237   2.220   8.958 -0.0146  0.3476  0.3176
  437loPI   C2B 6990  13.278   2.367   8.529  0.1075  0.0961 -0.5506
  437loPI   C3B 6991  13.241   2.347   8.074 -0.1447 -0.0552  0.1442
  437loPI   C4B 6992  13.005   2.401   7.740  0.4855 -0.1889  0.0641
  438loPI    C1 6993  17.394  14.597  10.185  0.2407 -0.0500 -0.2733
  438loPI    C2 6994  17.737  14.756  10.314  0.1573 -0.0411 -0.0585
  438loPI    C3 6995  17.483  14.590  10.574  0.1194 -0.2859 -0.2478
  438loPI   PO4 6996  17.415  14.421  10.039 -0.2726  0.0355  0.3197
  438loPI   GL1 6997  17.585  14.418   9.570  0.1963 -0.0276  0.1598
  438loPI   GL2 6998  17.733  14.532   9.353  0.2529  0.0495  0.1258
  438loPI   C1A 6999  17.269  14.477   9.282 -0.0112  0.1833 -0.0376
  438loPI   C2A 7000  17.155  14.475   8.831 -0.2803 -0.1173 -0.0434
  438loPI   C3A 7001  17.347  14.706   8.424  0.2649 -0.0525  0.2038
  438loPI   C4A 7002  17.389  14.895   7.881  0.0732 -0.0454 -0.0029
  438loPI   C5A 7003  17.696  15.131   7.735 -0.0367  0.2077 -0.1852
  438loPI   C6A 7004  17.907  15.487   7.763 -0.0843 -0.0794  0.2575
  438loPI   C1B 7005  17.745  14.430   8.889 -0.0028 -0.0329  0.1051
  438loPI   C2B 7006  17.809  14.539   8.509 -0.0137 -0.0782 -0.2408
  438loPI   C3B 7007  17.631  14.453   8.069  0.2536 -0.0480  0.0842
  438loPI   C4B 7008  17.857  14.690   7.772  0.0719 -0.1580  0.3947
  439loPI    C1 7009  16.886  17.967   9.748  0.0125 -0.0056  0.1577
  439loPI    C2 7010  16.541  17.876   9.929  0.0815  0.0343  0.3108
  439loPI    C3 7011  16.884  17.717  10.060  0.0930 -0.2091 -0.0024
  439loPI   PO4 7012  16.850  17.962   9.498  0.0964 -0.0668  0.1742
  439loPI   GL1 7013  16.797  18.297   9.258  0.1425 -0.0165  0.1866
  439loPI   GL2 7014  16.889  18.635   9.288  0.1856  0.1047  0.1899
  439loPI   C1A 7015  17.075  18.161   8.861  0.0001 -0.0298 -0.1814
  439loPI   C2A 7016  16.923  18.082   8.436 -0.0800 -0.2417 -0.0091
  439loPI   C3A 7017  16.620  18.101   8.177  0.1877 -0.0758 -0.0903
  439loPI   C4A 7018  16.616  18.269   7.713 -0.2516  0.1065  0.2259
  439loPI   C5A 7019  16.729  18.092   7.272 -0.2001 -0.1635 -0.0822
  439loPI   C6A 7020  16.820  17.714   6.915  0.2411  0.2814  0.1882
  439loPI   C1B 7021  17.084  18.661   8.982  0.0717 -0.3558  0.0422
  439loPI   C2B 7022  17.148  18.925   8.646 -0.0103 -0.5393 -0.2100
  439loPI   C3B 7023  17.387  18.888   8.356  0.0236  0.1672 -0.0329
  439loPI   C4B 7024  17.236  18.993   7.950 -0.0586  0.0020 -0.0580
  440loPI    C1 7025   2.505   2.069  10.287  0.1226  0.1370 -0.0774
  440loPI    C2 7026   2.624   1.695  10.362  0.0719  0.0949 -0.2032
  440loPI    C3 7027   2.784   2.000  10.565  0.0913  0.0030 -0.0784
  440loPI   PO4 7028   2.429   1.999  10.013  0.4937 -0.2723 -0.0182
  440loPI   GL1 7029   2.318   1.862   9.658  0.2586 -0.0122  0.0233
  440loPI   GL2 7030   1.970   1.971   9.766 -0.1723 -0.2334 -0.1494
  440loPI   C1A 7031   2.233   2.122   9.266 -0.4025  0.0825  0.0719
  440loPI   C2A 7032   2.237   2.226   8.806 -0.2262 -0.2856  0.2338
  440loPI   C3A 7033   2.278   2.294   8.251 -0.0203 -0.0428 -0.0234
  440loPI   C4A 7034   2.019   2.184   7.950  0.0393 -0.1016 -0.3541
  440loPI   C5A 7035   1.600   2.119   7.782  0.1895 -0.0001  0.3595
  440loPI   C6A 7036   1.098   2.067   7.774  0.1869  0.0813  0.0163
  440loPI   C1B 7037   1.780   2.086   9.451 -0.0743  0.2901 -0.2616
  440loPI   C2B 7038   1.740   1.941   8.948  0.0190 -0.1076 -0.1825
  440loPI   C3B 7039   1.456   1.844   8.603  0.0931 -0.1374  0.0927
  440loPI   C4B 7040   1.543   1.762   8.163 -0.0626  0.0217  0.0651
  441loPI    C1 7041  14.320   6.753  10.037 -0.3475 -0.2017 -0.0166
  441loPI    C2 7042  14.555   6.508  10.249  0.0909  0.2614  0.0518
  441loPI    C3 7043  14.236   6.678  10.421 -0.0981 -0.0921  0.0609
  441loPI   PO4 7044  14.298   6.540   9.835 -0.0250  0.0045  0.2120
  441loPI   GL1 7045  14.408   6.754   9.454 -0.0009 -0.1607 -0.5542
  441loPI   GL2 7046  14.602   6.378   9.329  0.2549 -0.1079 -0.3438
  441loPI   C1A 7047  14.208   6.682   9.099  0.0714 -0.0627  0.0413
  441loPI   C2A 7048  14.157   6.844   8.705  0.0831 -0.2848  0.3537
  441loPI   C3A 7049  14.092   7.021   8.246  0.2360  0.0700  0.3913
  441loPI   C4A 7050  14.114   6.943   7.859  0.3681  0.1545  0.0041
  441loPI   C5A 7051  14.376   6.818   7.546 -0.1765  0.1404 -0.0762
  441loPI   C6A 7052  14.744   6.522   7.357  0.2773 -0.3196 -0.0582
  441loPI   C1B 7053  14.752   6.141   8.896  0.1493  0.1324 -0.0817
  441loPI   C2B 7054  14.687   5.965   8.529 -0.1574 -0.2787  0.0856
  441loPI   C3B 7055  14.561   6.176   8.203 -0.3382  0.1088 -0.0453
  441loPI   C4B 7056  14.721   6.176   7.706  0.2576  0.1473  0.0730
  442loPI    C1 7057  12.402  14.980   9.825 -0.1829 -0.2069  0.0023
  442loPI    C2 7058  12.543  15.007  10.198  0.0581 -0.3533 -0.0766
  442loPI    C3 7059  12.221  14.783  10.122 -0.2198 -0.0228  0.1035
  442loPI   PO4 7060  12.350  15.319   9.772 -0.1692 -0.0906 -0.0710
  442loPI   GL1 7061  12.197  15.232   9.356 -0.0198 -0.0653  0.0858
  442loPI   GL2 7062  12.457  15.420   9.339 -0.0240 -0.0925  0.0785
  442loPI   C1A 7063  12.018  14.848   9.138  0.0730 -0.0743 -0.0403
  442loPI   C2A 7064  11.991  14.586   8.802 -0.0844  0.0115 -0.1624
  442loPI   C3A 7065  11.945  14.708   8.422 -0.0046  0.2129  0.1433
  442loPI   C4A 7066  11.743  14.624   8.075  0.2752 -0.1608  0.1450
  442loPI   C5A 7067  11.435  14.696   7.660 -0.0191 -0.3769 -0.0277
  442loPI   C6A 7068  11.001  14.751   7.511 -0.3166  0.2652 -0.0237
  442loPI   C1B 7069  12.288  15.432   8.858  0.3977 -0.4736 -0.2436
  442loPI   C2B 7070  12.304  15.425   8.390  0.2194  0.0600  0.0388
  442loPI   C3B 7071  12.362  15.464   7.934  0.0703  0.0404  0.1496
  442loPI   C4B 7072  12.600  15.517   7.550  0.1760  0.0656  0.0705
  443loPI    C1 7073   1.232   8.386  10.390  0.0019 -0.1630  0.2213
  443loPI    C2 7074   1.335   8.709  10.603  0.1726 -0.0947  0.0384
  443loPI    C3 7075   1.040   8.470  10.731  0.1647  0.0344  0.2662
  443loPI   PO4 7076   1.192   8.462  10.139 -0.1295 -0.2206  0.0345
  443loPI   GL1 7077   1.432   8.402   9.733  0.0276 -0.2899  0.0068
  443loPI   GL2 7078   1.288   8.737   9.776 -0.1233  0.2714  0.2181
  443loPI   C1A 7079   1.336   8.467   9.244 -0.2371 -0.3439 -0.1003
  443loPI   C2A 7080   1.181   8.616   8.834 -0.4523 -0.2305 -0.1150
  443loPI   C3A 7081   0.843   8.649   8.472  0.0085  0.3215  0.2577
  443loPI   C4A 7082   0.511   8.656   8.110  0.0841 -0.3688  0.1227
  443loPI   C5A 7083   0.322   8.963   7.934  0.3196 -0.0929  0.2790
  443loPI   C6A 7084  -0.071   9.206   7.927 -0.0415 -0.1305  0.1998
  443loPI   C1B 7085   1.610   8.876   9.505 -0.0332  0.4079 -0.2900
  443loPI   C2B 7086   1.638   9.028   9.135  0.1494 -0.0247 -0.0654
  443loPI   C3B 7087   1.576   9.115   8.734 -0.0036  0.1712 -0.1265
  443loPI   C4B 7088   1.563   9.346   8.465  0.2003 -0.1110  0.0319
  444loPI    C1 7089   8.275  15.220  10.218  0.0590 -0.2375  0.1279
  444loPI    C2 7090   8.451  15.500   9.992 -0.2028 -0.3664 -0.2437
  444loPI    C3 7091   8.183  15.606  10.269  0.0717 -0.2125 -0.0324
  444loPI   PO4 7092   8.345  14.983   9.964  0.1426  0.2235 -0.1771
  444loPI   GL1 7093   8.338  14.948   9.541  0.0361 -0.3648 -0.0157
  444loPI   GL2 7094   8.040  15.009   9.454  0.0871 -0.0586 -0.0822
  444loPI   C1A 7095   8.572  15.214   9.264 -0.1859 -0.0661  0.1500
  444loPI   C2A 7096   8.360  15.128   8.941 -0.1691  0.0321 -0.0243
  444loPI   C3A 7097   8.495  15.231   8.535 -0.0544  0.2600 -0.1208
  444loPI   C4A 7098   8.849  15.423   8.326 -0.1000 -0.0787 -0.0227
  444loPI   C5A 7099   8.978  15.536   8.014  0.0287 -0.0424 -0.3033
  444loPI   C6A 7100   9.347  15.504   7.855  0.0245  0.2871  0.2116
  444loPI   C1B 7101   8.101  14.775   9.113  0.0139 -0.0010 -0.2286
  444loPI   C2B 7102   8.254  14.603   8.744  0.3209 -0.6245 -0.1239
  444loPI   C3B 7103   8.320  14.592   8.293  0.1028  0.1099 -0.0731
  444loPI   C4B 7104   8.248  14.540   7.925 -0.1971  0.2470  0.0818
  445loPI    C1 7105   0.966   2.019  10.276  0.2276  0.0713 -0.1932
  445loPI    C2 7106   0.771   2.278  10.510  0.0445 -0.0816 -0.1743
  445loPI    C3 7107   0.901   1.931  10.661 -0.0950 -0.1913 -0.3034
  445loPI   PO4 7108   0.909   2.072   9.987 -0.2780 -0.1162 -0.2514
  445loPI   GL1 7109   0.890   2.281   9.599  0.0668  0.3840 -0.0126
  445loPI   GL2 7110   0.871   2.595   9.515 -0.0929 -0.0545  0.4464
  445loPI   C1A 7111   1.383   2.451   9.473  0.3215  0.1305  0.2577
  445loPI   C2A 7112   1.544   2.519   9.023  0.0262 -0.1551  0.0960
  445loPI   C3A 7113   1.680   2.298   8.575 -0.0998 -0.2477  0.3963
  445loPI   C4A 7114   1.884   2.047   8.432  0.0303  0.0235  0.1654
  445loPI   C5A 7115   1.933   1.641   8.534 -0.2502  0.0544  0.3034
  445loPI   C6A 7116   1.969   1.343   8.768  0.1035  0.0914 -0.0348
  445loPI   C1B 7117   0.943   2.490   9.162  0.1801  0.1506 -0.2556
  445loPI   C2B 7118   0.795   2.678   8.689  0.0287  0.0842 -0.0174
  445loPI   C3B 7119   0.836   2.666   8.273  0.1405  0.0094 -0.1180
  445loPI   C4B 7120   0.771   2.797   7.777  0.2279 -0.0603 -0.0456
  446loPI    C1 7121  11.990  15.574  10.007 -0.1293 -0.0293  0.0368
  446loPI    C2 7122  12.118  15.268  10.231 -0.0549 -0.0235  0.0031
  446loPI    C3 7123  12.040  15.622  10.401  0.0955  0.0093  0.0053
  446loPI   PO4 7124  11.795  15.553   9.840 -0.4841  0.1257  0.1960
  446loPI   GL1 7125  11.700  15.619   9.354  0.2912 -0.0275 -0.1504
  446loPI   GL2 7126  11.441  15.433   9.422 -0.0372  0.2736 -0.0770
  446loPI   C1A 7127  11.866  15.506   9.014  0.2016  0.1037  0.2354
  446loPI   C2A 7128  11.775  15.551   8.568 -0.0053 -0.0069  0.3223
  446loPI   C3A 7129  11.840  15.450   8.186  0.2015  0.3418 -0.0214
  446loPI   C4A 7130  11.848  15.481   7.726 -0.1821  0.1666  0.2902
  446loPI   C5A 7131  11.652  15.355   7.382  0.0326 -0.0845 -0.1122
  446loPI   C6A 7132  11.583  15.256   6.974 -0.1223 -0.3501 -0.2681
  446loPI   C1B 7133  11.308  15.480   8.926 -0.0336  0.0547  0.1152
  446loPI   C2B 7134  11.424  15.258   8.631  0.3263  0.0669  0.0265
  446loPI   C3B 7135  11.559  15.047   8.241 -0.1605 -0.1187  0.1289
  446loPI   C4B 7136  11.349  15.170   7.803  0.0137 -0.2200  0.0632
  447loPI    C1 7137   2.108  12.976  10.179  0.1004  0.2247  0.0325
  447loPI    C2 7138   2.507  12.995  10.161  0.1078  0.0148 -0.0531
  447loPI    C3 7139   2.330  12.748  10.422  0.0329  0.1458  0.0209
  447loPI   PO4 7140   2.061  12.899   9.925  0.3625 -0.0111  0.0436
  447loPI   GL1 7141   2.042  13.015   9.511  0.1681  0.0471 -0.0872
  447loPI   GL2 7142   1.579  12.861   9.617  0.0033 -0.1621  0.3248
  447loPI   C1A 7143   2.287  12.808   9.174 -0.3203 -0.3091 -0.0196
  447loPI   C2A 7144   2.357  12.436   8.884 -0.0703  0.1217  0.0193
  447loPI   C3A 7145   2.277  12.503   8.467  0.0597  0.2292 -0.0613
  447loPI   C4A 7146   2.513  12.644   8.019 -0.3072  0.3065  0.1048
  447loPI   C5A 7147   2.885  12.670   7.699  0.1658 -0.2611 -0.0241
  447loPI   C6A 7148   3.254  12.539   7.477 -0.0436 -0.0225 -0.2834
  447loPI   C1B 7149   1.674  12.681   9.310  0.0513  0.0446  0.1806
  447loPI   C2B 7150   1.898  12.651   8.825 -0.3458 -0.0396 -0.2900
  447loPI   C3B 7151   1.857  12.795   8.345 -0.0888 -0.1139 -0.1594
  447loPI   C4B 7152   1.941  12.617   7.993 -0.0891 -0.3263 -0.0095
  448loPI    C1 7153  13.455   3.704   9.901 -0.2648 -0.3038  0.1216
  448loPI    C2 7154  13.596   3.914  10.211 -0.1874 -0.2315  0.0381
  448loPI    C3 7155  13.513   3.525  10.254  0.1412 -0.3018  0.0616
  448loPI   PO4 7156  13.614   3.906   9.725  0.4724 -0.1028 -0.0626
  448loPI   GL1 7157  13.760   4.225   9.515  0.1230  0.1383  0.1424
  448loPI   GL2 7158  13.468   4.332   9.398  0.1491  0.0305 -0.0085
  448loPI   C1A 7159  13.839   4.579   9.129 -0.0533 -0.1297  0.2791
  448loPI   C2A 7160  13.976   4.713   8.801  0.2005 -0.2560  0.3387
  448loPI   C3A 7161  14.012   4.631   8.336  0.1787 -0.0766  0.1683
  448loPI   C4A 7162  13.693   4.672   8.058  0.0400  0.1579  0.0991
  448loPI   C5A 7163  13.599   4.846   7.637  0.1401 -0.1157  0.0896
  448loPI   C6A 7164  13.807   4.703   7.285 -0.0719  0.0230 -0.0252
  448loPI   C1B 7165  13.596   4.173   8.905 -0.0158  0.1475 -0.1145
  448loPI   C2B 7166  13.646   4.271   8.484  0.2744  0.0380  0.0660
  448loPI   C3B 7167  13.724   4.186   8.085  0.0570  0.1959  0.1203
  448loPI   C4B 7168  13.679   3.945   7.691 -0.2610 -0.3637  0.1598
  449loPI    C1 7169   6.247   9.307   9.979 -0.0312  0.3308 -0.1144
  449loPI    C2 7170   6.216   8.926   9.861 -0.0102  0.3823 -0.2887
  449loPI    C3 7171   6.318   9.010  10.238  0.0689  0.2155 -0.2718
  449loPI   PO4 7172   6.062   9.384   9.858  0.0070  0.1154 -0.2686
  449loPI   GL1 7173   5.924   9.655   9.567  0.1823 -0.3220  0.0524
  449loPI   GL2 7174   6.254   9.760   9.566 -0.0471  0.1143 -0.1614
  449loPI   C1A 7175   5.793   9.392   9.128  0.1352  0.0070 -0.0762
  449loPI   C2A 7176   5.702   9.268   8.683 -0.0826 -0.0490 -0.1023
  449loPI   C3A 7177   5.601   9.022   8.210 -0.1479 -0.1051 -0.1146
  449loPI   C4A 7178   5.421   8.821   7.746 -0.1904 -0.1066 -0.2296
  449loPI   C5A 7179   5.313   9.029   7.427 -0.0188 -0.0257  0.0478
  449loPI   C6A 7180   5.307   9.293   7.007  0.2509 -0.1000 -0.1946
  449loPI   C1B 7181   6.184   9.689   9.153  0.3092  0.3871  0.0463
  449loPI   C2B 7182   6.117   9.660   8.644  0.2215 -0.0718 -0.0248
  449loPI   C3B 7183   5.906   9.821   8.323  0.1643  0.0128  0.1410
  449loPI   C4B 7184   5.844  10.084   7.923  0.1422  0.1348 -0.2389
  450loPI    C1 7185   6.164   1.426  10.462  0.0571  0.0903 -0.2131
  450loPI    C2 7186   5.958   1.740  10.602 -0.3475 -0.1770 -0.1910
  450loPI    C3 7187   6.128   1.482  10.856  0.0937  0.0861 -0.2092
  450loPI   PO4 7188   6.234   1.503  10.217  0.1794  0.0141 -0.0688
  450loPI   GL1 7189   6.474   1.423   9.889 -0.3237  0.0849 -0.1948
  450loPI   GL2 7190   6.293   1.711   9.800 -0.0096  0.2004 -0.0118
  450loPI   C1A 7191   6.459   1.336   9.503 -0.2161 -0.0454 -0.2420
  450loPI   C2A 7192   6.369   1.357   9.017 -0.1500 -0.1602  0.0438
  450loPI   C3A 7193   6.205   1.374   8.564 -0.1580 -0.1500 -0.0076
  450loPI   C4A 7194   6.143   1.392   8.123 -0.0785  0.0307 -0.0921
  450loPI   C5A 7195   6.144   1.654   7.774 -0.0182 -0.1166 -0.3731
  450loPI   C6A 7196   5.929   2.158   7.828 -0.3370 -0.2135  0.1523
  450loPI   C1B 7197   6.229   1.762   9.410 -0.0252 -0.0181 -0.1464
  450loPI   C2B 7198   6.050   1.741   9.002 -0.0460 -0.1028  0.0958
  450loPI   C3B 7199   5.965   1.859   8.524 -0.0432 -0.2718  0.3025
  450loPI   C4B 7200   6.276   1.908   8.180  0.0024 -0.1487 -0.0514
  451loPI    C1 7201  17.075   2.738   9.861 -0.0177  0.1581  0.1065
  451loPI    C2 7202  17.094   3.056  10.103 -0.1177  0.1158  0.1706
  451loPI    C3 7203  17.387   2.987   9.840 -0.0561  0.2162  0.2122
  451loPI   PO4 7204  16.886   2.781   9.615 -0.0201 -0.2373 -0.1327
  451loPI   GL1 7205  16.897   2.851   9.264 -0.1289  0.0254  0.2797
  451loPI   GL2 7206  16.650   3.051   9.257 -0.3595 -0.5499  0.1690
  451loPI   C1A 7207  16.806   2.898   8.770 -0.3405  0.1076  0.1939
  451loPI   C2A 7208  16.775   3.012   8.298  0.5113  0.1178  0.0978
  451loPI   C3A 7209  16.743   3.081   7.837  0.3891  0.1788 -0.2520
  451loPI   C4A 7210  16.341   2.919   7.752  0.0792 -0.2821  0.0512
  451loPI   C5A 7211  15.967   2.801   8.063 -0.1752  0.0821  0.0088
  451loPI   C6A 7212  15.939   2.496   8.357  0.2822 -0.0327  0.2952
  451loPI   C1B 7213  16.323   2.954   8.909 -0.4306 -0.1726 -0.0125
  451loPI   C2B 7214  16.282   2.973   8.445  0.1876 -0.0736 -0.1953
  451loPI   C3B 7215  16.283   3.250   8.072 -0.0287  0.0674 -0.2528
  451loPI   C4B 7216  15.932   3.255   7.752 -0.0373 -0.1406  0.0117
  452loPI    C1 7217   7.935   7.591  10.397 -0.0692 -0.1182  0.0812
  452loPI    C2 7218   7.892   7.567  10.794 -0.2899 -0.1521  0.0561
  452loPI    C3 7219   7.798   7.254  10.563 -0.4193 -0.0413 -0.0436
  452loPI   PO4 7220   7.839   7.834  10.233  0.1622 -0.4374  0.2960
  452loPI   GL1 7221   7.592   7.807   9.928 -0.3576 -0.0092 -0.4577
  452loPI   GL2 7222   7.279   7.831   9.914  0.1469  0.0480 -0.1680
  452loPI   C1A 7223   7.685   7.854   9.513 -0.0990  0.1105 -0.0075
  452loPI   C2A 7224   7.916   8.008   9.168  0.2066  0.1383  0.1065
  452loPI   C3A 7225   8.034   8.002   8.753  0.1834  0.3745  0.0809
  452loPI   C4A 7226   8.005   7.868   8.323 -0.1518  0.1375  0.1135
  452loPI   C5A 7227   7.682   7.745   8.003 -0.2933 -0.1042  0.3752
  452loPI   C6A 7228   7.397   7.797   7.639 -0.0072 -0.1859 -0.1140
  452loPI   C1B 7229   7.210   7.907   9.519 -0.1352  0.0172  0.1175
  452loPI   C2B 7230   7.376   7.763   9.172  0.2207 -0.1880  0.0512
  452loPI   C3B 7231   7.451   7.777   8.769 -0.0263  0.0518 -0.3394
  452loPI   C4B 7232   7.290   7.801   8.350  0.0642 -0.1770 -0.0468
  453loPI    C1 7233   0.301   3.958  10.217  0.0055  0.1110 -0.1219
  453loPI    C2 7234   0.336   4.071  10.599  0.0788 -0.1184 -0.0588
  453loPI    C3 7235  -0.026   4.031  10.435  0.0506  0.1401 -0.0636
  453loPI   PO4 7236   0.426   4.088  10.021  0.0100  0.1043 -0.0045
  453loPI   GL1 7237   0.368   4.101   9.517 -0.2086  0.1418 -0.1329
  453loPI   GL2 7238   0.676   3.989   9.534  0.0737 -0.0343  0.2870
  453loPI   C1A 7239   0.528   4.261   9.031 -0.2377  0.3370 -0.1013
  453loPI   C2A 7240   0.551   4.151   8.658 -0.1026 -0.0882 -0.1924
  453loPI   C3A 7241   0.478   4.098   8.148 -0.3458 -0.1500 -0.0852
  453loPI   C4A 7242   0.054   3.970   7.832 -0.0726 -0.0499 -0.1894
  453loPI   C5A 7243  -0.094   3.593   7.784 -0.2829 -0.3104 -0.1069
  453loPI   C6A 7244  -0.323   3.229   7.888  0.0578 -0.0308 -0.2679
  453loPI   C1B 7245   0.724   3.759   9.077  0.2567  0.0755 -0.1663
  453loPI   C2B 7246   0.756   3.699   8.670  0.0598 -0.0960  0.0721
  453loPI   C3B 7247   0.609   3.613   8.224  0.1444 -0.0139 -0.0906
  453loPI   C4B 7248   0.134   3.406   8.180 -0.0003 -0.6502  0.1033
  454loPI    C1 7249  13.895  16.490   9.725 -0.0958  0.0588 -0.0540
  454loPI    C2 7250  14.022  16.711  10.033 -0.1826  0.0281  0.0042
  454loPI    C3 7251  13.643  16.740   9.909 -0.2135 -0.1397  0.0573
  454loPI   PO4 7252  14.078  16.483   9.582 -0.3009  0.0183  0.2611
  454loPI   GL1 7253  14.209  16.301   9.274  0.0210 -0.4201  0.1580
  454loPI   GL2 7254  14.178  16.528   9.091 -0.0800  0.3526 -0.2427
  454loPI   C1A 7255  14.093  16.074   8.836  0.0592  0.1175  0.0372
  454loPI   C2A 7256  14.395  15.901   8.436 -0.0399 -0.0959  0.1192
  454loPI   C3A 7257  14.571  15.870   7.986  0.2295  0.2830 -0.0167
  454loPI   C4A 7258  14.914  15.794   7.898 -0.0141 -0.0148 -0.1176
  454loPI   C5A 7259  15.213  15.501   7.602  0.2111 -0.0784  0.2727
  454loPI   C6A 7260  15.512  15.241   7.594 -0.1762 -0.0124 -0.0698
  454loPI   C1B 7261  14.192  16.558   8.618 -0.0207  0.0172 -0.3935
  454loPI   C2B 7262  14.067  16.480   8.175  0.1370 -0.0596  0.0852
  454loPI   C3B 7263  13.973  16.486   7.718 -0.0937 -0.1171  0.2276
  454loPI   C4B 7264  13.903  16.205   7.500  0.0512  0.1390  0.1596
  455loPI    C1 7265  15.805   8.984  10.054 -0.1749  0.1510  0.1294
  455loPI    C2 7266  16.016   8.795  10.337 -0.1648 -0.0017  0.0205
  455loPI    C3 7267  16.183   9.092  10.128 -0.1533  0.0726  0.1344
  455loPI   PO4 7268  15.688   8.706   9.900 -0.3200 -0.0082  0.2458
  455loPI   GL1 7269  15.627   8.614   9.412 -0.2687  0.1756 -0.1537
  455loPI   GL2 7270  15.777   8.316   9.510 -0.1271 -0.0341 -0.0738
  455loPI   C1A 7271  15.906   8.809   9.117 -0.0115 -0.1749  0.2427
  455loPI   C2A 7272  16.291   8.955   8.898 -0.0708 -0.1324  0.2286
  455loPI   C3A 7273  16.502   8.935   8.502 -0.2143  0.0858 -0.1543
  455loPI   C4A 7274  16.724   9.097   8.134 -0.1227  0.1492  0.1706
  455loPI   C5A 7275  16.740   8.790   7.713  0.1945  0.0549 -0.3415
  455loPI   C6A 7276  16.508   8.445   7.683 -0.1705  0.0674  0.0319
  455loPI   C1B 7277  15.794   8.312   8.988  0.0382  0.3669  0.2532
  455loPI   C2B 7278  15.851   8.209   8.619 -0.0002  0.0939  0.3157
  455loPI   C3B 7279  15.978   8.325   8.301  0.3100  0.0253  0.0717
  455loPI   C4B 7280  16.440   8.267   8.272 -0.2799 -0.0322  0.4008
  456loPI    C1 7281  16.130  10.612  10.295 -0.2679  0.1703  0.0659
  456loPI    C2 7282  16.375  10.694  10.601 -0.3487  0.2253  0.1162
  456loPI    C3 7283  16.116  10.391  10.628 -0.0349 -0.0680 -0.0786
  456loPI   PO4 7284  16.243  10.626  10.048 -0.2556 -0.0680 -0.2150
  456loPI   GL1 7285  16.157  10.696   9.590 -0.0529  0.1596  0.0905
  456loPI   GL2 7286  16.530  10.861   9.705 -0.0198 -0.2683 -0.0784
  456loPI   C1A 7287  16.077  10.543   9.172  0.2114  0.1892  0.1357
  456loPI   C2A 7288  15.801  10.603   8.834 -0.0247  0.1080  0.1346
  456loPI   C3A 7289  15.795  10.707   8.352  0.6052 -0.0799  0.0617
  456loPI   C4A 7290  15.946  10.668   7.970 -0.1090  0.2462 -0.0762
  456loPI   C5A 7291  16.034  10.917   7.612  0.0303  0.0549  0.1970
  456loPI   C6A 7292  15.743  11.117   7.346  0.0781  0.0248 -0.2506
  456loPI   C1B 7293  16.534  10.556   9.315  0.2729  0.1077 -0.0794
  456loPI   C2B 7294  16.672  10.133   9.114  0.2003  0.1167 -0.1681
  456loPI   C3B 7295  16.489   9.704   9.318 -0.3593 -0.0191 -0.3149
  456loPI   C4B 7296  16.204   9.378   9.157  0.0112  0.1283 -0.0594
  457loPI    C1 7297   2.817   7.457  10.276  0.0512 -0.3022  0.2374
  457loPI    C2 7298   2.864   7.277  10.630  0.0252  0.1852  0.4969
  457loPI    C3 7299   3.134   7.544  10.504  0.2220 -0.2390 -0.0197
  457loPI   PO4 7300   2.745   7.301  10.092 -0.1564  0.0399  0.4417
  457loPI   GL1 7301   2.451   7.366   9.833  0.3783  0.2692 -0.0714
  457loPI   GL2 7302   2.279   7.555   9.714 -0.0441 -0.0704  0.0697
  457loPI   C1A 7303   2.552   7.024   9.482 -0.1579  0.1596  0.1457
  457loPI   C2A 7304   2.603   7.074   9.091 -0.0873  0.1356  0.2498
  457loPI   C3A 7305   2.526   6.895   8.783 -0.1724 -0.0119 -0.1399
  457loPI   C4A 7306   2.480   6.903   8.323 -0.2203  0.0029  0.0033
  457loPI   C5A 7307   2.653   7.151   8.040  0.0217 -0.1919  0.0378
  457loPI   C6A 7308   3.101   7.271   7.905 -0.1005  0.1723  0.2299
  457loPI   C1B 7309   2.428   7.462   9.331  0.2730  0.0189  0.0615
  457loPI   C2B 7310   2.194   7.482   8.909 -0.0352  0.1134 -0.2165
  457loPI   C3B 7311   2.112   7.325   8.453  0.4147 -0.0510 -0.3608
  457loPI   C4B 7312   1.943   6.965   8.083 -0.1332 -0.0108  0.4762
  458loPI    C1 7313  13.222   7.056   9.944 -0.1267  0.1384 -0.0657
  458loPI    C2 7314  13.086   6.791  10.212 -0.1679  0.1977 -0.0279
  458loPI    C3 7315  13.466   6.915  10.228 -0.1602  0.1732 -0.0196
  458loPI   PO4 7316  13.008   7.306   9.901  0.0577 -0.1264 -0.0338
  458loPI   GL1 7317  12.756   7.336   9.610 -0.2219 -0.1474 -0.0128
  458loPI   GL2 7318  12.727   7.639   9.584  0.0305 -0.1361  0.0849
  458loPI   C1A 7319  12.420   7.295   9.322 -0.0989 -0.0671 -0.2447
  458loPI   C2A 7320  12.290   7.200   8.978  0.0574 -0.1906  0.1107
  458loPI   C3A 7321  12.237   7.186   8.700 -0.4024 -0.0451 -0.1207
  458loPI   C4A 7322  12.237   7.102   8.204  0.4308  0.1883 -0.1527
  458loPI   C5A 7323  11.979   7.097   7.939  0.1938  0.4220  0.0031
  458loPI   C6A 7324  11.814   6.859   7.709  0.1972  0.2163 -0.0843
  458loPI   C1B 7325  12.817   7.695   9.155  0.3143  0.2857  0.0654
  458loPI   C2B 7326  12.580   7.739   8.830  0.0156 -0.0382  0.2349
  458loPI   C3B 7327  12.480   7.540   8.424  0.1520 -0.0216  0.0046
  458loPI   C4B 7328  12.585   7.419   7.999 -0.1644 -0.0266  0.0842
  459loPI    C1 7329  15.192  18.122   9.859  0.1999  0.2721 -0.1579
  459loPI    C2 7330  15.073  18.498   9.925 -0.0596  0.1410  0.1476
  459loPI    C3 7331  15.082  18.235  10.226  0.0938 -0.1066 -0.0686
  459loPI   PO4 7332  15.090  18.101   9.629 -0.2217 -0.2162  0.1407
  459loPI   GL1 7333  14.930  17.779   9.256  0.5497 -0.2807  0.0838
  459loPI   GL2 7334  15.080  18.000   9.150  0.1792 -0.0646 -0.1547
  459loPI   C1A 7335  14.758  17.714   8.780  0.0031  0.5540 -0.0337
  459loPI   C2A 7336  14.755  17.561   8.362  0.3094  0.1004  0.0466
  459loPI   C3A 7337  14.817  17.594   7.871  0.1739 -0.1494 -0.3872
  459loPI   C4A 7338  15.177  17.497   7.627  0.0968 -0.2274 -0.1003
  459loPI   C5A 7339  15.649  17.491   7.535 -0.1365 -0.2462 -0.0905
  459loPI   C6A 7340  16.116  17.381   7.558  0.0749  0.0847  0.0783
  459loPI   C1B 7341  15.256  18.010   8.764 -0.1777  0.0623  0.1347
  459loPI   C2B 7342  15.262  18.361   8.474 -0.0674 -0.0341 -0.1080
  459loPI   C3B 7343  15.446  18.659   8.265 -0.1768 -0.1066  0.2229
  459loPI   C4B 7344  15.849  18.708   8.021 -0.1868  0.3587 -0.1152
  460loPI    C1 7345  14.746   7.633  10.321  0.0179 -0.1273  0.0015
  460loPI    C2 7346  15.135   7.665  10.231  0.0159 -0.0382  0.0236
  460loPI    C3 7347  15.016   7.680  10.613 -0.0086 -0.0742  0.0175
  460loPI   PO4 7348  14.665   7.745   9.989 -0.2468  0.0323  0.0370
  460loPI   GL1 7349  14.466   7.712   9.631  0.1070 -0.0018 -0.1607
  460loPI   GL2 7350  14.693   7.643   9.501  0.0116 -0.1934  0.4320
  460loPI   C1A 7351  14.278   7.966   9.223  0.3060  0.2783 -0.4193
  460loPI   C2A 7352  14.179   7.935   8.858  0.1359 -0.3348 -0.3920
  460loPI   C3A 7353  14.328   8.039   8.458 -0.0895  0.0577  0.1604
  460loPI   C4A 7354  14.368   7.945   8.065 -0.3082 -0.3002  0.1986
  460loPI   C5A 7355  14.143   7.953   7.682  0.0703 -0.0260 -0.1306
  460loPI   C6A 7356  13.961   8.021   7.405  0.0081  0.3065  0.0061
  460loPI   C1B 7357  14.602   7.651   9.060  0.1480 -0.0281  0.1670
  460loPI   C2B 7358  14.667   7.733   8.678  0.0054 -0.2381  0.3237
  460loPI   C3B 7359  14.608   7.591   8.231  0.0077  0.1266  0.1314
  460loPI   C4B 7360  15.043   7.555   7.934 -0.1570 -0.1068  0.1502
  461loPI    C1 7361   2.314   6.489  10.319  0.0006 -0.0126 -0.2032
  461loPI    C2 7362   2.001   6.387  10.547  0.3951 -0.3105  0.2251
  461loPI    C3 7363   2.169   6.748  10.587 -0.0437 -0.0482 -0.1926
  461loPI   PO4 7364   2.221   6.391   9.965  0.1130 -0.0021 -0.1791
  461loPI   GL1 7365   2.201   6.410   9.594  0.1330  0.0223  0.0959
  461loPI   GL2 7366   2.356   6.554   9.457  0.0830 -0.0044 -0.0595
  461loPI   C1A 7367   1.886   6.645   9.389 -0.1652 -0.1866 -0.0136
  461loPI   C2A 7368   1.521   6.759   9.339  0.0155  0.1824 -0.2715
  461loPI   C3A 7369   1.099   6.842   9.286 -0.0484 -0.1101  0.4139
  461loPI   C4A 7370   0.903   7.034   8.992 -0.1350 -0.0724 -0.0810
  461loPI   C5A 7371   0.897   7.180   8.646  0.0290  0.1331  0.5919
  461loPI   C6A 7372   0.773   7.080   8.129  0.2014  0.0680  0.0669
  461loPI   C1B 7373   2.183   6.531   9.011 -0.2404  0.1627  0.0297
  461loPI   C2B 7374   2.219   6.523   8.568 -0.2297 -0.0768 -0.1505
  461loPI   C3B 7375   2.333   6.399   8.154 -0.1114  0.2828 -0.3605
  461loPI   C4B 7376   2.630   6.069   8.023  0.0068 -0.3008  0.1591
  462loPI    C1 7377  12.320   1.483   9.686  0.1236 -0.3482 -0.1342
  462loPI    C2 7378  12.328   1.229   9.995 -0.0966 -0.2460 -0.0421
  462loPI    C3 7379  12.670   1.371   9.844  0.0055 -0.0369  0.3716
  462loPI   PO4 7380  12.128   1.413   9.526  0.0566  0.0654  0.1623
  462loPI   GL1 7381  12.022   1.854   9.366 -0.0583  0.1638 -0.4041
  462loPI   GL2 7382  11.974   1.645   9.074 -0.0900  0.1498  0.0482
  462loPI   C1A 7383  12.242   2.100   9.055 -0.2293  0.1310 -0.1266
  462loPI   C2A 7384  12.374   2.292   8.641  0.3148  0.1943 -0.1931
  462loPI   C3A 7385  12.382   2.250   8.258 -0.1185  0.0015  0.0410
  462loPI   C4A 7386  12.183   2.082   7.902  0.0895  0.0895 -0.0974
  462loPI   C5A 7387  12.191   1.853   7.410 -0.5629 -0.3243  0.3620
  462loPI   C6A 7388  12.395   1.517   7.122  0.3031  0.1841  0.4328
  462loPI   C1B 7389  12.024   1.797   8.664 -0.2747  0.2313 -0.0549
  462loPI   C2B 7390  11.932   1.781   8.212  0.0438 -0.0024 -0.0271
  462loPI   C3B 7391  11.855   1.749   7.739 -0.0144  0.0968  0.0061
  462loPI   C4B 7392  11.740   2.053   7.396 -0.0062 -0.0986 -0.0460
  463loPI    C1 7393  16.370   0.248   9.777 -0.0678  0.1245 -0.0855
  463loPI    C2 7394  16.191   0.450  10.071 -0.3401 -0.3090  0.0563
  463loPI    C3 7395  16.532   0.254  10.142 -0.0232  0.1664 -0.1060
  463loPI   PO4 7396  16.201   0.158   9.651  0.3306  0.2028  0.0861
  463loPI   GL1 7397  16.237   0.082   9.270  0.1057  0.1153 -0.0901
  463loPI   GL2 7398  15.986  -0.257   9.184  0.0125 -0.2128 -0.1156
  463loPI   C1A 7399  16.652   0.042   9.103 -0.1749 -0.1318  0.1025
  463loPI   C2A 7400  16.640   0.121   8.741 -0.1481  0.0516  0.2526
  463loPI   C3A 7401  16.810   0.066   8.350 -0.0231  0.1542 -0.1978
  463loPI   C4A 7402  16.744   0.275   7.940  0.0931  0.0795  0.1239
  463loPI   C5A 7403  16.996   0.221   7.490 -0.1813  0.0567  0.2081
  463loPI   C6A 7404  17.188  -0.244   7.506  0.0055  0.0410 -0.3298
  463loPI   C1B 7405  16.348  -0.403   8.972 -0.2330 -0.0535 -0.0594
  463loPI   C2B 7406  16.655  -0.459   8.687  0.1439  0.0049  0.0735
  463loPI   C3B 7407  16.781  -0.391   8.300 -0.0224  0.0486 -0.0824
  463loPI   C4B 7408  16.869  -0.298   7.880  0.0767 -0.0566  0.0266
  464loPI    C1 7409  11.733   4.370   9.819 -0.0042  0.0276  0.0380
  464loPI    C2 7410  11.520   4.403  10.157  0.1429  0.1883  0.1169
  464loPI    C3 7411  11.905   4.513  10.151  0.1740  0.0759 -0.0736
  464loPI   PO4 7412  11.506   4.236   9.595  0.3563  0.2765  0.0384
  464loPI   GL1 7413  11.403   4.023   9.200 -0.1933 -0.1970 -0.1588
  464loPI   GL2 7414  11.692   4.101   9.135  0.0559  0.1258 -0.0508
  464loPI   C1A 7415  11.313   3.901   8.860  0.0680  0.1194 -0.2327
  464loPI   C2A 7416  11.313   3.749   8.519 -0.1848  0.0834  0.0923
  464loPI   C3A 7417  11.248   3.700   7.987  0.1604  0.0559  0.1169
  464loPI   C4A 7418  11.080   3.760   7.584  0.1971  0.0579  0.2824
  464loPI   C5A 7419  10.939   4.067   7.318  0.0178  0.0738  0.0876
  464loPI   C6A 7420  10.796   4.078   6.874 -0.0908 -0.0473  0.1174
  464loPI   C1B 7421  12.036   4.167   8.745 -0.2875 -0.1093  0.1672
  464loPI   C2B 7422  12.287   4.309   8.377  0.0012 -0.0928 -0.0358
  464loPI   C3B 7423  12.358   4.106   8.086 -0.0392 -0.0724  0.1213
  464loPI   C4B 7424  12.460   4.040   7.727 -0.2336 -0.1892  0.3161
  465loPI    C1 7425  15.551   7.281  10.052 -0.1560 -0.2335 -0.3119
  465loPI    C2 7426  15.330   7.261  10.385  0.0903  0.0239 -0.1291
  465loPI    C3 7427  15.467   6.926  10.216 -0.0394 -0.1088  0.0262
  465loPI   PO4 7428  15.408   7.416   9.868 -0.1266  0.0023  0.2265
  465loPI   GL1 7429  15.477   7.330   9.515 -0.1793  0.0644 -0.0161
  465loPI   GL2 7430  15.170   7.488   9.354  0.0375 -0.0824  0.0824
  465loPI   C1A 7431  15.555   7.139   9.122 -0.1814  0.1517 -0.4468
  465loPI   C2A 7432  15.640   7.035   8.826 -0.1222 -0.1253 -0.2039
  465loPI   C3A 7433  15.534   7.215   8.396  0.0481  0.0694 -0.0900
  465loPI   C4A 7434  15.456   7.468   8.159 -0.2037  0.2473  0.3859
  465loPI   C5A 7435  15.565   7.704   7.735  0.0891  0.1457 -0.0062
  465loPI   C6A 7436  15.695   8.025   7.485  0.1574 -0.2382 -0.1063
  465loPI   C1B 7437  15.063   7.282   8.924  0.1028 -0.0512 -0.1297
  465loPI   C2B 7438  15.127   6.890   8.705 -0.1010 -0.1361  0.0161
  465loPI   C3B 7439  15.409   6.713   8.469  0.4396  0.0968 -0.1384
  465loPI   C4B 7440  15.389   6.581   8.060  0.1054  0.3239  0.4105
  466loPI    C1 7441  17.079   4.595   9.849  0.1976 -0.0022  0.1204
  466loPI    C2 7442  17.165   4.576  10.239  0.1649  0.0570  0.1306
  466loPI    C3 7443  16.786   4.538  10.116  0.1122  0.4899  0.1420
  466loPI   PO4 7444  17.391   4.640   9.734  0.0818 -0.4187  0.2286
  466loPI   GL1 7445  17.557   4.574   9.360 -0.0049 -0.0754 -0.2827
  466loPI   GL2 7446  17.517   4.937   9.241 -0.1995  0.0744 -0.3339
  466loPI   C1A 7447  17.757   4.448   8.989 -0.0556  0.0491 -0.2202
  466loPI   C2A 7448  18.056   4.280   8.689  0.1198  0.1089  0.2538
  466loPI   C3A 7449  18.238   4.286   8.322  0.0592  0.1434  0.0365
  466loPI   C4A 7450  18.266   4.389   7.920 -0.1261 -0.2512  0.3691
  466loPI   C5A 7451  18.339   4.661   7.523  0.0669 -0.0460 -0.1439
  466loPI   C6A 7452  18.209   5.036   7.462  0.1540 -0.0887 -0.0287
  466loPI   C1B 7453  17.757   5.106   8.931 -0.1764 -0.1942 -0.4591
  466loPI   C2B 7454  17.717   5.120   8.486  0.3400  0.0262  0.0480
  466loPI   C3B 7455  17.453   4.922   8.165 -0.1494  0.2811  0.1771
  466loPI   C4B 7456  17.475   4.714   7.674  0.0767 -0.2026  0.1474
  467loPI    C1 7457  15.564  18.398  10.040  0.0289 -0.0939 -0.0257
  467loPI    C2 7458  15.593  18.044  10.224 -0.5186 -0.1430 -0.0178
  467loPI    C3 7459  15.494  18.370  10.433 -0.0192  0.0213 -0.0258
  467loPI   PO4 7460  15.582  18.384   9.787 -0.1761  0.0479  0.2149
  467loPI   GL1 7461  15.361  18.620   9.536 -0.0187  0.4793 -0.0229
  467loPI   GL2 7462  15.054  18.507   9.304 -0.0374  0.1575 -0.0227
  467loPI   C1A 7463  15.300  18.926   9.256 -0.0424  0.1199 -0.0037
  467loPI   C2A 7464  15.413  18.940   8.809 -0.0852  0.0038 -0.1899
  467loPI   C3A 7465  15.654  19.150   8.452  0.2380 -0.0399 -0.2094
  467loPI   C4A 7466  15.527  19.114   7.951 -0.0180  0.2629  0.2466
  467loPI   C5A 7467  15.238  19.136   7.638 -0.1029 -0.3934 -0.2380
  467loPI   C6A 7468  15.083  19.210   7.207  0.1034 -0.2310  0.1248
  467loPI   C1B 7469  15.061  18.567   8.865 -0.3717  0.0506  0.0162
  467loPI   C2B 7470  14.761  18.702   8.533  0.1012 -0.0826  0.2318
  467loPI   C3B 7471  15.021  18.838   8.152 -0.1541  0.0289  0.2815
  467loPI   C4B 7472  15.108  18.632   7.803 -0.3263  0.2197 -0.0232
  468loPI    C1 7473   4.443   1.199  10.282 -0.1401 -0.0314 -0.0676
  468loPI    C2 7474   4.185   0.980  10.069 -0.1355 -0.1621  0.0593
  468loPI    C3 7475   4.054   1.205  10.373 -0.1559  0.1028 -0.1420
  468loPI   PO4 7476   4.605   1.056  10.323  0.0768  0.0167 -0.1659
  468loPI   GL1 7477   4.884   0.982  10.010  0.1181  0.2466 -0.2419
  468loPI   GL2 7478   4.875   0.740   9.663  0.0064 -0.0959  0.1006
  468loPI   C1A 7479   4.495   1.102   9.692  0.2445  0.0339 -0.5001
  468loPI   C2A 7480   4.161   1.081   9.524 -0.2806 -0.1100 -0.2127
  468loPI   C3A 7481   4.137   1.232   9.064 -0.2627 -0.1039 -0.1680
  468loPI   C4A 7482   4.274   1.390   8.563 -0.1749  0.0589  0.0122
  468loPI   C5A 7483   4.182   1.450   8.082  0.1791  0.0918 -0.1439
  468loPI   C6A 7484   3.902   1.521   7.793  0.1560  0.0185  0.3393
  468loPI   C1B 7485   4.773   1.022   9.315  0.1144  0.2739  0.1064
  468loPI   C2B 7486   4.621   1.390   9.005 -0.2284  0.0826 -0.1829
  468loPI   C3B 7487   4.703   1.851   8.899  0.0395 -0.2203  0.1912
  468loPI   C4B 7488   4.624   2.166   8.577  0.0040 -0.1173 -0.1781
  469loPI    C1 7489   3.554  18.461  10.177  0.1087  0.1487  0.2406
  469loPI    C2 7490   3.433  18.109  10.324 -0.1099  0.0070 -0.2543
  469loPI    C3 7491   3.504  18.416  10.571 -0.5808 -0.1812  0.1305
  469loPI   PO4 7492   3.595  18.325   9.853  0.2427  0.0884 -0.0032
  469loPI   GL1 7493   3.640  18.702   9.626  0.1041 -0.1321 -0.0711
  469loPI   GL2 7494   3.913  18.580   9.607  0.4790 -0.1932 -0.0207
  469loPI   C1A 7495   3.539  18.792   9.243  0.1013  0.0640  0.0471
  469loPI   C2A 7496   3.386  18.574   8.919 -0.2883 -0.1051  0.1204
  469loPI   C3A 7497   3.527  18.334   8.530  0.0045 -0.0616 -0.0437
  469loPI   C4A 7498   3.571  18.117   8.130  0.2213  0.0348 -0.2497
  469loPI   C5A 7499   3.568  17.893   7.764 -0.0198  0.0754  0.2061
  469loPI   C6A 7500   3.574  18.073   7.360 -0.1014  0.1811 -0.1222
  469loPI   C1B 7501   4.098  18.495   9.232  0.1456 -0.1717  0.3529
  469loPI   C2B 7502   4.136  18.473   8.824  0.0768  0.1775  0.1261
  469loPI   C3B 7503   4.077  18.629   8.488 -0.2662 -0.2804 -0.0755
  469loPI   C4B 7504   3.881  18.536   8.114  0.0007  0.3451 -0.0028
  470loPI    C1 7505   3.933   0.094  10.313  0.0220 -0.0477 -0.0272
  470loPI    C2 7506   3.701   0.313  10.555 -0.0495  0.0423 -0.1755
  470loPI    C3 7507   4.023   0.125  10.701 -0.0569  0.1465 -0.0234
  470loPI   PO4 7508   3.719  -0.008  10.139 -0.1229 -0.2398 -0.2299
  470loPI   GL1 7509   3.751   0.172   9.789 -0.0822 -0.0279  0.0119
  470loPI   GL2 7510   3.492   0.273   9.615 -0.1023  0.3141  0.1121
  470loPI   C1A 7511   4.034   0.465   9.643  0.4309  0.2609  0.0595
  470loPI   C2A 7512   4.388   0.686   9.375  0.1017  0.5318  0.0924
  470loPI   C3A 7513   4.378   0.786   8.899  0.2523  0.1027  0.1515
  470loPI   C4A 7514   4.582   0.941   8.498 -0.1305  0.1544 -0.1678
  470loPI   C5A 7515   4.637   1.261   8.151  0.1698 -0.0266  0.1453
  470loPI   C6A 7516   4.805   1.338   7.655  0.1263  0.0723  0.1779
  470loPI   C1B 7517   3.668   0.345   9.233 -0.2941  0.1114  0.1313
  470loPI   C2B 7518   3.923   0.456   8.880 -0.2101  0.1261 -0.1132
  470loPI   C3B 7519   4.090   0.274   8.493  0.1142 -0.3143  0.2904
  470loPI   C4B 7520   3.918   0.229   8.089  0.0839 -0.0325  0.1181
  471loPI    C1 7521  14.327   6.065  10.187  0.0355  0.1738 -0.0768
  471loPI    C2 7522  14.674   5.897  10.295  0.0183  0.1105 -0.1194
  471loPI    C3 7523  14.433   6.055  10.573 -0.0831 -0.1613 -0.0497
  471loPI   PO4 7524  14.324   5.915   9.872  0.1170 -0.0160  0.3288
  471loPI   GL1 7525  14.212   6.074   9.535 -0.0304 -0.5054  0.0519
  471loPI   GL2 7526  14.299   5.763   9.308 -0.2790 -0.0135  0.1635
  471loPI   C1A 7527  14.214   6.216   9.001  0.1418  0.2943 -0.1056
  471loPI   C2A 7528  14.296   6.330   8.703 -0.0766 -0.2053  0.0790
  471loPI   C3A 7529  14.328   6.586   8.329 -0.0051 -0.0946  0.2478
  471loPI   C4A 7530  14.645   6.668   7.948 -0.0519 -0.2859  0.1703
  471loPI   C5A 7531  15.029   6.604   7.768 -0.1354  0.1233  0.3081
  471loPI   C6A 7532  15.216   6.251   7.683 -0.1369 -0.1204 -0.0215
  471loPI   C1B 7533  14.341   5.755   8.934  0.2110 -0.0081  0.3911
  471loPI   C2B 7534  14.330   5.576   8.583 -0.3431 -0.0456  0.0652
  471loPI   C3B 7535  14.305   5.707   8.237 -0.0649 -0.0696  0.1178
  471loPI   C4B 7536  14.012   5.892   7.910 -0.1703  0.0046  0.2210
  472loPI    C1 7537  15.435   5.058   9.934 -0.0473 -0.1017 -0.4533
  472loPI    C2 7538  15.095   4.875  10.041  0.0751 -0.0600  0.0330
  472loPI    C3 7539  15.094   5.266   9.956  0.0082 -0.0526  0.0673
  472loPI   PO4 7540  15.618   4.904   9.739 -0.2842  0.2848 -0.1721
  472loPI   GL1 7541  15.697   5.118   9.316 -0.0517 -0.1002  0.1458
  472loPI   GL2 7542  15.671   4.812   9.209 -0.2266  0.0023 -0.3514
  472loPI   C1A 7543  16.084   5.166   9.048  0.0770  0.0747 -0.1096
  472loPI   C2A 7544  16.147   5.330   8.701  0.0877 -0.1324  0.1384
  472loPI   C3A 7545  16.264   5.358   8.229  0.0415 -0.0363  0.1031
  472loPI   C4A 7546  16.567   5.640   8.144 -0.0900  0.2769  0.1484
  472loPI   C5A 7547  16.697   5.812   7.697 -0.2812  0.1225 -0.1885
  472loPI   C6A 7548  16.756   6.144   7.326  0.0651  0.1742  0.1669
  472loPI   C1B 7549  15.609   4.890   8.817 -0.0677  0.2170 -0.2526
  472loPI   C2B 7550  15.805   5.008   8.437  0.0015 -0.0171 -0.0093
  472loPI   C3B 7551  15.833   5.250   8.107  0.1871 -0.0187 -0.2009
  472loPI   C4B 7552  15.802   5.313   7.686 -0.0461 -0.2016 -0.1659
  473loPI    C1 7553   4.225   9.094   9.991 -0.2351  0.2682  0.0614
  473loPI    C2 7554   3.849   9.075   9.857 -0.1320 -0.1415 -0.1895
  473loPI    C3 7555   4.002   8.769  10.064  0.0848 -0.0047 -0.1450
  473loPI   PO4 7556   4.458   9.280   9.849  0.1771 -0.0930  0.5377
  473loPI   GL1 7557   4.731   9.318   9.554 -0.1836 -0.0354 -0.2362
  473loPI   GL2 7558   4.720   9.606   9.540 -0.1075  0.2549  0.3554
  473loPI   C1A 7559   4.913   9.138   9.248  0.1324  0.1027  0.1688
  473loPI   C2A 7560   4.818   9.112   8.868  0.2587  0.0021  0.0069
  473loPI   C3A 7561   4.667   9.115   8.549  0.0512 -0.0571  0.2856
  473loPI   C4A 7562   4.487   9.174   8.145  0.1762 -0.2417 -0.0161
  473loPI   C5A 7563   4.545   9.534   7.857 -0.0050 -0.1053 -0.2042
  473loPI   C6A 7564   4.662   9.868   7.598  0.0430  0.0577  0.2179
  473loPI   C1B 7565   4.758   9.589   9.076  0.1823 -0.1094  0.1301
  473loPI   C2B 7566   4.608   9.776   8.654 -0.1345  0.1277  0.0419
  473loPI   C3B 7567   4.367   9.814   8.264  0.0066  0.1222 -0.0767
  473loPI   C4B 7568   4.275  10.024   7.969  0.3746  0.1744 -0.0329
  474POPI    C1 7569   9.301   1.543   9.880  0.0901 -0.2428  0.2767
  474POPI    C2 7570   9.350   1.253  10.151  0.1102 -0.0708  0.4606
  474POPI    C3 7571   9.266   1.625  10.271 -0.1323 -0.0441  0.2177
  474POPI   PO4 7572   9.472   1.535   9.718  0.3512  0.0739  0.1232
  474POPI   GL1 7573   9.422   1.817   9.408  0.0733 -0.1140  0.0477
  474POPI   GL2 7574   9.693   2.048   9.531  0.2198  0.3584  0.1096
  474POPI   C1A 7575   9.139   1.554   9.144 -0.2949 -0.1217 -0.0069
  474POPI   D2A 7576   9.154   1.172   8.788  0.0959 -0.0278 -0.1076
  474POPI   C3A 7577   9.582   1.115   8.474  0.4235  0.0371  0.1966
  474POPI   C4A 7578   9.696   0.909   8.102  0.2893 -0.1899 -0.3053
  474POPI   C1B 7579   9.703   2.356   9.259  0.0822  0.3347  0.2205
  474POPI   C2B 7580   9.606   2.601   8.792 -0.1678 -0.1961  0.0215
  474POPI   C3B 7581   9.535   2.521   8.343 -0.0308  0.0801 -0.1391
  474POPI   C4B 7582   9.673   2.495   7.879 -0.0650 -0.1741 -0.0237
  475POPI    C1 7583  14.288  12.597  10.253  0.0996 -0.4124  0.0704
  475POPI    C2 7584  13.892  12.539  10.262  0.0178  0.0796 -0.0392
  475POPI    C3 7585  14.090  12.624  10.600  0.0200 -0.0936  0.0040
  475POPI   PO4 7586  14.354  12.799  10.028  0.0080  0.2664  0.1942
  475POPI   GL1 7587  14.174  12.754   9.659  0.0120 -0.2331 -0.0372
  475POPI   GL2 7588  14.123  12.490   9.712 -0.1856  0.1807 -0.0945
  475POPI   C1A 7589  13.826  12.806   9.454 -0.2554 -0.0495  0.1966
  475POPI   D2A 7590  13.556  12.550   9.260  0.1595 -0.3076 -0.2626
  475POPI   C3A 7591  13.455  12.586   8.844  0.2271  0.1233 -0.1845
  475POPI   C4A 7592  13.359  12.588   8.451 -0.0601 -0.0075 -0.5511
  475POPI   C1B 7593  14.199  12.482   9.255 -0.3470  0.0141 -0.0293
  475POPI   C2B 7594  13.949  12.462   8.833 -0.1430  0.4272  0.1914
  475POPI   C3B 7595  13.869  12.373   8.398 -0.0600 -0.0571 -0.1467
  475POPI   C4B 7596  13.762  12.305   7.988  0.1880  0.1594 -0.1494
  476POPI    C1 7597  17.172  11.325  10.112 -0.1418  0.2262  0.0006
  476POPI    C2 7598  17.079  11.059  10.395 -0.1034  0.0851 -0.1182
  476POPI    C3 7599  17.383  11.313  10.452 -0.0537  0.0134 -0.0599
  476POPI   PO4 7600  17.013  11.131   9.900 -0.0043 -0.1924 -0.1111
  476POPI   GL1 7601  17.041  11.328   9.435  0.1734  0.0697  0.0357
  476POPI   GL2 7602  17.313  11.289   9.437  0.2474  0.1045 -0.0119
  476POPI   C1A 7603  17.047  11.322   8.948  0.2693 -0.0719  0.0934
  476POPI   D2A 7604  16.977  11.221   8.518  0.1107  0.0328 -0.2511
  476POPI   C3A 7605  16.716  10.788   8.353  0.1094  0.0570 -0.2522
  476POPI   C4A 7606  16.251  10.594   8.427  0.1809 -0.1344 -0.3507
  476POPI   C1B 7607  17.562  11.316   9.017  0.2908 -0.0878 -0.0768
  476POPI   C2B 7608  17.463  11.248   8.617  0.1863  0.3267 -0.1875
  476POPI   C3B 7609  17.403  11.297   8.265  0.3715  0.1419 -0.0485
  476POPI   C4B 7610  17.469  11.172   7.813 -0.0269 -0.1605 -0.5348
  477POPI    C1 7611   0.420  10.925  10.659 -0.0458  0.0551 -0.1286
  477POPI    C2 7612   0.300  11.301  10.593 -0.2134  0.0095 -0.0904
  477POPI    C3 7613   0.368  11.175  10.967  0.2460  0.1209 -0.1305
  477POPI   PO4 7614   0.293  10.803  10.376  0.2890  0.0207 -0.0258
  477POPI   GL1 7615   0.297  10.773   9.896 -0.0595 -0.1604  0.1263
  477POPI   GL2 7616   0.376  10.732   9.530 -0.1714 -0.0410 -0.0262
  477POPI   C1A 7617  -0.066  10.894   9.618  0.2517 -0.0941 -0.0661
  477POPI   D2A 7618  -0.194  11.004   9.209 -0.0359 -0.0748 -0.0412
  477POPI   C3A 7619  -0.223  11.415   9.106 -0.1299 -0.0557 -0.1221
  477POPI   C4A 7620  -0.059  11.850   8.840 -0.1326  0.3650 -0.1802
  477POPI   C1B 7621   0.400  10.737   9.099  0.3463  0.1300 -0.1774
  477POPI   C2B 7622   0.416  10.742   8.687 -0.0515 -0.1428 -0.1294
  477POPI   C3B 7623   0.145  10.595   8.322  0.1002 -0.0205  0.1282
  477POPI   C4B 7624  -0.057  10.567   7.968 -0.1681  0.0043 -0.0223
  478POPI    C1 7625   3.602  11.821   9.930 -0.1497 -0.2312 -0.1431
  478POPI    C2 7626   3.477  11.716  10.295 -0.1195  0.1524 -0.0180
  478POPI    C3 7627   3.861  11.670  10.194 -0.2139 -0.3807 -0.1646
  478POPI   PO4 7628   3.425  11.649   9.694 -0.0377  0.1201 -0.0331
  478POPI   GL1 7629   3.204  11.617   9.391  0.3067 -0.1338  0.4721
  478POPI   GL2 7630   3.479  11.611   9.105 -0.0802 -0.3204 -0.0169
  478POPI   C1A 7631   3.077  11.909   9.131 -0.2763 -0.1073  0.3655
  478POPI   D2A 7632   2.955  11.874   8.758 -0.1903 -0.2132  0.1979
  478POPI   C3A 7633   2.971  11.765   8.287 -0.1556  0.0753  0.3386
  478POPI   C4A 7634   2.845  11.653   7.885 -0.0654  0.7833 -0.1519
  478POPI   C1B 7635   3.437  11.695   8.702 -0.1363  0.0715  0.1985
  478POPI   C2B 7636   3.500  11.635   8.421 -0.3031  0.0602  0.0808
  478POPI   C3B 7637   3.768  11.442   8.122  0.0913  0.0788  0.0171
  478POPI   C4B 7638   4.154  11.502   7.712 -0.2074  0.2276  0.0317
  479POPI    C1 7639   2.457  14.310   9.682 -0.3179 -0.2898  0.0125
  479POPI    C2 7640   2.266  14.199  10.015 -0.1663 -0.0369  0.1872
  479POPI    C3 7641   2.450  14.554   9.999  0.0523 -0.1583 -0.0748
  479POPI   PO4 7642   2.268  14.306   9.505  0.0676 -0.0353 -0.1079
  479POPI   GL1 7643   2.311  14.646   9.104 -0.3012 -0.2919 -0.2306
  479POPI   GL2 7644   2.114  14.836   9.109 -0.1174  0.2268 -0.0102
  479POPI   C1A 7645   2.441  14.981   8.727 -0.3028 -0.4664  0.0460
  479POPI   D2A 7646   2.371  15.006   8.260  0.0471 -0.2402 -0.3947
  479POPI   C3A 7647   2.600  15.192   7.893 -0.1450 -0.0602  0.3553
  479POPI   C4A 7648   2.710  15.451   7.630 -0.2217  0.2343  0.3156
  479POPI   C1B 7649   2.038  14.698   8.661 -0.3464 -0.0636  0.0141
  479POPI   C2B 7650   2.110  14.385   8.340  0.1171  0.3832  0.1734
  479POPI   C3B 7651   2.087  14.030   8.201  0.2124 -0.0644  0.0343
  479POPI   C4B 7652   1.778  13.973   7.909 -0.1707 -0.1302  0.1072
  480POPI    C1 7653  14.109  17.330   9.886 -0.0054  0.2030 -0.1313
  480POPI    C2 7654  13.890  17.522  10.160  0.1642  0.0586  0.1089
  480POPI    C3 7655  14.188  17.280  10.275  0.2920  0.0612 -0.2066
  480POPI   PO4 7656  13.905  17.165   9.733  0.0394  0.3088  0.3121
  480POPI   GL1 7657  13.980  16.946   9.346 -0.3579  0.1877  0.0783
  480POPI   GL2 7658  13.543  16.947   9.432  0.0624 -0.3478 -0.4833
  480POPI   C1A 7659  13.953  16.949   8.943 -0.3098 -0.1476  0.1810
  480POPI   D2A 7660  14.047  17.010   8.544 -0.1444 -0.0250 -0.1187
  480POPI   C3A 7661  13.953  16.993   8.162  0.1266  0.2017 -0.0063
  480POPI   C4A 7662  13.963  17.131   7.813  0.2763 -0.1379  0.1881
  480POPI   C1B 7663  13.532  17.190   9.057  0.3158  0.1808 -0.0626
  480POPI   C2B 7664  13.454  17.151   8.609 -0.2161 -0.0854  0.1282
  480POPI   C3B 7665  13.179  17.208   8.303 -0.6277  0.0211 -0.0953
  480POPI   C4B 7666  13.380  17.173   7.840 -0.1124 -0.3173  0.0654
  481POPI    C1 7667  16.829   1.334   9.971 -0.1145  0.0100  0.0924
  481POPI    C2 7668  16.561   1.506   9.729  0.0175 -0.0386 -0.0911
  481POPI    C3 7669  16.438   1.279  10.035 -0.1517  0.0897 -0.0623
  481POPI   PO4 7670  17.184   1.374   9.761 -0.0211 -0.1284  0.0470
  481POPI   GL1 7671  17.281   1.299   9.429  0.0177 -0.1039 -0.4437
  481POPI   GL2 7672  16.866   1.420   9.295  0.0256 -0.2793 -0.2736
  481POPI   C1A 7673  17.596   1.175   9.179  0.1619  0.1528 -0.1000
  481POPI   D2A 7674  17.762   1.002   8.846 -0.0320 -0.3364 -0.0621
  481POPI   C3A 7675  17.726   1.241   8.549  0.4378 -0.3270 -0.2849
  481POPI   C4A 7676  17.702   1.260   8.113 -0.2041  0.1230 -0.1700
  481POPI   C1B 7677  17.181   1.333   8.911  0.2203  0.1600  0.2678
  481POPI   C2B 7678  17.322   1.415   8.454 -0.0146 -0.0887 -0.1016
  481POPI   C3B 7679  17.545   1.760   8.128  0.0534 -0.0624 -0.0740
  481POPI   C4B 7680  17.805   1.988   7.785  0.3470  0.1309 -0.0123
  482POPI    C1 7681   7.022   0.451  10.589  0.0454 -0.1368 -0.0767
  482POPI    C2 7682   6.866   0.162  10.817 -0.2007  0.0920  0.0516
  482POPI    C3 7683   7.116   0.430  10.977 -0.0838  0.0351 -0.0344
  482POPI   PO4 7684   7.175   0.359  10.439 -0.0383  0.2895 -0.4938
  482POPI   GL1 7685   7.164   0.434  10.066 -0.0757 -0.0597  0.0039
  482POPI   GL2 7686   6.863   0.293  10.045 -0.1218 -0.0031  0.1513
  482POPI   C1A 7687   7.358   0.189   9.782 -0.0198 -0.3543 -0.2197
  482POPI   D2A 7688   7.741  -0.094   9.820  0.0552 -0.0671  0.0529
  482POPI   C3A 7689   7.970  -0.066   9.430 -0.2273 -0.3553  0.1305
  482POPI   C4A 7690   8.039   0.171   9.045  0.2500 -0.0676 -0.1061
  482POPI   C1B 7691   6.984   0.331   9.532  0.0923  0.1059 -0.2727
  482POPI   C2B 7692   7.159   0.232   9.113  0.0604  0.0343  0.1139
  482POPI   C3B 7693   7.416  -0.075   9.087  0.0440 -0.2771 -0.2092
  482POPI   C4B 7694   7.520  -0.307   9.378  0.1347 -0.0971  0.0283
  483POPI    C1 7695   7.258  17.983  10.409  0.0272 -0.0957  0.0580
  483POPI    C2 7696   7.420  17.755  10.695  0.0514 -0.0032  0.1188
  483POPI    C3 7697   7.330  18.137  10.772  0.1177  0.0405 -0.0167
  483POPI   PO4 7698   7.530  17.934  10.214 -0.1124 -0.1493  0.2783
  483POPI   GL1 7699   7.548  17.927   9.778  0.4407  0.1421  0.0213
  483POPI   GL2 7700   7.569  17.610   9.727  0.0570  0.0859 -0.1445
  483POPI   C1A 7701   7.694  18.160   9.448  0.1819  0.0428 -0.3407
  483POPI   D2A 7702   7.741  18.338   9.102 -0.3523 -0.1417  0.1519
  483POPI   C3A 7703   7.824  18.657   8.878  0.0035  0.5727  0.2302
  483POPI   C4A 7704   7.721  19.009   8.584 -0.2411 -0.2312 -0.1363
  483POPI   C1B 7705   7.697  17.620   9.347  0.0302  0.2006 -0.0065
  483POPI   C2B 7706   7.914  17.432   8.989 -0.0523  0.0756 -0.0928
  483POPI   C3B 7707   7.912  17.490   8.613 -0.0134 -0.2564 -0.3299
  483POPI   C4B 7708   8.157  17.525   8.298  0.2263 -0.3384  0.0700
  484POPI    C1 7709   5.769   7.501   9.952 -0.3227 -0.2630 -0.2140
  484POPI    C2 7710   5.502   7.426  10.241  0.2154 -0.1274  0.3407
  484POPI    C3 7711   5.863   7.254  10.253  0.3120  0.0238 -0.1606
  484POPI   PO4 7712   5.610   7.492   9.683 -0.0577 -0.0369  0.0758
  484POPI   GL1 7713   5.304   7.270   9.373 -0.0356 -0.1098 -0.1142
  484POPI   GL2 7714   5.210   7.563   9.269 -0.0675  0.4195  0.0151
  484POPI   C1A 7715   5.586   7.116   9.033  0.1268  0.1346 -0.3668
  484POPI   D2A 7716   5.874   7.041   8.595 -0.1136  0.4336  0.1696
  484POPI   C3A 7717   6.050   6.627   8.549  0.3804 -0.4539  0.0777
  484POPI   C4A 7718   5.943   6.367   8.222 -0.1718 -0.0417 -0.0426
  484POPI   C1B 7719   5.241   7.385   8.757  0.2155  0.2619  0.3498
  484POPI   C2B 7720   5.440   7.274   8.428  0.1581 -0.1914  0.0310
  484POPI   C3B 7721   5.711   7.225   8.077 -0.0055  0.0123 -0.0448
  484POPI   C4B 7722   6.014   7.256   7.728 -0.1183  0.2059 -0.0653
  485POPI    C1 7723   3.613  12.332   9.866  0.1085  0.0759  0.0145
  485POPI    C2 7724   3.674  12.600  10.156 -0.2523  0.2009 -0.0202
  485POPI    C3 7725   3.545  12.233  10.247  0.0361  0.1038  0.0089
  485POPI   PO4 7726   3.748  12.474   9.666  0.2866  0.4019  0.0560
  485POPI   GL1 7727   3.992  12.633   9.446 -0.0189 -0.1469 -0.0461
  485POPI   GL2 7728   4.050  12.468   9.236 -0.0487  0.3359 -0.0760
  485POPI   C1A 7729   4.366  12.920   9.405 -0.2929 -0.0743  0.3496
  485POPI   D2A 7730   4.721  13.055   9.105 -0.2243 -0.1545  0.1758
  485POPI   C3A 7731   5.123  13.214   9.174 -0.1721  0.3013 -0.2797
  485POPI   C4A 7732   5.321  13.227   9.542  0.0728 -0.3861  0.1983
  485POPI   C1B 7733   3.960  12.247   8.902 -0.2094 -0.3091 -0.1658
  485POPI   C2B 7734   3.820  12.139   8.501 -0.0716  0.1021  0.0069
  485POPI   C3B 7735   3.780  11.918   8.124  0.3164  0.0054  0.1297
  485POPI   C4B 7736   3.841  11.870   7.681  0.1139 -0.2284 -0.1892
  486POPI    C1 7737  13.888   8.694  10.078 -0.1459 -0.1329 -0.0763
  486POPI    C2 7738  13.505   8.798  10.123 -0.0711  0.0531  0.1442
  486POPI    C3 7739  13.752   8.801  10.438  0.1494  0.0881 -0.0269
  486POPI   PO4 7740  13.969   8.507   9.939 -0.0407  0.0934  0.1064
  486POPI   GL1 7741  13.979   8.437   9.570  0.1139 -0.1891  0.0991
  486POPI   GL2 7742  14.295   8.608   9.432 -0.2337  0.0132  0.0456
  486POPI   C1A 7743  13.787   8.181   9.136 -0.0386  0.2173  0.1992
  486POPI   D2A 7744  13.814   8.262   8.704 -0.4334 -0.1206  0.0826
  486POPI   C3A 7745  13.972   8.355   8.332  0.2049 -0.0544  0.2258
  486POPI   C4A 7746  14.155   8.402   7.958  0.0516  0.2246 -0.0690
  486POPI   C1B 7747  14.286   8.474   9.015 -0.1933 -0.2459  0.2153
  486POPI   C2B 7748  14.297   8.545   8.653 -0.1290 -0.0395 -0.0235
  486POPI   C3B 7749  14.550   8.523   8.276  0.0556  0.1564  0.0126
  486POPI   C4B 7750  14.739   8.784   8.053  0.1524  0.3943  0.0762
  487POPI    C1 7751  11.236   0.768  10.132  0.0004  0.0025 -0.1096
  487POPI    C2 7752  11.441   0.610  10.437  0.0887  0.0503 -0.1436
  487POPI    C3 7753  11.547   0.966  10.288 -0.0013  0.0620 -0.1805
  487POPI   PO4 7754  11.219   0.618   9.959  0.1418 -0.2535  0.2641
  487POPI   GL1 7755  11.205   0.642   9.519 -0.4626  0.0293  0.2387
  487POPI   GL2 7756  11.525   0.741   9.370  0.0772 -0.1053  0.1596
  487POPI   C1A 7757  11.050   0.617   9.007  0.0827 -0.0957 -0.3244
  487POPI   D2A 7758  10.991   0.478   8.567  0.1376  0.0547  0.3241
  487POPI   C3A 7759  11.233   0.404   8.173  0.1924  0.0084  0.0407
  487POPI   C4A 7760  11.279   0.352   7.818 -0.0463  0.1287  0.2868
  487POPI   C1B 7761  11.518   0.506   9.011  0.1206 -0.1864  0.1394
  487POPI   C2B 7762  11.546   0.366   8.539  0.1086 -0.1384  0.2330
  487POPI   C3B 7763  11.720   0.222   8.121 -0.2857 -0.1756 -0.0880
  487POPI   C4B 7764  11.636  -0.017   7.728 -0.1460 -0.2983 -0.3016
  488POPI    C1 7765   3.850   7.891   9.998 -0.0952 -0.1088  0.0173
  488POPI    C2 7766   4.223   7.936  10.136 -0.1240  0.1103  0.0278
  488POPI    C3 7767   4.081   7.570  10.059  0.1484  0.0349 -0.1305
  488POPI   PO4 7768   3.849   8.047   9.695 -0.1511 -0.1030 -0.1604
  488POPI   GL1 7769   4.006   8.177   9.302  0.0412 -0.2580  0.2140
  488POPI   GL2 7770   4.061   7.903   9.116 -0.2100  0.1624  0.1363
  488POPI   C1A 7771   4.032   8.545   9.085  0.3442  0.2442  0.2668
  488POPI   D2A 7772   3.777   8.577   8.639 -0.0567  0.1091 -0.1137
  488POPI   C3A 7773   3.606   8.675   8.281 -0.0138 -0.2691 -0.0034
  488POPI   C4A 7774   3.661   8.821   7.912 -0.2721  0.1041  0.4552
  488POPI   C1B 7775   3.861   8.025   8.740  0.0200 -0.3200  0.0443
  488POPI   C2B 7776   3.731   8.119   8.345 -0.0331  0.1244  0.2009
  488POPI   C3B 7777   3.450   8.200   8.136  0.0026 -0.0226 -0.0273
  488POPI   C4B 7778   3.106   8.119   7.875  0.0971 -0.1216  0.1918
  489POPI    C1 7779   1.235  13.099  10.281 -0.1879  0.1303 -0.3833
  489POPI    C2 7780   1.058  13.270  10.596  0.0568 -0.0246 -0.1569
  489POPI    C3 7781   0.901  12.940  10.433  0.0026 -0.0201 -0.1141
  489POPI   PO4 7782   1.277  13.285  10.103  0.1801  0.0696 -0.1398
  489POPI   GL1 7783   1.367  13.288   9.714 -0.0437  0.0658 -0.0885
  489POPI   GL2 7784   1.694  13.346   9.536  0.0123 -0.0563  0.1092
  489POPI   C1A 7785   1.098  12.959   9.423  0.0377 -0.0227  0.2982
  489POPI   D2A 7786   1.060  12.466   9.230  0.0363 -0.2486 -0.1490
  489POPI   C3A 7787   1.068  12.461   8.777 -0.2037 -0.0908 -0.1600
  489POPI   C4A 7788   1.383  12.453   8.458  0.0153  0.0905  0.0113
  489POPI   C1B 7789   1.492  13.130   9.146 -0.2591  0.1747 -0.3400
  489POPI   C2B 7790   1.392  12.878   8.782  0.2009 -0.4633  0.2177
  489POPI   C3B 7791   1.355  12.881   8.367  0.0558 -0.0953  0.3651
  489POPI   C4B 7792   1.421  12.604   7.970 -0.2189  0.3200  0.3013
  490POPI    C1 7793  15.882  16.253  10.000  0.2690 -0.0920 -0.0278
  490POPI    C2 7794  15.977  15.968  10.264 -0.0794 -0.0742  0.1216
  490POPI    C3 7795  15.779  16.294  10.384 -0.0114  0.0571 -0.1169
  490POPI   PO4 7796  16.084  16.287   9.869  0.1050  0.1275 -0.0602
  490POPI   GL1 7797  16.218  16.189   9.522 -0.4258 -0.2108  0.0296
  490POPI   GL2 7798  16.041  15.877   9.511 -0.1659 -0.0740  0.0044
  490POPI   C1A 7799  16.165  16.413   9.131 -0.0032  0.4461 -0.0567
  490POPI   D2A 7800  16.186  16.710   9.051  0.0650  0.0901 -0.0908
  490POPI   C3A 7801  16.137  16.657   8.604 -0.0071  0.0868  0.2778
  490POPI   C4A 7802  15.919  16.425   8.290  0.0130  0.0018 -0.0499
  490POPI   C1B 7803  16.323  15.901   9.143 -0.0549  0.2947  0.0924
  490POPI   C2B 7804  16.380  15.703   8.683 -0.1175  0.0669  0.1458
  490POPI   C3B 7805  16.413  15.487   8.307 -0.0838 -0.1226  0.3804
  490POPI   C4B 7806  16.593  15.391   8.022  0.0412 -0.2495 -0.0984
  491POPI    C1 7807  18.370   3.117  10.292 -0.1641  0.1471  0.3996
  491POPI    C2 7808  18.211   2.780  10.148  0.2531  0.0477  0.1534
  491POPI    C3 7809  17.974   3.064  10.300 -0.1269 -0.2241  0.0838
  491POPI   PO4 7810  18.507   3.213  10.005  0.2678 -0.0993 -0.0976
  491POPI   GL1 7811  18.290   3.330   9.648  0.1866  0.0825 -0.2334
  491POPI   GL2 7812  18.286   2.931   9.669 -0.0795 -0.3189  0.1052
  491POPI   C1A 7813  18.477   3.202   9.290  0.0908 -0.3258 -0.0241
  491POPI   D2A 7814  18.633   2.892   8.884 -0.2725 -0.1104 -0.2146
  491POPI   C3A 7815  18.291   2.758   8.628 -0.1574 -0.2341 -0.2255
  491POPI   C4A 7816  17.990   2.594   8.317 -0.1517  0.0344 -0.1680
  491POPI   C1B 7817  18.007   3.054   9.299 -0.1723 -0.0301  0.1231
  491POPI   C2B 7818  17.823   3.214   8.854  0.2373 -0.1769  0.0427
  491POPI   C3B 7819  17.785   3.063   8.468 -0.0635 -0.0523  0.3508
  491POPI   C4B 7820  17.623   2.835   8.128  0.0522 -0.0401 -0.0705
  492POPI    C1 7821   6.554   8.435  10.271 -0.1280 -0.1590  0.0441
  492POPI    C2 7822   6.290   8.373  10.565 -0.0349 -0.0654  0.1486
  492POPI    C3 7823   6.548   8.085  10.462 -0.0259 -0.0760  0.2013
  492POPI   PO4 7824   6.415   8.540  10.092 -0.2118 -0.0501  0.0807
  492POPI   GL1 7825   6.262   8.485   9.670  0.2883  0.1298  0.0978
  492POPI   GL2 7826   6.222   8.186   9.570  0.1321  0.3060 -0.1706
  492POPI   C1A 7827   6.325   8.624   9.254 -0.2883  0.0064  0.1799
  492POPI   D2A 7828   6.370   8.596   8.873 -0.1028 -0.1939 -0.3061
  492POPI   C3A 7829   6.604   8.363   8.484 -0.0293  0.1863 -0.5564
  492POPI   C4A 7830   6.564   8.613   8.097 -0.1822  0.0688  0.1991
  492POPI   C1B 7831   6.327   8.108   9.095  0.1885  0.0561  0.3420
  492POPI   C2B 7832   6.286   8.032   8.686  0.1505 -0.0594 -0.3085
  492POPI   C3B 7833   6.344   8.002   8.314 -0.3268  0.0157 -0.0362
  492POPI   C4B 7834   6.178   8.289   7.952 -0.0379  0.0450  0.1789
  493POPI    C1 7835   7.427   7.090  10.252 -0.1930 -0.0448 -0.2468
  493POPI    C2 7836   7.534   6.881  10.576 -0.1597  0.2498 -0.0641
  493POPI    C3 7837   7.201   6.783  10.376 -0.0939 -0.0354 -0.0387
  493POPI   PO4 7838   7.651   7.069  10.067  0.0061  0.1226  0.1406
  493POPI   GL1 7839   7.694   7.188   9.581 -0.2612 -0.1680  0.3516
  493POPI   GL2 7840   7.506   7.351   9.736  0.1696 -0.2694 -0.2505
  493POPI   C1A 7841   7.722   7.354   9.188 -0.0211  0.0094 -0.0468
  493POPI   D2A 7842   7.829   7.442   8.771 -0.0800 -0.2970 -0.0753
  493POPI   C3A 7843   7.713   7.352   8.446  0.0303  0.0687 -0.2091
  493POPI   C4A 7844   7.580   7.246   8.069 -0.0466 -0.1892 -0.1234
  493POPI   C1B 7845   7.233   7.302   9.422  0.3882  0.3390  0.0326
  493POPI   C2B 7846   7.210   7.326   8.959 -0.0573 -0.0477 -0.1261
  493POPI   C3B 7847   7.173   7.322   8.450  0.0573  0.0583 -0.0538
  493POPI   C4B 7848   7.152   7.476   7.914  0.1251 -0.1482 -0.1917
  494POPI    C1 7849   4.838   5.666  10.400  0.0875 -0.0912  0.1072
  494POPI    C2 7850   4.477   5.660  10.228  0.1807  0.1554 -0.1036
  494POPI    C3 7851   4.511   5.608  10.623 -0.0438 -0.3278 -0.1416
  494POPI   PO4 7852   5.027   5.669  10.192 -0.1840 -0.0703  0.0546
  494POPI   GL1 7853   5.131   5.425   9.798  0.0392  0.4133 -0.0880
  494POPI   GL2 7854   5.129   4.954   9.795 -0.0182  0.0580  0.1810
  494POPI   C1A 7855   4.994   5.394   9.427 -0.0449 -0.2683  0.1387
  494POPI   D2A 7856   5.123   5.576   9.048 -0.1702 -0.0042 -0.1368
  494POPI   C3A 7857   5.109   5.518   8.714 -0.1652  0.0484 -0.1576
  494POPI   C4A 7858   5.044   5.493   8.277  0.3516  0.2949 -0.0173
  494POPI   C1B 7859   5.224   4.816   9.409 -0.3046 -0.1526 -0.0653
  494POPI   C2B 7860   5.207   5.010   8.947 -0.3249  0.0829  0.2050
  494POPI   C3B 7861   5.118   5.012   8.536  0.2010 -0.2916 -0.0088
  494POPI   C4B 7862   4.747   5.097   8.204 -0.0598  0.0254 -0.1323
  495POPI    C1 7863  17.740   9.725  10.418 -0.0122  0.0281 -0.0754
  495POPI    C2 7864  17.501   9.521  10.171  0.0395 -0.0350 -0.0731
  495POPI    C3 7865  17.778   9.329  10.386 -0.4002 -0.0670  0.4877
  495POPI   PO4 7866  17.786   9.923  10.254 -0.0959  0.0479 -0.0207
  495POPI   GL1 7867  17.719   9.861   9.797 -0.0381  0.0089 -0.1051
  495POPI   GL2 7868  17.903  10.077   9.607 -0.3476  0.2532 -0.0603
  495POPI   C1A 7869  17.764   9.569   9.446  0.2746 -0.2522  0.2668
  495POPI   D2A 7870  18.036   9.381   9.107 -0.0434 -0.0520  0.0592
  495POPI   C3A 7871  18.004   9.480   8.688 -0.0263 -0.0474  0.4320
  495POPI   C4A 7872  18.326   9.398   8.303  0.0754 -0.1658 -0.1408
  495POPI   C1B 7873  18.037   9.927   9.204 -0.1985 -0.1906  0.2034
  495POPI   C2B 7874  18.345   9.757   8.937 -0.0789 -0.0402  0.0754
  495POPI   C3B 7875  18.627   9.743   8.561  0.1999  0.0936 -0.1913
  495POPI   C4B 7876  18.710   9.681   8.088  0.0319 -0.1037 -0.1146
  496POPI    C1 7877   4.165   1.776  10.457 -0.0812  0.0692  0.0103
  496POPI    C2 7878   3.797   1.618  10.471 -0.0464 -0.0202 -0.0760
  496POPI    C3 7879   4.064   1.526  10.754 -0.0454 -0.0685 -0.0926
  496POPI   PO4 7880   4.362   1.772  10.235 -0.1294  0.4189 -0.0339
  496POPI   GL1 7881   4.232   1.948   9.965 -0.0444 -0.2760  0.0837
  496POPI   GL2 7882   4.429   2.011   9.703 -0.0458  0.1069  0.1971
  496POPI   C1A 7883   3.876   1.922   9.759 -0.1828  0.0721  0.2438
  496POPI   D2A 7884   3.745   1.635   9.469 -0.0498  0.0096 -0.1663
  496POPI   C3A 7885   3.736   1.600   8.986 -0.0264  0.0765 -0.0920
  496POPI   C4A 7886   3.771   1.510   8.528  0.0041  0.0465 -0.2939
  496POPI   C1B 7887   4.353   2.152   9.316 -0.1610  0.3010 -0.0990
  496POPI   C2B 7888   4.192   2.310   8.907 -0.4122  0.1278  0.0812
  496POPI   C3B 7889   3.907   2.502   8.602 -0.2297 -0.2495  0.1364
  496POPI   C4B 7890   3.522   2.577   8.647 -0.2753  0.1225  0.1151
  497POPI    C1 7891   8.988   5.271   9.979 -0.1812  0.4573 -0.0906
  497POPI    C2 7892   9.095   5.339  10.359  0.0940  0.0609 -0.0907
  497POPI    C3 7893   8.743   5.166  10.278  0.0879  0.0350 -0.0098
  497POPI   PO4 7894   9.049   5.577   9.879 -0.0219 -0.1202 -0.1927
  497POPI   GL1 7895   9.123   5.797   9.420 -0.0324 -0.0839 -0.0601
  497POPI   GL2 7896   9.079   6.169   9.624  0.1665 -0.1455  0.3232
  497POPI   C1A 7897   9.042   5.795   9.033  0.3490  0.0702  0.0664
  497POPI   D2A 7898   8.923   5.773   8.588  0.1131 -0.0307  0.0188
  497POPI   C3A 7899   8.942   6.165   8.337 -0.4684  0.2981 -0.1741
  497POPI   C4A 7900   9.155   6.328   7.960  0.2729  0.0054 -0.0749
  497POPI   C1B 7901   8.678   6.175   9.342  0.1367 -0.0728 -0.2397
  497POPI   C2B 7902   8.732   6.150   8.982 -0.1257 -0.3522 -0.0841
  497POPI   C3B 7903   8.929   6.472   8.727 -0.4027 -0.1687  0.4120
  497POPI   C4B 7904   8.921   6.682   8.328 -0.1594 -0.2284  0.1187
  498POPI    C1 7905  12.461   8.634   9.965 -0.0348 -0.1027 -0.0741
  498POPI    C2 7906  12.492   8.731  10.352  0.0075 -0.0535 -0.0896
  498POPI    C3 7907  12.212   8.471  10.232 -0.0368 -0.0322 -0.0327
  498POPI   PO4 7908  12.546   8.829   9.882  0.0941 -0.3114  0.1646
  498POPI   GL1 7909  12.728   8.966   9.420 -0.0665  0.0814 -0.2207
  498POPI   GL2 7910  12.569   8.654   9.417  0.1284 -0.1020 -0.1749
  498POPI   C1A 7911  12.378   9.096   9.228 -0.2762 -0.3058 -0.2102
  498POPI   D2A 7912  12.147   9.070   8.844  0.1776  0.1797  0.1768
  498POPI   C3A 7913  12.095   8.703   8.809  0.1481 -0.6581 -0.3086
  498POPI   C4A 7914  11.831   8.300   8.847 -0.0441 -0.2957  0.1474
  498POPI   C1B 7915  12.491   8.615   9.033  0.1417  0.1439 -0.0150
  498POPI   C2B 7916  12.538   8.804   8.636  0.2487  0.0766 -0.1935
  498POPI   C3B 7917  12.312   8.971   8.248  0.0376 -0.0866 -0.2034
  498POPI   C4B 7918  12.085   8.959   7.807 -0.2293 -0.1937 -0.1906
  499POPI    C1 7919  10.348   6.955   9.885  0.1561 -0.2872  0.1852
  499POPI    C2 7920  10.533   7.307   9.923  0.0795 -0.1969 -0.2241
  499POPI    C3 7921  10.331   7.153  10.232 -0.0010  0.1834 -0.0815
  499POPI   PO4 7922  10.476   6.703   9.821 -0.3039 -0.0554  0.0149
  499POPI   GL1 7923  10.562   6.450   9.523  0.2062 -0.0768 -0.0395
  499POPI   GL2 7924  10.419   6.160   9.251  0.3040 -0.0257 -0.0412
  499POPI   C1A 7925  10.962   6.630   9.232  0.4956  0.0707 -0.0927
  499POPI   D2A 7926  11.112   6.960   9.225  0.1052 -0.1431  0.1202
  499POPI   C3A 7927  11.355   7.118   8.926 -0.1956  0.1104  0.0931
  499POPI   C4A 7928  11.318   7.197   8.578  0.2080  0.2603  0.3057
  499POPI   C1B 7929  10.596   6.228   8.875 -0.3096  0.0160  0.2334
  499POPI   C2B 7930  10.475   6.086   8.459 -0.4638  0.2475  0.1426
  499POPI   C3B 7931  10.676   6.143   8.015 -0.2725 -0.0409 -0.0720
  499POPI   C4B 7932  11.031   6.210   7.788 -0.0498  0.1138  0.1375
  500POPI    C1 7933  12.550  11.703  10.473 -0.0937  0.0096  0.0805
  500POPI    C2 7934  12.371  11.580  10.809 -0.1093 -0.1940 -0.0005
  500POPI    C3 7935  12.728  11.761  10.826 -0.2717  0.1195  0.1532
  500POPI   PO4 7936  12.422  11.501  10.265 -0.3519 -0.1160 -0.2751
  500POPI   GL1 7937  12.392  11.390   9.829  0.0905  0.1115 -0.0756
  500POPI   GL2 7938  12.677  11.476   9.573  0.0109  0.0552  0.0744
  500POPI   C1A 7939  12.182  11.222   9.511 -0.0033 -0.1094 -0.0053
  500POPI   D2A 7940  12.357  11.068   9.144  0.0632  0.1964 -0.1568
  500POPI   C3A 7941  12.413  11.337   8.821  0.3807 -0.0554 -0.0417
  500POPI   C4A 7942  12.561  11.605   8.458  0.0470 -0.0892  0.1806
  500POPI   C1B 7943  12.543  11.604   9.254  0.1809  0.0785  0.1249
  500POPI   C2B 7944  12.386  11.831   8.860 -0.0584  0.0965 -0.1637
  500POPI   C3B 7945  12.558  12.143   8.549 -0.0571  0.0848 -0.1767
  500POPI   C4B 7946  12.393  12.309   8.114 -0.2306  0.2205  0.1110
  501POPI    C1 7947  14.439  14.658   9.748  0.1746  0.1362  0.1000
  501POPI    C2 7948  14.371  14.396  10.042  0.0658 -0.0576 -0.0948
  501POPI    C3 7949  14.722  14.587  10.021  0.0678 -0.0286  0.1691
  501POPI   PO4 7950  14.403  14.521   9.529  0.1057  0.0406  0.0423
  501POPI   GL1 7951  14.529  14.329   9.274 -0.2233 -0.0416 -0.0380
  501POPI   GL2 7952  14.794  14.462   9.075 -0.1465  0.2436  0.3127
  501POPI   C1A 7953  14.378  14.245   8.961 -0.4109  0.0700  0.1578
  501POPI   D2A 7954  14.221  14.326   8.624 -0.2475 -0.0640 -0.2277
  501POPI   C3A 7955  14.442  14.268   8.196 -0.0884  0.1992 -0.1628
  501POPI   C4A 7956  14.567  13.900   8.112  0.2046 -0.2789  0.0535
  501POPI   C1B 7957  14.794  14.310   8.662  0.1898  0.0536  0.1128
  501POPI   C2B 7958  14.950  14.059   8.383 -0.1743  0.0739  0.0696
  501POPI   C3B 7959  15.194  14.024   8.001 -0.0962 -0.0602  0.0747
  501POPI   C4B 7960  15.293  14.133   7.514  0.0329 -0.0310  0.0980
  502POPI    C1 7961  15.638   1.063   9.923  0.0519 -0.0515 -0.2014
  502POPI    C2 7962  15.531   0.734  10.124 -0.4081  0.1290 -0.1397
  502POPI    C3 7963  15.578   1.081  10.318  0.2369  0.0746 -0.1778
  502POPI   PO4 7964  15.575   1.031   9.685  0.1351  0.1360 -0.0128
  502POPI   GL1 7965  15.817   0.876   9.317 -0.4617 -0.0428 -0.0981
  502POPI   GL2 7966  15.972   0.524   9.303 -0.1666 -0.0823 -0.0701
  502POPI   C1A 7967  15.839   0.888   8.957  0.1106  0.0489 -0.4046
  502POPI   D2A 7968  15.755   1.065   8.638 -0.0351 -0.0281  0.1025
  502POPI   C3A 7969  15.944   1.005   8.258 -0.0618 -0.0685  0.0029
  502POPI   C4A 7970  15.723   0.954   7.896  0.2155 -0.3009  0.1539
  502POPI   C1B 7971  15.839   0.293   8.970  0.0220 -0.1351 -0.1844
  502POPI   C2B 7972  16.058  -0.033   8.742 -0.2978 -0.0779 -0.2750
  502POPI   C3B 7973  16.290  -0.236   8.470  0.0599  0.3955 -0.1357
  502POPI   C4B 7974  16.367  -0.324   8.072 -0.0823  0.0012 -0.2092
  503POPI    C1 7975   6.263  17.920  10.553 -0.1599 -0.0121  0.1569
  503POPI    C2 7976   5.949  17.906  10.801 -0.1365 -0.0620  0.1841
  503POPI    C3 7977   6.235  18.181  10.855 -0.0917 -0.1236  0.2607
  503POPI   PO4 7978   6.178  17.953  10.279  0.2918 -0.2142  0.2837
  503POPI   GL1 7979   6.042  18.168   9.969  0.1935 -0.1877 -0.2402
  503POPI   GL2 7980   5.773  18.180   9.858  0.0490 -0.0536 -0.0559
  503POPI   C1A 7981   6.175  18.339   9.569  0.1749 -0.0355  0.1544
  503POPI   D2A 7982   6.100  18.290   9.094  0.0230 -0.2456 -0.0690
  503POPI   C3A 7983   5.911  18.212   8.713  0.0745  0.3132  0.1012
  503POPI   C4A 7984   5.497  18.255   8.444  0.0852 -0.3668  0.3746
  503POPI   C1B 7985   5.713  18.064   9.381  0.0333 -0.1142 -0.1147
  503POPI   C2B 7986   5.532  17.953   8.947  0.1208 -0.0312  0.2844
  503POPI   C3B 7987   5.433  17.710   8.559  0.1246 -0.1489 -0.3408
  503POPI   C4B 7988   5.445  17.471   8.162  0.1393  0.2157 -0.0060
  504POPI    C1 7989  11.392   4.942  10.091 -0.0115  0.3301 -0.1878
  504POPI    C2 7990  11.752   4.959  10.266 -0.0408 -0.1360 -0.0691
  504POPI    C3 7991  11.447   5.171  10.415  0.1222  0.0678 -0.0210
  504POPI   PO4 7992  11.462   4.810   9.866 -0.1899 -0.3062 -0.1439
  504POPI   GL1 7993  11.484   4.972   9.532  0.0613 -0.2289  0.0436
  504POPI   GL2 7994  11.578   4.708   9.413  0.1939  0.1395 -0.0221
  504POPI   C1A 7995  11.482   5.069   9.086  0.1279  0.1292  0.1405
  504POPI   D2A 7996  11.625   5.053   8.696 -0.3673  0.1077 -0.2156
  504POPI   C3A 7997  11.751   4.724   8.475  0.1190 -0.0511 -0.1298
  504POPI   C4A 7998  11.842   4.451   8.268  0.0921  0.1118 -0.0007
  504POPI   C1B 7999  11.535   4.512   8.989 -0.2141 -0.0331 -0.1587
  504POPI   C2B 8000  11.512   4.248   8.597 -0.0011 -0.0312 -0.1459
  504POPI   C3B 8001  11.489   4.099   8.109 -0.1120  0.0154 -0.2046
  504POPI   C4B 8002  11.534   4.087   7.641 -0.0055  0.1752  0.0441
  505POPI    C1 8003  18.490   0.260  10.441 -0.1550 -0.1350 -0.0566
  505POPI    C2 8004  18.512   0.371  10.825  0.0469  0.1171 -0.1377
  505POPI    C3 8005  18.193   0.168  10.693  0.1982 -0.4117  0.2712
  505POPI   PO4 8006  18.556   0.512  10.318 -0.0007 -0.1372 -0.0769
  505POPI   GL1 8007  18.525   0.729   9.872 -0.0229 -0.2704 -0.2598
  505POPI   GL2 8008  18.181   0.887   9.816 -0.0132 -0.2288  0.0687
  505POPI   C1A 8009  18.692   0.773   9.460 -0.0531  0.2082 -0.0226
  505POPI   D2A 8010  18.992   0.794   9.077 -0.0237 -0.2953 -0.0947
  505POPI   C3A 8011  19.036   0.563   8.721 -0.0684  0.2647 -0.1572
  505POPI   C4A 8012  19.000   0.444   8.227 -0.3448 -0.0216 -0.0804
  505POPI   C1B 8013  18.006   0.891   9.416 -0.0426  0.2143  0.1450
  505POPI   C2B 8014  18.143   0.645   9.077 -0.1653  0.3391  0.2163
  505POPI   C3B 8015  18.201   0.728   8.713  0.0794 -0.5181 -0.0602
  505POPI   C4B 8016  18.230   1.184   8.583 -0.0627 -0.3518 -0.3411
  506POPI    C1 8017  16.573   5.462   9.944  0.0516 -0.3198 -0.0657
  506POPI    C2 8018  16.964   5.514   9.876  0.0475  0.1094  0.2042
  506POPI    C3 8019  16.834   5.442  10.247 -0.1217 -0.1549  0.0966
  506POPI   PO4 8020  16.443   5.250   9.737  0.0694 -0.0564 -0.0258
  506POPI   GL1 8021  16.566   5.112   9.376 -0.0612 -0.1552 -0.0713
  506POPI   GL2 8022  16.533   4.821   9.158 -0.3096  0.0941 -0.1187
  506POPI   C1A 8023  16.634   5.315   8.992 -0.1441 -0.0718  0.0289
  506POPI   D2A 8024  16.855   5.548   8.689 -0.0713  0.1573 -0.0327
  506POPI   C3A 8025  16.993   5.861   8.374 -0.1440  0.3282 -0.3161
  506POPI   C4A 8026  16.969   6.117   8.030  0.1392  0.0595  0.0431
  506POPI   C1B 8027  16.788   4.691   8.856 -0.0434  0.2739 -0.1714
  506POPI   C2B 8028  16.928   4.395   8.631  0.1358 -0.1884 -0.1860
  506POPI   C3B 8029  17.252   4.254   8.328  0.2220 -0.0325 -0.0948
  506POPI   C4B 8030  17.361   4.289   7.930  0.1160 -0.1119  0.2703
  507POPI    C1 8031  18.004  18.886  10.047 -0.2282 -0.1733  0.0928
  507POPI    C2 8032  18.101  18.506  10.121 -0.0179 -0.0677  0.3773
  507POPI    C3 8033  18.262  18.799  10.339  0.1662  0.2179 -0.1265
  507POPI   PO4 8034  17.789  18.806   9.862  0.0123  0.3286 -0.2323
  507POPI   GL1 8035  17.788  18.931   9.446  0.1074 -0.1050  0.0083
  507POPI   GL2 8036  18.063  18.671   9.454  0.1240  0.1293 -0.3215
  507POPI   C1A 8037  17.959  19.128   9.021 -0.2464 -0.0952  0.1857
  507POPI   D2A 8038  18.148  19.198   8.616 -0.1427  0.2417  0.1420
  507POPI   C3A 8039  18.168  19.386   8.131  0.4986 -0.0656 -0.1484
  507POPI   C4A 8040  17.999  19.028   7.834 -0.2123 -0.1230  0.3249
  507POPI   C1B 8041  18.123  18.584   8.965  0.0728 -0.2379 -0.0871
  507POPI   C2B 8042  18.090  18.545   8.547  0.0275 -0.1254 -0.0499
  507POPI   C3B 8043  17.944  18.520   8.133 -0.3288  0.2431  0.0610
  507POPI   C4B 8044  17.619  18.709   7.850  0.2265  0.1727  0.0218
  508POPI    C1 8045   5.018  13.252   9.994 -0.0279  0.1187  0.1309
  508POPI    C2 8046   5.319  13.506  10.063  0.1090  0.0540 -0.2070
  508POPI    C3 8047   5.310  13.151  10.248  0.1214  0.1464 -0.0275
  508POPI   PO4 8048   4.743  13.402  10.081  0.0434  0.1212  0.0192
  508POPI   GL1 8049   4.458  13.554   9.746 -0.1512 -0.1006 -0.1628
  508POPI   GL2 8050   4.712  13.272   9.552  0.0504  0.0340 -0.2240
  508POPI   C1A 8051   4.272  13.837   9.491  0.0488 -0.0461 -0.2627
  508POPI   D2A 8052   3.989  14.076   9.160 -0.0205 -0.3094 -0.0226
  508POPI   C3A 8053   4.081  14.354   8.937  0.2606 -0.1496  0.0545
  508POPI   C4A 8054   4.157  14.339   8.451 -0.3954 -0.1459  0.2263
  508POPI   C1B 8055   4.726  13.554   9.284 -0.0154  0.1597 -0.0769
  508POPI   C2B 8056   4.900  13.576   8.898  0.1960  0.2285 -0.1879
  508POPI   C3B 8057   4.978  13.288   8.662  0.0422  0.0864 -0.1150
  508POPI   C4B 8058   5.112  12.896   8.554 -0.3069  0.0916  0.0987
  509POPI    C1 8059  17.310  18.095   9.953 -0.1202 -0.0965  0.1307
  509POPI    C2 8060  17.288  17.937  10.320  0.0754  0.2032  0.2753
  509POPI    C3 8061  17.023  18.214  10.204 -0.1234 -0.0531  0.1065
  509POPI   PO4 8062  17.363  17.904   9.837 -0.0371 -0.2519  0.0439
  509POPI   GL1 8063  17.484  17.902   9.391 -0.1660 -0.2572  0.1493
  509POPI   GL2 8064  17.268  18.167   9.324 -0.0887 -0.2614  0.2600
  509POPI   C1A 8065  17.824  17.646   9.164  0.0839  0.0329  0.2365
  509POPI   D2A 8066  17.869  17.616   8.663  0.0344 -0.1459 -0.0367
  509POPI   C3A 8067  17.872  17.647   8.308  0.3214  0.2033 -0.0636
  509POPI   C4A 8068  17.771  17.730   7.793  0.3895  0.1888  0.4257
  509POPI   C1B 8069  17.549  18.214   8.962  0.0951  0.0494  0.0624
  509POPI   C2B 8070  17.385  18.400   8.533 -0.1300 -0.0825  0.0887
  509POPI   C3B 8071  17.267  18.394   8.165 -0.1495  0.4442 -0.0771
  509POPI   C4B 8072  17.046  18.088   7.925  0.1758  0.1293 -0.1214
  510POPI    C1 8073  12.705  17.569   9.843  0.2143 -0.0108 -0.1350
  510POPI    C2 8074  12.707  17.962   9.917 -0.1082  0.0069 -0.2086
  510POPI    C3 8075  12.643  17.702  10.215 -0.0102  0.0149 -0.1804
  510POPI   PO4 8076  12.642  17.536   9.625 -0.2373  0.0914 -0.0606
  510POPI   GL1 8077  12.761  17.476   9.211 -0.0304 -0.0627 -0.1003
  510POPI   GL2 8078  13.073  17.596   9.142 -0.2412  0.3325  0.1455
  510POPI   C1A 8079  12.723  17.246   8.885 -0.3122  0.3240  0.3753
  510POPI   D2A 8080  12.734  17.037   8.453  0.1222  0.5067 -0.1359
  510POPI   C3A 8081  12.773  17.174   7.985 -0.1346 -0.0140 -0.0034
  510POPI   C4A 8082  12.980  17.568   7.695  0.3669  0.1160 -0.0277
  510POPI   C1B 8083  13.173  17.510   8.817 -0.1540  0.0765  0.2110
  510POPI   C2B 8084  13.432  17.663   8.535 -0.0448 -0.1058 -0.0470
  510POPI   C3B 8085  13.532  17.975   8.267 -0.3279  0.1908  0.1378
  510POPI   C4B 8086  13.839  17.905   7.811  0.0304 -0.0484 -0.0646
  511POPI    C1 8087  12.089   8.006  10.020  0.1107  0.1102 -0.0027
  511POPI    C2 8088  11.754   7.871  10.192  0.0756 -0.0596 -0.1993
  511POPI    C3 8089  12.082   7.642  10.185  0.2012  0.1094  0.0004
  511POPI   PO4 8090  11.970   8.031   9.721  0.1717  0.0264  0.0911
  511POPI   GL1 8091  11.764   7.858   9.305  0.0558  0.0629  0.0929
  511POPI   GL2 8092  11.472   8.051   9.456  0.4103 -0.0059  0.0354
  511POPI   C1A 8093  11.570   7.889   8.928 -0.0235  0.0729 -0.0520
  511POPI   D2A 8094  11.294   8.139   8.597 -0.2572  0.2371 -0.0956
  511POPI   C3A 8095  11.518   8.398   8.240  0.0030  0.0558 -0.0186
  511POPI   C4A 8096  11.758   8.079   7.916 -0.1164  0.0055  0.1560
  511POPI   C1B 8097  11.302   8.250   9.109  0.0004 -0.0781  0.0375
  511POPI   C2B 8098  11.372   8.577   8.841 -0.1808  0.2475 -0.1307
  511POPI   C3B 8099  11.332   8.779   8.463 -0.3434 -0.0653 -0.2848
  511POPI   C4B 8100  11.546   8.927   8.012 -0.1016  0.1354  0.0590
  512POPI    C1 8101  10.869   3.596   9.745 -0.0257  0.1426  0.0555
  512POPI    C2 8102  10.547   3.432   9.574 -0.0186 -0.0095  0.1855
  512POPI    C3 8103  10.567   3.463   9.972 -0.0586  0.3905  0.1598
  512POPI   PO4 8104  11.077   3.417   9.714  0.1559 -0.0541  0.1799
  512POPI   GL1 8105  11.078   3.126   9.376  0.1856  0.3777  0.0837
  512POPI   GL2 8106  11.152   3.477   9.213  0.3631 -0.0065 -0.0535
  512POPI   C1A 8107  10.682   3.334   9.165  0.0650  0.2838 -0.3185
  512POPI   D2A 8108  10.271   3.322   9.124 -0.0012  0.2214 -0.1472
  512POPI   C3A 8109   9.829   3.505   9.014 -0.0714 -0.2073 -0.0520
  512POPI   C4A 8110   9.639   3.517   8.624  0.0882  0.1145 -0.2301
  512POPI   C1B 8111  11.123   3.370   8.821  0.0344  0.4920 -0.0581
  512POPI   C2B 8112  10.856   3.593   8.333  0.3412  0.1148 -0.1267
  512POPI   C3B 8113  10.736   3.711   7.970 -0.1031 -0.0127 -0.1647
  512POPI   C4B 8114  10.437   3.608   7.663 -0.1603  0.0232  0.2828
  513POPI    C1 8115  15.425   8.332   9.850  0.3323 -0.0972 -0.1201
  513POPI    C2 8116  15.489   8.004  10.070 -0.0111 -0.1337 -0.0683
  513POPI    C3 8117  15.376   8.345  10.246  0.0671 -0.0640 -0.1519
  513POPI   PO4 8118  15.160   8.248   9.664 -0.1288  0.1230 -0.3522
  513POPI   GL1 8119  15.171   8.001   9.302 -0.0785  0.4868  0.1949
  513POPI   GL2 8120  15.336   8.205   9.187  0.1429  0.0806 -0.1548
  513POPI   C1A 8121  15.115   7.817   8.905 -0.0128 -0.3823  0.0091
  513POPI   D2A 8122  15.141   7.642   8.555  0.2450 -0.2203 -0.2144
  513POPI   C3A 8123  15.020   7.299   8.384  0.2610  0.0505  0.0206
  513POPI   C4A 8124  15.103   6.971   8.117  0.0919  0.0222 -0.1974
  513POPI   C1B 8125  15.389   8.159   8.693  0.0722 -0.2978 -0.2484
  513POPI   C2B 8126  15.316   8.032   8.284 -0.0098 -0.2692 -0.0428
  513POPI   C3B 8127  15.599   8.251   7.925  0.0745 -0.0101 -0.0673
  513POPI   C4B 8128  15.936   8.471   7.689  0.0830  0.2493  0.3152
  514POPI    C1 8129  12.753  10.106  10.193 -0.1629  0.1537 -0.0484
  514POPI    C2 8130  13.119  10.127  10.353 -0.0136 -0.0784 -0.3503
  514POPI    C3 8131  12.830  10.372  10.482  0.1853 -0.0457  0.0476
  514POPI   PO4 8132  12.794  10.096   9.977  0.0871 -0.1010 -0.0395
  514POPI   GL1 8133  12.588   9.821   9.534 -0.2366 -0.3550  0.0638
  514POPI   GL2 8134  12.710   9.489   9.359  0.0110 -0.0978 -0.2417
  514POPI   C1A 8135  12.817   9.969   9.197  0.3897 -0.1601 -0.0462
  514POPI   D2A 8136  13.288   9.909   9.160  0.1687 -0.0394  0.2539
  514POPI   C3A 8137  13.388   9.878   8.654 -0.0923 -0.0131  0.2055
  514POPI   C4A 8138  13.135  10.192   8.340  0.1417 -0.1041 -0.0348
  514POPI   C1B 8139  12.880   9.394   8.969  0.3286  0.1617  0.3886
  514POPI   C2B 8140  12.974   9.187   8.631 -0.4592 -0.1394  0.2127
  514POPI   C3B 8141  12.816   8.991   8.272  0.0859 -0.1400 -0.1267
  514POPI   C4B 8142  12.926   8.949   7.837 -0.6010 -0.1396  0.3431
  515POPI    C1 8143  12.524   2.858  10.330 -0.2737  0.1021 -0.0956
  515POPI    C2 8144  12.859   2.985  10.508 -0.1390 -0.2064 -0.1244
  515POPI    C3 8145  12.541   2.883  10.729 -0.2107  0.0714 -0.0963
  515POPI   PO4 8146  12.642   2.742  10.114 -0.0920 -0.1741  0.0227
  515POPI   GL1 8147  12.558   2.687   9.684  0.1957 -0.4185 -0.0246
  515POPI   GL2 8148  12.633   2.357   9.439 -0.2423 -0.0862 -0.2571
  515POPI   C1A 8149  12.467   2.839   9.334 -0.1197  0.1397 -0.0144
  515POPI   D2A 8150  12.347   2.694   9.032 -0.2046  0.0049  0.1700
  515POPI   C3A 8151  12.115   2.706   8.710 -0.1840 -0.1548  0.1180
  515POPI   C4A 8152  12.138   2.695   8.271  0.1067 -0.0333 -0.2557
  515POPI   C1B 8153  12.743   2.162   9.015 -0.1180  0.2423  0.0055
  515POPI   C2B 8154  12.911   2.007   8.549 -0.0345  0.2903 -0.0525
  515POPI   C3B 8155  12.844   2.013   8.180 -0.1162 -0.1060  0.2211
  515POPI   C4B 8156  12.999   1.802   7.781 -0.1259 -0.2467  0.0081
  516POPI    C1 8157   6.513  16.870   9.910 -0.2333  0.0000  0.0940
  516POPI    C2 8158   6.331  16.983  10.248 -0.2359  0.1940  0.0289
  516POPI    C3 8159   6.208  16.656  10.055 -0.1433  0.0019  0.2894
  516POPI   PO4 8160   6.494  17.192   9.771 -0.3047  0.4806  0.0483
  516POPI   GL1 8161   6.336  17.297   9.475  0.0035  0.1261  0.2080
  516POPI   GL2 8162   6.664  17.436   9.385 -0.2004  0.1936  0.2419
  516POPI   C1A 8163   6.089  17.262   9.085  0.0454 -0.0102  0.1402
  516POPI   D2A 8164   6.331  17.326   8.814  0.4554  0.0375 -0.2553
  516POPI   C3A 8165   6.371  17.622   8.500 -0.1059  0.1422  0.1036
  516POPI   C4A 8166   6.384  17.957   8.413  0.2252 -0.1432 -0.0262
  516POPI   C1B 8167   6.806  17.372   8.951  0.1323 -0.5145 -0.1989
  516POPI   C2B 8168   6.916  17.475   8.435 -0.1159  0.1806  0.1437
  516POPI   C3B 8169   7.205  17.524   8.103 -0.2267 -0.2238  0.2659
  516POPI   C4B 8170   7.145  17.373   7.666  0.0068 -0.2081 -0.0475
  517POPI    C1 8171  10.737  18.735  10.001 -0.0440  0.1477  0.1792
  517POPI    C2 8172  11.121  18.680  10.096  0.0309  0.0748 -0.1531
  517POPI    C3 8173  11.008  19.015   9.909 -0.1091  0.2041  0.1573
  517POPI   PO4 8174  10.603  18.629   9.810 -0.0745  0.0807 -0.2185
  517POPI   GL1 8175  10.544  18.300   9.577  0.2527  0.2112  0.0521
  517POPI   GL2 8176  10.550  17.957   9.422  0.2581 -0.1544 -0.2447
  517POPI   C1A 8177  10.847  18.421   9.294 -0.0912  0.0750 -0.2938
  517POPI   D2A 8178  10.842  18.372   8.860 -0.0998  0.1839  0.0926
  517POPI   C3A 8179  10.864  18.558   8.443 -0.2147 -0.0183  0.2505
  517POPI   C4A 8180  10.747  18.617   7.963  0.1515 -0.0982  0.0926
  517POPI   C1B 8181  10.499  17.977   9.033  0.0314 -0.2478 -0.2589
  517POPI   C2B 8182  10.577  18.084   8.567  0.0500  0.0656 -0.0300
  517POPI   C3B 8183  10.568  18.212   8.157 -0.1266  0.0137  0.1542
  517POPI   C4B 8184  10.606  18.036   7.746  0.1758  0.1851 -0.1362
  518POPI    C1 8185  18.464   7.312  10.241  0.1768 -0.1361  0.0661
  518POPI    C2 8186  18.675   7.368  10.577  0.0703  0.2843  0.0676
  518POPI    C3 8187  18.275   7.358  10.590  0.0714  0.0878 -0.0185
  518POPI   PO4 8188  18.671   7.212  10.103 -0.1700 -0.1215 -0.0858
  518POPI   GL1 8189  18.807   7.153   9.717 -0.0915 -0.0698  0.1400
  518POPI   GL2 8190  18.717   6.878   9.618 -0.0943 -0.0639 -0.0918
  518POPI   C1A 8191  19.228   6.935   9.578  0.4782  0.1101  0.0481
  518POPI   D2A 8192  19.492   6.938   9.315  0.1169 -0.1254 -0.1305
  518POPI   C3A 8193  19.409   7.073   8.886  0.2549  0.1668  0.0445
  518POPI   C4A 8194  19.290   7.006   8.459  0.0289  0.0603  0.1993
  518POPI   C1B 8195  18.798   6.837   9.238  0.0622  0.0794  0.0278
  518POPI   C2B 8196  18.573   6.799   8.841 -0.0807  0.2498 -0.1539
  518POPI   C3B 8197  18.613   6.833   8.336  0.0114 -0.1407 -0.0065
  518POPI   C4B 8198  18.619   7.096   7.867 -0.0511 -0.0209  0.3403
  519POPI    C1 8199   9.022  15.795  10.188  0.1630 -0.2098 -0.1699
  519POPI    C2 8200   9.025  15.773  10.588 -0.0248  0.3519 -0.1290
  519POPI    C3 8201   9.320  15.963  10.396  0.0345  0.1336 -0.2573
  519POPI   PO4 8202   8.968  15.546  10.073  0.0967 -0.1007  0.0139
  519POPI   GL1 8203   9.175  15.607   9.759 -0.0439 -0.1077  0.0541
  519POPI   GL2 8204   9.156  15.870   9.601  0.0485  0.0149  0.0955
  519POPI   C1A 8205   9.130  15.320   9.280  0.1201  0.0419  0.0184
  519POPI   D2A 8206   9.349  15.250   8.907 -0.4081 -0.0433  0.2494
  519POPI   C3A 8207   9.314  15.470   8.516 -0.1023  0.0252  0.0694
  519POPI   C4A 8208   9.509  15.817   8.286 -0.0753 -0.4922  0.3017
  519POPI   C1B 8209   9.281  15.876   9.231 -0.3094 -0.0565 -0.2571
  519POPI   C2B 8210   9.493  15.851   8.779 -0.1431 -0.0275  0.0460
  519POPI   C3B 8211   9.887  15.986   8.661  0.0959 -0.1811 -0.3855
  519POPI   C4B 8212  10.177  15.999   8.353 -0.3618 -0.0672 -0.1642
  520POPI    C1 8213   9.192  16.448  10.381 -0.1178  0.1503 -0.1196
  520POPI    C2 8214   8.862  16.221  10.383 -0.2116  0.2854  0.0393
  520POPI    C3 8215   8.976  16.410  10.716  0.0698  0.1791  0.0059
  520POPI   PO4 8216   9.114  16.730  10.077  0.0820  0.0466 -0.0117
  520POPI   GL1 8217   8.954  16.722   9.648  0.0476 -0.0356 -0.0325
  520POPI   GL2 8218   9.178  16.787   9.497  0.2631  0.1240 -0.1257
  520POPI   C1A 8219   8.761  17.071   9.478 -0.1082  0.1000  0.1126
  520POPI   D2A 8220   8.760  17.195   9.033  0.2721 -0.0046 -0.0030
  520POPI   C3A 8221   8.867  17.722   8.970  0.4099  0.0627 -0.0981
  520POPI   C4A 8222   8.977  18.082   9.119 -0.2205  0.0313  0.0548
  520POPI   C1B 8223   9.066  16.805   9.044 -0.3127 -0.1484 -0.5165
  520POPI   C2B 8224   9.089  16.946   8.627  0.0384 -0.0044  0.0771
  520POPI   C3B 8225   9.047  17.055   8.161  0.2290 -0.1276  0.1727
  520POPI   C4B 8226   9.313  17.199   7.921  0.0147  0.2198  0.1084
  521POPI    C1 8227   2.381   3.899  10.339  0.0910 -0.2165  0.0301
  521POPI    C2 8228   2.019   4.053  10.268  0.0354 -0.3561  0.0081
  521POPI    C3 8229   2.241   4.196  10.568  0.2418  0.1890 -0.3868
  521POPI   PO4 8230   2.467   3.768  10.042  0.1273 -0.1300 -0.1242
  521POPI   GL1 8231   2.333   3.483   9.807  0.1091 -0.0459  0.0909
  521POPI   GL2 8232   2.126   3.289   9.520  0.0524  0.0289  0.0300
  521POPI   C1A 8233   2.621   3.390   9.518 -0.0913 -0.0456 -0.2219
  521POPI   D2A 8234   2.863   3.617   9.258 -0.1314 -0.1220  0.1250
  521POPI   C3A 8235   2.900   3.535   8.840 -0.2387  0.0788  0.1422
  521POPI   C4A 8236   3.063   3.385   8.458  0.0515  0.1927  0.2335
  521POPI   C1B 8237   2.211   3.596   9.215  0.1050  0.2223  0.0617
  521POPI   C2B 8238   1.947   3.683   8.933  0.0166 -0.1685 -0.0687
  521POPI   C3B 8239   1.989   3.675   8.450 -0.0099 -0.0941  0.0023
  521POPI   C4B 8240   1.699   3.595   8.169  0.0089  0.1084  0.0740
  522POPI    C1 8241   7.208   0.908  10.503 -0.1744  0.1707 -0.2196
  522POPI    C2 8242   7.258   0.958  10.896 -0.0344 -0.2981 -0.1719
  522POPI    C3 8243   6.895   1.001  10.734 -0.0025  0.4249 -0.0847
  522POPI   PO4 8244   7.507   0.733  10.393 -0.0032  0.0053  0.1649
  522POPI   GL1 8245   7.824   0.791   9.977  0.1197  0.1272 -0.0107
  522POPI   GL2 8246   7.831   1.087  10.230 -0.0733 -0.1487 -0.0839
  522POPI   C1A 8247   7.795   0.546   9.687  0.1507  0.0680  0.3985
  522POPI   D2A 8248   7.686   0.363   9.322 -0.1467  0.1370  0.0184
  522POPI   C3A 8249   7.634   0.472   8.920  0.0746  0.1969 -0.0721
  522POPI   C4A 8250   7.349   0.343   8.604 -0.0865  0.0354 -0.0285
  522POPI   C1B 8251   7.764   1.158   9.668  0.0973  0.0915 -0.0441
  522POPI   C2B 8252   7.701   0.919   9.283  0.0099 -0.0805 -0.0391
  522POPI   C3B 8253   7.706   0.957   8.776  0.0434 -0.4830 -0.0439
  522POPI   C4B 8254   7.410   0.862   8.420  0.2875  0.0640  0.1511
  523POPI    C1 8255   0.093   1.626  10.325 -0.2628 -0.0769 -0.0967
  523POPI    C2 8256  -0.112   1.680  10.664 -0.0079  0.0883  0.0346
  523POPI    C3 8257   0.266   1.548  10.677 -0.0881 -0.1748 -0.2025
  523POPI   PO4 8258   0.038   1.845  10.190 -0.0005  0.1530  0.3498
  523POPI   GL1 8259   0.111   2.013   9.768  0.0651  0.0235  0.0130
  523POPI   GL2 8260   0.009   1.833   9.504  0.1437 -0.0849  0.1987
  523POPI   C1A 8261   0.062   2.224   9.282  0.0871 -0.1564 -0.1008
  523POPI   D2A 8262   0.127   2.392   8.953  0.0692 -0.1187 -0.1204
  523POPI   C3A 8263   0.395   2.438   8.532 -0.3586 -0.0649 -0.1521
  523POPI   C4A 8264   0.429   2.478   8.155 -0.3274  0.1769 -0.0280
  523POPI   C1B 8265   0.062   1.842   8.978  0.1114  0.2147  0.1161
  523POPI   C2B 8266   0.086   1.890   8.629  0.1035 -0.0002 -0.2354
  523POPI   C3B 8267   0.125   2.026   8.191  0.2163 -0.0684 -0.1023
  523POPI   C4B 8268  -0.067   2.030   7.801 -0.0953 -0.0909  0.0726
  524DPPI    C1 8269   5.577  18.570  10.549  0.0469 -0.0675 -0.0600
  524DPPI    C2 8270   5.361  18.307  10.758 -0.2373  0.2737  0.0875
  524DPPI    C3 8271   5.746  18.366  10.848 -0.1686 -0.0913  0.0479
  524DPPI   PO4 8272   5.558  18.523  10.265 -0.0082 -0.1184  0.0646
  524DPPI   GL1 8273   5.764  18.702   9.935  0.1687  0.1913  0.1979
  524DPPI   GL2 8274   5.867  18.854  10.024  0.3038 -0.4433  0.2871
  524DPPI   C1A 8275   5.657  18.691   9.483 -0.2164  0.2844  0.0832
  524DPPI   C2A 8276   5.615  18.485   9.100 -0.0580 -0.0649  0.0650
  524DPPI   C3A 8277   5.439  18.624   8.824 -0.1259  0.0519 -0.1468
  524DPPI   C4A 8278   5.136  18.553   8.566 -0.0435  0.0171  0.1663
  524DPPI   C1B 8279   6.290  18.687  10.004 -0.1271 -0.1034  0.2570
  524DPPI   C2B 8280   6.612  18.735   9.710  0.0278 -0.1741  0.2498
  524DPPI   C3B 8281   6.548  18.957   9.330 -0.0559  0.1781  0.1030
  524DPPI   C4B 8282   6.490  18.960   8.840 -0.0539  0.0842  0.1332
  525DPPI    C1 8283  14.607   4.140   9.971  0.0464  0.1402 -0.0705
  525DPPI    C2 8284  14.855   3.937  10.211 -0.1831 -0.1155 -0.0454
  525DPPI    C3 8285  14.548   4.141  10.367 -0.1107  0.0307 -0.0928
  525DPPI   PO4 8286  14.599   4.016   9.681 -0.0622  0.2409 -0.0977
  525DPPI   GL1 8287  14.434   4.053   9.315 -0.0743 -0.0675 -0.0397
  525DPPI   GL2 8288  14.403   4.389   9.220 -0.0131 -0.1621  0.3405
  525DPPI   C1A 8289  14.711   4.115   8.982  0.0963 -0.2362  0.3155
  525DPPI   C2A 8290  14.670   4.111   8.560 -0.0231  0.2969  0.2902
  525DPPI   C3A 8291  14.666   4.004   8.109  0.0187  0.1894  0.1607
  525DPPI   C4A 8292  14.962   4.046   7.673 -0.0649 -0.1287  0.0933
  525DPPI   C1B 8293  14.180   4.235   8.887  0.4683  0.2016  0.1650
  525DPPI   C2B 8294  14.189   4.134   8.425 -0.0309 -0.0468  0.1526
  525DPPI   C3B 8295  14.205   3.943   7.976 -0.1385 -0.0766  0.1413
  525DPPI   C4B 8296  14.407   4.050   7.657  0.0513 -0.2290  0.1463
  526DPPI    C1 8297   4.371  17.133  10.220  0.0226  0.0827 -0.1200
  526DPPI    C2 8298   4.587  17.048  10.545  0.1547 -0.0134 -0.2315
  526DPPI    C3 8299   4.367  17.381  10.533  0.0994 -0.0407 -0.0200
  526DPPI   PO4 8300   4.584  17.031  10.000 -0.1306  0.1335  0.3366
  526DPPI   GL1 8301   4.993  16.929   9.693 -0.0452  0.0397 -0.1798
  526DPPI   GL2 8302   4.825  16.770   9.568 -0.0007  0.0407  0.0604
  526DPPI   C1A 8303   5.271  16.959   9.236 -0.2062  0.1275  0.1384
  526DPPI   C2A 8304   5.304  17.003   8.813 -0.0951  0.3053  0.3221
  526DPPI   C3A 8305   5.424  17.024   8.412 -0.2195 -0.1381 -0.2533
  526DPPI   C4A 8306   5.560  17.000   7.925  0.0949  0.1164 -0.1368
  526DPPI   C1B 8307   4.979  16.524   9.235  0.1297 -0.1891  0.0696
  526DPPI   C2B 8308   5.087  16.342   8.873 -0.0540 -0.2042  0.2673
  526DPPI   C3B 8309   5.249  16.164   8.467 -0.0922 -0.0168  0.0185
  526DPPI   C4B 8310   5.406  15.915   8.261 -0.3915 -0.1491 -0.0022
  527DPPI    C1 8311   6.273   0.971  10.269  0.2552 -0.0915  0.0972
  527DPPI    C2 8312   6.617   1.164  10.333  0.2503 -0.0869  0.1098
  527DPPI    C3 8313   6.395   1.043  10.643  0.0976  0.1653  0.1012
  527DPPI   PO4 8314   6.310   0.847  10.150  0.0664 -0.2610 -0.0748
  527DPPI   GL1 8315   6.540   0.637   9.815 -0.1595  0.1379  0.1995
  527DPPI   GL2 8316   6.386   0.862   9.640 -0.1778 -0.1820  0.1828
  527DPPI   C1A 8317   6.535   0.479   9.372 -0.2903 -0.0210  0.0747
  527DPPI   C2A 8318   6.745   0.446   8.951 -0.2048  0.0170 -0.2035
  527DPPI   C3A 8319   6.882   0.208   8.630  0.1432  0.1764  0.1168
  527DPPI   C4A 8320   7.239  -0.147   8.476 -0.0041 -0.0819  0.0268
  527DPPI   C1B 8321   6.198   0.875   9.205  0.0495  0.0175 -0.1415
  527DPPI   C2B 8322   6.085   0.934   8.848  0.0331 -0.0591  0.0600
  527DPPI   C3B 8323   5.985   0.894   8.467 -0.0438 -0.3269  0.1891
  527DPPI   C4B 8324   5.786   0.566   8.367  0.3008  0.0891  0.0277
  528DPPI    C1 8325  11.656  16.090   9.884  0.0890 -0.1253  0.2933
  528DPPI    C2 8326  11.952  16.079  10.153  0.2104  0.1020  0.1727
  528DPPI    C3 8327  11.663  16.353  10.186  0.1429  0.0329  0.1563
  528DPPI   PO4 8328  11.666  15.996   9.717 -0.1223  0.0638  0.0524
  528DPPI   GL1 8329  11.288  16.066   9.411 -0.0769  0.0401 -0.2202
  528DPPI   GL2 8330  11.285  16.295   9.297  0.2719  0.3262 -0.0191
  528DPPI   C1A 8331  11.011  15.818   9.219 -0.0025 -0.3060  0.1174
  528DPPI   C2A 8332  10.913  15.771   8.744  0.3984  0.0557 -0.2483
  528DPPI   C3A 8333  10.948  15.872   8.306  0.0278  0.1674  0.3337
  528DPPI   C4A 8334  10.783  15.768   7.908 -0.0766 -0.1599 -0.0923
  528DPPI   C1B 8335  11.036  16.258   8.986  0.0386 -0.1412  0.0859
  528DPPI   C2B 8336  10.860  16.270   8.533 -0.1324 -0.2890 -0.2500
  528DPPI   C3B 8337  10.603  16.404   8.167  0.0391  0.1096  0.1499
  528DPPI   C4B 8338  10.526  16.589   7.880 -0.0001  0.2226  0.1589
  529DPPI    C1 8339   2.260   8.519  10.404 -0.0380 -0.2732  0.3013
  529DPPI    C2 8340   2.328   8.808  10.672 -0.1000  0.1565 -0.1321
  529DPPI    C3 8341   2.136   8.475  10.782 -0.3042  0.4101  0.3082
  529DPPI   PO4 8342   2.155   8.568  10.240  0.2508 -0.0653 -0.1784
  529DPPI   GL1 8343   2.293   8.584   9.806  0.0504  0.0692 -0.1833
  529DPPI   GL2 8344   1.959   8.545   9.641  0.0467 -0.0801 -0.1840
  529DPPI   C1A 8345   2.403   8.613   9.380 -0.0942  0.1771  0.2849
  529DPPI   C2A 8346   2.349   8.516   8.950 -0.1435 -0.0223  0.3432
  529DPPI   C3A 8347   2.075   8.359   8.546 -0.0591 -0.2914  0.0101
  529DPPI   C4A 8348   1.882   8.285   8.171 -0.1066 -0.0487 -0.0124
  529DPPI   C1B 8349   1.915   8.471   9.199 -0.0045  0.2611  0.2313
  529DPPI   C2B 8350   1.655   8.442   8.813  0.0375 -0.2061  0.1085
  529DPPI   C3B 8351   1.352   8.312   8.510 -0.1213  0.0187  0.2395
  529DPPI   C4B 8352   1.030   8.214   8.166 -0.2429  0.1155  0.0739
  530DPPI    C1 8353  11.838   3.501   9.966  0.0413  0.0998  0.2932
  530DPPI    C2 8354  11.738   3.133  10.086 -0.0399 -0.0525 -0.2165
  530DPPI    C3 8355  11.455   3.413  10.041 -0.0083  0.0073 -0.0491
  530DPPI   PO4 8356  11.936   3.499   9.752  0.2839 -0.1464  0.1746
  530DPPI   GL1 8357  12.316   3.687   9.551 -0.0125 -0.2027 -0.0114
  530DPPI   GL2 8358  12.371   3.456   9.480  0.2889 -0.0468  0.0163
  530DPPI   C1A 8359  12.137   3.694   9.130  0.1337  0.1356  0.3167
  530DPPI   C2A 8360  12.325   3.603   8.776 -0.1068 -0.0744 -0.0331
  530DPPI   C3A 8361  12.308   3.771   8.473 -0.1115  0.1876 -0.2342
  530DPPI   C4A 8362  12.456   3.625   8.063  0.1335 -0.1113 -0.0116
  530DPPI   C1B 8363  12.558   3.365   9.189  0.2573  0.0464  0.1877
  530DPPI   C2B 8364  12.516   3.090   8.791  0.0992 -0.1905  0.1049
  530DPPI   C3B 8365  12.545   2.897   8.415  0.0142 -0.3517 -0.1250
  530DPPI   C4B 8366  12.635   3.142   8.085 -0.0865  0.1697  0.1186
  531DPPI    C1 8367  14.925   7.265  10.037 -0.0903  0.1891  0.0742
  531DPPI    C2 8368  14.624   7.095  10.238  0.0392  0.1283  0.2197
  531DPPI    C3 8369  14.984   6.922  10.234  0.0824  0.2195  0.0774
  531DPPI   PO4 8370  14.875   7.298   9.849 -0.2031 -0.0763  0.0990
  531DPPI   GL1 8371  14.841   7.149   9.522 -0.0267  0.1458 -0.3411
  531DPPI   GL2 8372  15.021   7.011   9.372  0.3203 -0.0721 -0.0998
  531DPPI   C1A 8373  14.530   7.102   9.176 -0.1931 -0.1887  0.0918
  531DPPI   C2A 8374  14.628   7.155   8.721 -0.2869  0.1378 -0.0055
  531DPPI   C3A 8375  14.554   7.008   8.310  0.1503 -0.0708 -0.0245
  531DPPI   C4A 8376  14.693   7.203   7.895 -0.1355 -0.3079 -0.0284
  531DPPI   C1B 8377  14.839   6.721   9.105  0.0370  0.1845  0.3836
  531DPPI   C2B 8378  14.677   6.645   8.747 -0.1272  0.5868 -0.1297
  531DPPI   C3B 8379  14.991   6.521   8.420  0.2068 -0.1852 -0.2073
  531DPPI   C4B 8380  15.067   6.145   8.110 -0.0949 -0.1433  0.1004
  532DPPI    C1 8381   3.958  14.546   9.796  0.0137  0.1513  0.0236
  532DPPI    C2 8382   3.792  14.823  10.031  0.1229  0.1139  0.1460
  532DPPI    C3 8383   3.645  14.452  10.026 -0.1104  0.2064 -0.1212
  532DPPI   PO4 8384   4.243  14.413   9.914  0.3182 -0.0975  0.1943
  532DPPI   GL1 8385   4.437  14.313   9.542  0.0753 -0.2574 -0.0922
  532DPPI   GL2 8386   4.682  14.088   9.498  0.0519  0.0560 -0.0669
  532DPPI   C1A 8387   4.530  14.616   9.211  0.0213 -0.3777 -0.2163
  532DPPI   C2A 8388   4.645  14.926   8.899 -0.1178  0.0364  0.0448
  532DPPI   C3A 8389   4.664  14.965   8.441 -0.0171  0.2320 -0.0607
  532DPPI   C4A 8390   4.850  15.147   8.049  0.2756  0.1678 -0.1512
  532DPPI   C1B 8391   4.536  14.117   9.066  0.3869 -0.1444 -0.0670
  532DPPI   C2B 8392   4.574  14.470   8.765  0.0841  0.0714  0.2478
  532DPPI   C3B 8393   4.664  14.394   8.364 -0.0700 -0.0365 -0.2592
  532DPPI   C4B 8394   4.879  14.214   8.054 -0.2944 -0.0484 -0.1240
  533DPPI    C1 8395  13.223  10.618  10.354  0.1492  0.0534 -0.2867
  533DPPI    C2 8396  12.949  10.909  10.357 -0.0711 -0.1508 -0.0055
  533DPPI    C3 8397  13.209  10.876  10.659  0.1371 -0.0794 -0.1739
  533DPPI   PO4 8398  13.235  10.629  10.042 -0.1221  0.0746  0.1036
  533DPPI   GL1 8399  13.268  10.812   9.687 -0.0524 -0.1451 -0.0542
  533DPPI   GL2 8400  12.966  11.055   9.833 -0.1346  0.0674  0.0323
  533DPPI   C1A 8401  13.414  10.913   9.257  0.3424  0.0838  0.0525
  533DPPI   C2A 8402  13.244  10.737   8.822 -0.0924 -0.0234 -0.0312
  533DPPI   C3A 8403  13.074  10.725   8.452  0.0016  0.0954 -0.0256
  533DPPI   C4A 8404  12.855  10.541   8.020 -0.3362  0.0373  0.0703
  533DPPI   C1B 8405  12.764  10.808   9.534 -0.3018 -0.3229 -0.1708
  533DPPI   C2B 8406  12.742  10.657   9.199  0.0890  0.0523  0.1931
  533DPPI   C3B 8407  12.654  10.691   8.774  0.1325  0.1347 -0.0564
  533DPPI   C4B 8408  12.536  10.676   8.371  0.0252  0.0279  0.0642
  534DPPI    C1 8409  16.531  17.178   9.809  0.2311 -0.1627  0.0350
  534DPPI    C2 8410  16.535  17.367  10.162  0.0579 -0.0613 -0.0163
  534DPPI    C3 8411  16.224  17.136  10.062 -0.0433  0.1652 -0.2350
  534DPPI   PO4 8412  16.636  17.452   9.689  0.0982  0.2386 -0.0501
  534DPPI   GL1 8413  16.631  17.543   9.315 -0.0631 -0.1034  0.3561
  534DPPI   GL2 8414  16.930  17.650   9.162 -0.1329 -0.3192 -0.2708
  534DPPI   C1A 8415  16.586  17.181   8.990  0.1178 -0.0245 -0.3371
  534DPPI   C2A 8416  16.467  17.094   8.596  0.0746  0.1713  0.2361
  534DPPI   C3A 8417  16.550  17.295   8.159  0.0692  0.3447  0.1345
  534DPPI   C4A 8418  16.831  17.675   8.081 -0.0713 -0.1659 -0.0032
  534DPPI   C1B 8419  16.933  17.506   8.667  0.1686 -0.0915  0.0318
  534DPPI   C2B 8420  16.932  17.064   8.443  0.0249 -0.2270  0.0813
  534DPPI   C3B 8421  16.805  16.658   8.448  0.1270  0.1871  0.1266
  534DPPI   C4B 8422  16.713  16.367   8.821 -0.1173  0.1932 -0.1554
  535DPPI    C1 8423   8.153   0.085  10.376 -0.0856  0.0874  0.0665
  535DPPI    C2 8424   7.897  -0.194  10.246 -0.0260  0.1033 -0.0864
  535DPPI    C3 8425   7.808   0.022  10.570 -0.0432 -0.1374  0.0718
  535DPPI   PO4 8426   8.194   0.261  10.211 -0.0407  0.3140  0.0493
  535DPPI   GL1 8427   8.220   0.440   9.889 -0.2685  0.0059  0.0392
  535DPPI   GL2 8428   8.296   0.778   9.821  0.4014 -0.0653  0.0603
  535DPPI   C1A 8429   8.360   0.349   9.504  0.0398  0.3594  0.2532
  535DPPI   C2A 8430   8.473  -0.130   9.417  0.0112 -0.1244  0.2986
  535DPPI   C3A 8431   8.624  -0.516   9.225  0.0155  0.2875  0.1753
  535DPPI   C4A 8432   8.476  -0.941   9.151 -0.1837 -0.0785 -0.0005
  535DPPI   C1B 8433   8.148   0.795   9.385 -0.1737 -0.0928  0.0691
  535DPPI   C2B 8434   8.103   0.692   9.060  0.0707  0.2663 -0.0095
  535DPPI   C3B 8435   8.009   0.464   8.600 -0.0214  0.2622  0.0967
  535DPPI   C4B 8436   7.727   0.482   8.249 -0.0673 -0.1070  0.1259
  536DPPI    C1 8437   2.004  11.677  10.450 -0.1439  0.2109  0.1087
  536DPPI    C2 8438   2.043  11.868  10.799  0.1406  0.2135  0.0777
  536DPPI    C3 8439   2.301  11.579  10.699 -0.2379 -0.1378  0.0891
  536DPPI   PO4 8440   1.864  11.822  10.252 -0.1668 -0.0709 -0.0153
  536DPPI   GL1 8441   1.426  11.855  10.020  0.0813  0.2189  0.1001
  536DPPI   GL2 8442   1.434  12.331  10.049  0.0895 -0.0823  0.0877
  536DPPI   C1A 8443   1.441  11.867   9.586  0.1820 -0.0389 -0.3166
  536DPPI   C2A 8444   1.630  11.672   9.290 -0.1276  0.1522  0.0407
  536DPPI   C3A 8445   1.735  11.568   8.911  0.2183  0.4203 -0.1545
  536DPPI   C4A 8446   2.022  11.510   8.514  0.1718 -0.0599  0.1929
  536DPPI   C1B 8447   1.352  12.323   9.666  0.0851 -0.0916  0.0239
  536DPPI   C2B 8448   1.458  12.192   9.248  0.3193  0.2849  0.0390
  536DPPI   C3B 8449   1.532  12.146   8.825 -0.0466  0.2107 -0.1367
  536DPPI   C4B 8450   1.596  11.888   8.508  0.0700 -0.2068  0.4029
  537DPPI    C1 8451   8.374   7.416  10.483  0.0385 -0.0905 -0.0053
  537DPPI    C2 8452   8.431   7.632  10.814 -0.0688 -0.1170  0.0309
  537DPPI    C3 8453   8.724   7.397  10.676 -0.0191 -0.0956  0.0994
  537DPPI   PO4 8454   8.403   7.490  10.206  0.1927  0.3491 -0.0702
  537DPPI   GL1 8455   8.468   7.699   9.845 -0.0885 -0.1035 -0.0202
  537DPPI   GL2 8456   8.629   7.985   9.891  0.1363  0.2285 -0.2218
  537DPPI   C1A 8457   8.334   7.724   9.482  0.2115  0.1162  0.0667
  537DPPI   C2A 8458   8.241   7.630   8.970 -0.1105  0.1644  0.2514
  537DPPI   C3A 8459   8.375   7.566   8.566 -0.0536  0.1035 -0.1882
  537DPPI   C4A 8460   8.549   7.783   8.217  0.0033  0.0397  0.2006
  537DPPI   C1B 8461   8.606   8.128   9.491 -0.1330 -0.1013 -0.1850
  537DPPI   C2B 8462   8.465   8.084   9.058  0.1195  0.0262  0.0722
  537DPPI   C3B 8463   8.553   8.056   8.635  0.1030  0.0420 -0.2764
  537DPPI   C4B 8464   8.264   8.262   8.387 -0.1771  0.1035 -0.1968
  538DPPI    C1 8465  17.904  15.825   9.384 -0.2143 -0.2196 -0.2491
  538DPPI    C2 8466  17.861  15.849   9.781 -0.0342 -0.2221 -0.2284
  538DPPI    C3 8467  17.573  15.987   9.539  0.0022  0.0892 -0.0985
  538DPPI   PO4 8468  18.225  15.885   9.325 -0.2754 -0.0351 -0.0148
  538DPPI   GL1 8469  18.465  15.927   8.942 -0.0100  0.0573  0.0059
  538DPPI   GL2 8470  18.173  16.117   8.895 -0.0437  0.1215  0.0704
  538DPPI   C1A 8471  18.642  15.680   8.663  0.0777 -0.2032 -0.0484
  538DPPI   C2A 8472  18.616  15.345   8.412 -0.1324  0.3228  0.0972
  538DPPI   C3A 8473  18.353  14.957   8.429  0.1231 -0.2408 -0.0547
  538DPPI   C4A 8474  18.147  14.624   8.124  0.1767 -0.0772  0.0306
  538DPPI   C1B 8475  18.133  15.869   8.593  0.0212  0.2956  0.2198
  538DPPI   C2B 8476  17.976  15.840   8.146  0.1832  0.0140  0.3592
  538DPPI   C3B 8477  17.672  15.926   7.798 -0.0675  0.1185 -0.1621
  538DPPI   C4B 8478  17.472  15.577   7.573  0.0819 -0.0039 -0.0750
  539DPPI    C1 8479   6.500   6.698   9.942  0.0161 -0.0762 -0.0280
  539DPPI    C2 8480   6.150   6.709  10.136 -0.1601 -0.2126 -0.3308
  539DPPI    C3 8481   6.361   6.369  10.123 -0.0980 -0.1756 -0.2906
  539DPPI   PO4 8482   6.473   6.777   9.740  0.0284  0.0505 -0.1481
  539DPPI   GL1 8483   6.320   6.827   9.396 -0.3953 -0.1060  0.2034
  539DPPI   GL2 8484   6.536   6.481   9.305  0.0887 -0.3359  0.0395
  539DPPI   C1A 8485   6.327   6.971   9.033  0.0136 -0.2744 -0.0622
  539DPPI   C2A 8486   6.387   6.986   8.572  0.0155  0.1587  0.3762
  539DPPI   C3A 8487   6.247   6.917   8.139 -0.1446 -0.1326 -0.1527
  539DPPI   C4A 8488   5.916   6.817   7.921  0.1349 -0.0545 -0.0553
  539DPPI   C1B 8489   6.426   6.438   8.826  0.2725 -0.0996 -0.0260
  539DPPI   C2B 8490   6.502   6.488   8.365  0.2021  0.2989 -0.1069
  539DPPI   C3B 8491   6.717   6.717   8.059 -0.3358  0.0097  0.0349
  539DPPI   C4B 8492   7.075   6.587   7.719 -0.0055 -0.2179  0.1055
  540DPPI    C1 8493  18.584  14.741   9.936 -0.1150 -0.2089  0.1918
  540DPPI    C2 8494  18.616  15.070  10.161 -0.2261 -0.1508  0.1232
  540DPPI    C3 8495  18.912  14.801  10.158  0.0696  0.1669 -0.1689
  540DPPI   PO4 8496  18.509  14.829   9.676 -0.2150  0.1009  0.0157
  540DPPI   GL1 8497  18.613  14.993   9.343 -0.6386 -0.4170 -0.0170
  540DPPI   GL2 8498  18.353  15.072   9.057 -0.2475  0.0253  0.0945
  540DPPI   C1A 8499  18.839  15.173   8.901 -0.3652 -0.1279  0.0993
  540DPPI   C2A 8500  19.046  15.189   8.503 -0.5061 -0.1484  0.2662
  540DPPI   C3A 8501  19.415  15.405   8.232 -0.1639  0.0656  0.1509
  540DPPI   C4A 8502  19.706  15.536   7.866 -0.1300  0.0552  0.1516
  540DPPI   C1B 8503  18.016  14.865   8.837  0.0690 -0.2317  0.1385
  540DPPI   C2B 8504  17.606  14.919   8.847 -0.1830 -0.0987  0.2100
  540DPPI   C3B 8505  17.224  15.114   8.858  0.0698  0.0160  0.2002
  540DPPI   C4B 8506  17.178  15.589   8.824 -0.1858 -0.2654  0.2950
  541DPPI    C1 8507   0.314  14.277   9.968 -0.0906 -0.2015  0.0656
  541DPPI    C2 8508   0.194  14.061  10.282 -0.0457  0.1149  0.3063
  541DPPI    C3 8509   0.427  14.380  10.338  0.1048  0.0751 -0.0678
  541DPPI   PO4 8510   0.062  14.383   9.809 -0.1537  0.4675  0.0845
  541DPPI   GL1 8511   0.117  14.394   9.476  0.2802 -0.1573  0.1999
  541DPPI   GL2 8512  -0.217  14.506   9.397  0.1635  0.3527  0.1705
  541DPPI   C1A 8513   0.172  14.264   9.025 -0.2333  0.0138  0.2688
  541DPPI   C2A 8514   0.609  14.270   8.757  0.0457 -0.2615 -0.2063
  541DPPI   C3A 8515   0.786  14.419   8.519  0.1553  0.1350  0.1422
  541DPPI   C4A 8516   1.114  14.550   8.285 -0.1731  0.0268  0.1839
  541DPPI   C1B 8517  -0.246  14.628   9.007 -0.0917 -0.2794  0.1250
  541DPPI   C2B 8518  -0.177  14.690   8.594  0.1360 -0.2232  0.2895
  541DPPI   C3B 8519  -0.191  14.879   8.176 -0.0758 -0.1755  0.3723
  541DPPI   C4B 8520   0.119  15.193   7.993 -0.5102  0.1661  0.1695
  542DPPI    C1 8521   7.184  16.154  10.282 -0.1316 -0.0860 -0.0148
  542DPPI    C2 8522   6.906  15.913  10.124 -0.2033 -0.1360  0.1854
  542DPPI    C3 8523   6.810  16.161  10.423 -0.0376 -0.1395  0.2430
  542DPPI   PO4 8524   7.382  16.042  10.192 -0.1607  0.1632 -0.1198
  542DPPI   GL1 8525   7.592  15.902   9.820 -0.0046 -0.1307 -0.1639
  542DPPI   GL2 8526   7.783  16.121   9.535 -0.1441  0.2437 -0.0948
  542DPPI   C1A 8527   7.425  15.747   9.426 -0.0301 -0.1105 -0.0388
  542DPPI   C2A 8528   7.393  15.742   9.016 -0.0963  0.1916 -0.1810
  542DPPI   C3A 8529   7.659  15.651   8.711 -0.1201  0.1925 -0.1582
  542DPPI   C4A 8530   7.916  15.518   8.545  0.1711  0.3208  0.2574
  542DPPI   C1B 8531   7.959  16.041   9.133  0.0150  0.3603  0.0235
  542DPPI   C2B 8532   8.045  15.998   8.690  0.2367 -0.3454 -0.0930
  542DPPI   C3B 8533   8.080  16.054   8.226  0.1246 -0.1118  0.0488
  542DPPI   C4B 8534   7.789  16.075   7.863  0.0234  0.0730 -0.1550
  543DPPI    C1 8535   7.665  14.365  10.306  0.0175 -0.0181 -0.0246
  543DPPI    C2 8536   8.008  14.173  10.377  0.0275  0.0327  0.0654
  543DPPI    C3 8537   7.845  14.403  10.661 -0.0076  0.1219 -0.0262
  543DPPI   PO4 8538   7.712  14.454  10.085 -0.1918 -0.5637 -0.1936
  543DPPI   GL1 8539   7.431  14.641   9.749 -0.0959  0.0649 -0.1441
  543DPPI   GL2 8540   7.537  14.333   9.636 -0.1034 -0.1176  0.1686
  543DPPI   C1A 8541   7.561  14.721   9.323  0.0399  0.0880 -0.3374
  543DPPI   C2A 8542   7.502  14.721   8.849 -0.0082  0.0619 -0.1506
  543DPPI   C3A 8543   7.402  14.792   8.384  0.0368  0.1368  0.1184
  543DPPI   C4A 8544   7.673  14.967   7.990 -0.1005 -0.0451  0.1711
  543DPPI   C1B 8545   7.782  14.156   9.372  0.1727 -0.1229 -0.1583
  543DPPI   C2B 8546   7.761  14.279   8.932 -0.2373  0.1687  0.1809
  543DPPI   C3B 8547   7.844  14.495   8.510  0.0250 -0.1556 -0.2841
  543DPPI   C4B 8548   7.761  14.440   8.141 -0.0153  0.0461 -0.1787
  544DPPI    C1 8549  15.839  10.340   9.929  0.1030  0.3030  0.1556
  544DPPI    C2 8550  16.176  10.126   9.916 -0.1502 -0.0884 -0.1916
  544DPPI    C3 8551  15.937  10.103  10.236  0.0193 -0.0140 -0.0582
  544DPPI   PO4 8552  15.729  10.245   9.689  0.2135 -0.0660  0.0527
  544DPPI   GL1 8553  15.796  10.142   9.324 -0.0527  0.1233 -0.0671
  544DPPI   GL2 8554  16.138  10.090   9.414 -0.1799 -0.3573  0.3108
  544DPPI   C1A 8555  15.711  10.125   8.923 -0.2095  0.1016  0.1462
  544DPPI   C2A 8556  15.545  10.101   8.515  0.0184 -0.0280  0.1576
  544DPPI   C3A 8557  15.240  10.134   8.171 -0.1581  0.1299  0.1043
  544DPPI   C4A 8558  14.984  10.169   7.799 -0.0940 -0.0124 -0.0782
  544DPPI   C1B 8559  16.166  10.102   8.949 -0.1137  0.0121  0.0120
  544DPPI   C2B 8560  16.393   9.677   8.751  0.0197  0.1804  0.2181
  544DPPI   C3B 8561  16.244   9.345   8.596  0.4972 -0.1980  0.0912
  544DPPI   C4B 8562  16.332   9.456   8.243 -0.1283  0.0270  0.3629
  545DPPI    C1 8563   0.293  13.771   9.870 -0.3783 -0.0800  0.0888
  545DPPI    C2 8564   0.441  14.005   9.580  0.0575 -0.0520  0.3250
  545DPPI    C3 8565   0.047  13.933   9.599 -0.0203  0.2479 -0.0489
  545DPPI   PO4 8566   0.521  13.588   9.884  0.1176 -0.2478  0.0149
  545DPPI   GL1 8567   0.649  13.335   9.543  0.3062  0.3880 -0.2325
  545DPPI   GL2 8568   0.618  13.004   9.572 -0.0345 -0.1021  0.0381
  545DPPI   C1A 8569   0.487  13.569   9.284  0.0997 -0.1904 -0.0986
  545DPPI   C2A 8570   0.080  13.682   9.075 -0.1095  0.0729  0.0158
  545DPPI   C3A 8571  -0.303  13.659   8.764  0.0783  0.3055 -0.1016
  545DPPI   C4A 8572  -0.543  13.500   8.446  0.1541 -0.0730 -0.1824
  545DPPI   C1B 8573   0.601  13.043   9.155 -0.0145  0.0105 -0.1016
  545DPPI   C2B 8574   0.937  12.953   8.900  0.0856 -0.1161  0.0875
  545DPPI   C3B 8575   1.273  13.340   8.702  0.3914  0.2041 -0.0158
  545DPPI   C4B 8576   1.322  13.797   8.842  0.1835  0.1127  0.2931
  546DPPI    C1 8577  16.618  11.365  10.272  0.0705  0.0812 -0.0762
  546DPPI    C2 8578  16.501  11.163  10.597 -0.0669 -0.0822 -0.2252
  546DPPI    C3 8579  16.614  10.966  10.268 -0.0904  0.0834 -0.3337
  546DPPI   PO4 8580  16.763  11.568  10.289  0.3328  0.0443 -0.2851
  546DPPI   GL1 8581  16.810  11.607   9.879  0.0782  0.0869 -0.2755
  546DPPI   GL2 8582  16.589  11.337   9.734  0.0989 -0.1865 -0.2318
  546DPPI   C1A 8583  16.881  11.753   9.442 -0.0398 -0.2711  0.3595
  546DPPI   C2A 8584  16.737  11.741   9.029 -0.2116 -0.0212  0.0137
  546DPPI   C3A 8585  16.768  11.736   8.591  0.0080 -0.0063  0.1630
  546DPPI   C4A 8586  16.817  11.642   8.217  0.0343  0.2019  0.1134
  546DPPI   C1B 8587  16.510  11.435   9.346  0.2035 -0.1640  0.1332
  546DPPI   C2B 8588  16.469  11.383   8.880  0.1112  0.1930  0.1203
  546DPPI   C3B 8589  16.521  11.310   8.484  0.0934 -0.0291 -0.0679
  546DPPI   C4B 8590  16.648  11.187   8.000  0.2324  0.1617  0.0946
  547DPPI    C1 8591   4.199  15.232  10.041 -0.0042 -0.0169 -0.2065
  547DPPI    C2 8592   3.967  15.123  10.349  0.0007  0.4984 -0.0094
  547DPPI    C3 8593   4.303  14.921  10.269 -0.1305  0.2054  0.1641
  547DPPI   PO4 8594   4.060  15.201   9.791  0.0263  0.0346 -0.1077
  547DPPI   GL1 8595   4.188  15.067   9.402 -0.0723 -0.1306 -0.0712
  547DPPI   GL2 8596   4.241  15.444   9.381  0.3838  0.0032 -0.0783
  547DPPI   C1A 8597   4.084  14.890   8.988  0.0390  0.3403  0.3037
  547DPPI   C2A 8598   4.192  14.759   8.679 -0.0022  0.3322  0.4327
  547DPPI   C3A 8599   4.240  14.789   8.183 -0.0854 -0.2444  0.1308
  547DPPI   C4A 8600   4.540  14.770   7.920 -0.0354  0.0762  0.1223
  547DPPI   C1B 8601   4.284  15.320   9.005  0.0370 -0.0611 -0.1093
  547DPPI   C2B 8602   4.333  15.268   8.616  0.0011  0.0837 -0.0386
  547DPPI   C3B 8603   4.386  15.338   8.150  0.0560  0.2380 -0.1967
  547DPPI   C4B 8604   4.528  15.732   7.979 -0.0859  0.2330 -0.1334
  548DPPI    C1 8605   4.646   8.136  10.100  0.0082  0.0761 -0.0068
  548DPPI    C2 8606   4.852   8.294  10.404 -0.0907  0.2638 -0.0353
  548DPPI    C3 8607   4.627   7.968  10.462  0.1525  0.1020  0.0130
  548DPPI   PO4 8608   4.814   8.148   9.871 -0.0632  0.1391 -0.1583
  548DPPI   GL1 8609   4.875   7.942   9.538  0.0072 -0.0006 -0.2259
  548DPPI   GL2 8610   4.603   8.282   9.468 -0.1205 -0.0178  0.2466
  548DPPI   C1A 8611   5.005   7.996   9.218 -0.0247 -0.0623 -0.2124
  548DPPI   C2A 8612   5.371   7.858   8.913 -0.4487 -0.3152 -0.2510
  548DPPI   C3A 8613   5.256   7.757   8.490  0.3916  0.2015  0.2144
  548DPPI   C4A 8614   5.062   7.398   8.125 -0.0367 -0.0995 -0.1619
  548DPPI   C1B 8615   4.521   8.172   9.044  0.0779 -0.2012  0.1050
  548DPPI   C2B 8616   4.309   8.323   8.793 -0.0243 -0.1556 -0.1154
  548DPPI   C3B 8617   4.166   8.352   8.356 -0.1147 -0.0586 -0.1145
  548DPPI   C4B 8618   4.259   8.358   7.883 -0.2579  0.1116 -0.0407
  549DPPI    C1 8619   4.750  18.614  10.253 -0.1483 -0.2170  0.0068
  549DPPI    C2 8620   4.432  18.403  10.373 -0.3856  0.0890 -0.0710
  549DPPI    C3 8621   4.432  18.802  10.405  0.1553  0.0715  0.3041
  549DPPI   PO4 8622   4.827  18.451  10.084 -0.1426 -0.0485 -0.2962
  549DPPI   GL1 8623   4.914  18.299   9.780  0.0783 -0.0783  0.1375
  549DPPI   GL2 8624   5.317  18.356   9.838 -0.0383 -0.0618 -0.0846
  549DPPI   C1A 8625   4.675  18.306   9.422 -0.0178  0.1284  0.1336
  549DPPI   C2A 8626   4.576  18.497   9.132 -0.0084  0.3089 -0.1495
  549DPPI   C3A 8627   4.449  18.791   8.977  0.3491  0.2474 -0.2601
  549DPPI   C4A 8628   4.391  19.132   8.861 -0.1653  0.0014  0.2346
  549DPPI   C1B 8629   5.255  18.226   9.362  0.3126  0.1681 -0.4429
  549DPPI   C2B 8630   4.967  18.248   8.982 -0.0678 -0.1530  0.4288
  549DPPI   C3B 8631   4.664  18.393   8.651  0.0377 -0.1121  0.1578
  549DPPI   C4B 8632   4.573  18.602   8.220  0.0015 -0.3914  0.2893
  550DPPI    C1 8633  14.406  13.344  10.158  0.0116 -0.2491  0.0601
  550DPPI    C2 8634  14.640  13.458  10.462 -0.0496 -0.1444  0.0683
  550DPPI    C3 8635  14.243  13.452  10.507 -0.0572 -0.1606  0.0010
  550DPPI   PO4 8636  14.406  13.539   9.841  0.0185  0.1632 -0.1227
  550DPPI   GL1 8637  14.460  13.529   9.408 -0.2348 -0.0106  0.0079
  550DPPI   GL2 8638  14.432  13.832   9.267 -0.0145  0.1975  0.1745
  550DPPI   C1A 8639  14.441  13.378   9.007 -0.1670  0.0032 -0.3064
  550DPPI   C2A 8640  14.337  12.990   8.866 -0.0715 -0.1040 -0.0116
  550DPPI   C3A 8641  14.294  12.643   8.529  0.0777  0.1140  0.1156
  550DPPI   C4A 8642  14.508  12.282   8.367 -0.1717  0.2861 -0.3990
  550DPPI   C1B 8643  14.162  13.773   8.942 -0.1308  0.2753 -0.1162
  550DPPI   C2B 8644  14.088  13.748   8.386 -0.1481  0.1344 -0.1260
  550DPPI   C3B 8645  14.152  13.656   8.058  0.0933 -0.0289  0.1246
  550DPPI   C4B 8646  14.497  13.465   7.936 -0.1732 -0.0672 -0.2609
  551DPPI    C1 8647  17.764  15.358   9.912  0.1509 -0.1260  0.0291
  551DPPI    C2 8648  17.686  15.630  10.195 -0.1787 -0.1268 -0.0573
  551DPPI    C3 8649  17.641  15.240  10.274  0.0699 -0.1469 -0.0050
  551DPPI   PO4 8650  17.657  15.394   9.625  0.1831  0.0152 -0.1529
  551DPPI   GL1 8651  17.669  15.438   9.145 -0.0279 -0.4380 -0.1207
  551DPPI   GL2 8652  18.044  15.521   9.045  0.2066 -0.3721  0.1540
  551DPPI   C1A 8653  17.610  15.345   8.643 -0.1445  0.0748 -0.0730
  551DPPI   C2A 8654  17.840  15.089   8.245 -0.3520 -0.2816 -0.0096
  551DPPI   C3A 8655  18.168  15.072   7.928  0.3571  0.1053  0.3066
  551DPPI   C4A 8656  18.527  15.193   7.863 -0.0687  0.1526 -0.3030
  551DPPI   C1B 8657  18.186  15.330   8.690 -0.0434 -0.3088  0.4597
  551DPPI   C2B 8658  18.240  15.466   8.232 -0.0769 -0.1076 -0.0615
  551DPPI   C3B 8659  18.436  15.661   7.984  0.3247 -0.0986  0.1991
  551DPPI   C4B 8660  18.504  15.974   8.281  0.2088 -0.1835  0.1274
  552DPPI    C1 8661  16.509  13.434   9.622  0.0119 -0.3086 -0.1835
  552DPPI    C2 8662  16.320  13.532   9.961 -0.0794  0.0567 -0.3343
  552DPPI    C3 8663  16.456  13.159   9.907 -0.1861 -0.0409  0.0436
  552DPPI   PO4 8664  16.475  13.690   9.496 -0.3460 -0.0200  0.4142
  552DPPI   GL1 8665  16.676  13.814   9.111 -0.4023  0.0254  0.0233
  552DPPI   GL2 8666  16.640  13.455   9.075 -0.0975  0.1050 -0.0995
  552DPPI   C1A 8667  16.426  13.889   8.696  0.0185 -0.0441  0.2370
  552DPPI   C2A 8668  16.649  14.031   8.213 -0.0006 -0.4445  0.0946
  552DPPI   C3A 8669  16.833  14.149   7.802  0.1391 -0.0404 -0.3552
  552DPPI   C4A 8670  17.100  14.246   7.376  0.0314 -0.1402  0.3265
  552DPPI   C1B 8671  16.665  13.384   8.653  0.1802 -0.1307 -0.0152
  552DPPI   C2B 8672  16.610  13.518   8.251 -0.1520 -0.2377  0.1234
  552DPPI   C3B 8673  16.732  13.632   7.885 -0.2322 -0.2537  0.1165
  552DPPI   C4B 8674  16.807  13.767   7.377 -0.2461  0.0420  0.2232
  553DPPI    C1 8675   2.192   5.623  10.343 -0.2079 -0.1346  0.1317
  553DPPI    C2 8676   2.306   5.998  10.422 -0.0153 -0.1692  0.0234
  553DPPI    C3 8677   2.388   5.705  10.682  0.0713 -0.1800 -0.0155
  553DPPI   PO4 8678   1.937   5.542  10.089  0.1138  0.0317 -0.0748
  553DPPI   GL1 8679   1.969   5.690   9.712  0.0990 -0.2357  0.0266
  553DPPI   GL2 8680   1.843   5.424   9.569  0.0653 -0.2746  0.1719
  553DPPI   C1A 8681   1.955   5.795   9.280  0.2761 -0.1111 -0.3441
  553DPPI   C2A 8682   1.758   5.669   8.853 -0.4873 -0.0706  0.1605
  553DPPI   C3A 8683   1.520   5.914   8.561  0.0372 -0.1222  0.0285
  553DPPI   C4A 8684   1.380   6.310   8.502  0.0071  0.0281  0.0753
  553DPPI   C1B 8685   1.768   5.287   9.203 -0.2116  0.0013  0.2846
  553DPPI   C2B 8686   1.773   5.135   8.761  0.0014 -0.0641  0.1036
  553DPPI   C3B 8687   1.659   5.015   8.362  0.0254  0.0968  0.1604
  553DPPI   C4B 8688   1.857   4.943   7.987 -0.0964  0.1451  0.2400
  554PYPI    C1 8689  17.450   6.757  10.629 -0.1799 -0.0770  0.1084
  554PYPI    C2 8690  17.837   6.753  10.730 -0.0551  0.0793 -0.3363
  554PYPI    C3 8691  17.560   6.857  11.000  0.2106 -0.0209 -0.0179
  554PYPI   PO4 8692  17.385   6.885  10.351 -0.2151 -0.3217 -0.0014
  554PYPI   GL1 8693  17.211   6.950   9.934  0.1730 -0.1806 -0.2623
  554PYPI   GL2 8694  17.069   7.242   9.893  0.1774  0.0242 -0.0415
  554PYPI   C1A 8695  17.418   7.143   9.572  0.0821  0.1446  0.3163
  554PYPI   C2A 8696  17.435   7.295   9.160 -0.1516 -0.0069  0.1422
  554PYPI   D3A 8697  17.467   7.424   8.679  0.0755 -0.0665 -0.0290
  554PYPI   C4A 8698  17.493   7.896   8.426  0.1212  0.3934  0.1144
  554PYPI   C1B 8699  17.158   7.553   9.592  0.1417 -0.0954  0.1795
  554PYPI   C2B 8700  17.337   7.771   9.415 -0.1894 -0.1707  0.0634
  554PYPI   C3B 8701  17.536   8.110   9.222  0.1250  0.0186  0.1220
  554PYPI   C4B 8702  17.638   8.138   8.830 -0.1728  0.0187  0.1158
  555PYPI    C1 8703  11.451  12.449  10.667  0.0997  0.2642  0.0866
  555PYPI    C2 8704  11.825  12.439  10.524  0.0020 -0.3456 -0.1537
  555PYPI    C3 8705  11.718  12.194  10.822 -0.1408  0.0154  0.0984
  555PYPI   PO4 8706  11.320  12.324  10.416  0.1475 -0.0264  0.2612
  555PYPI   GL1 8707  11.317  12.425   9.981  0.0471  0.2285  0.2006
  555PYPI   GL2 8708  11.162  12.700   9.810 -0.0357  0.0169 -0.0524
  555PYPI   C1A 8709  11.592  12.585   9.497 -0.2314  0.2353 -0.0502
  555PYPI   C2A 8710  11.360  12.598   9.082 -0.0157 -0.0504  0.2390
  555PYPI   D3A 8711  10.915  12.567   8.971  0.3146 -0.2589  0.0371
  555PYPI   C4A 8712  10.907  12.614   8.538 -0.1411 -0.0342 -0.0418
  555PYPI   C1B 8713  10.957  12.754   9.479 -0.2501  0.3746 -0.0136
  555PYPI   C2B 8714  10.690  13.091   9.144  0.0290 -0.0764  0.0210
  555PYPI   C3B 8715  10.665  13.116   8.739 -0.4167  0.1475  0.4192
  555PYPI   C4B 8716  10.566  12.868   8.344  0.0461  0.2052 -0.0510
  556PYPI    C1 8717   6.623   5.960  10.116 -0.0473 -0.0360  0.1993
  556PYPI    C2 8718   6.839   5.651   9.982  0.0174  0.1169 -0.0557
  556PYPI    C3 8719   6.794   5.708  10.375  0.2668 -0.0359 -0.0027
  556PYPI   PO4 8720   6.522   6.016   9.838 -0.0589  0.0765 -0.2068
  556PYPI   GL1 8721   6.672   5.978   9.425 -0.1773 -0.0992  0.1678
  556PYPI   GL2 8722   6.918   5.653   9.487 -0.2037  0.0412 -0.1977
  556PYPI   C1A 8723   6.421   5.907   9.070 -0.0536  0.1733 -0.0843
  556PYPI   C2A 8724   6.382   5.941   8.649 -0.0154  0.2423  0.0323
  556PYPI   D3A 8725   6.252   6.013   8.271 -0.2358  0.0874  0.0898
  556PYPI   C4A 8726   6.288   6.023   7.856  0.1435 -0.0097  0.1259
  556PYPI   C1B 8727   6.944   5.656   9.058  0.0485 -0.3084  0.0511
  556PYPI   C2B 8728   6.850   5.684   8.569 -0.1369  0.2202 -0.2362
  556PYPI   C3B 8729   6.702   5.748   8.240  0.3980  0.0595 -0.1467
  556PYPI   C4B 8730   6.682   5.688   7.791 -0.1804  0.2615  0.1408
  557PYPI    C1 8731   7.036   4.785  10.238 -0.0894 -0.1232 -0.0704
  557PYPI    C2 8732   7.291   4.655  10.518 -0.0824  0.1529  0.0551
  557PYPI    C3 8733   7.095   5.000  10.570 -0.2335  0.1071 -0.1910
  557PYPI   PO4 8734   7.212   4.812   9.992 -0.0639  0.1098 -0.2590
  557PYPI   GL1 8735   7.431   4.668   9.686 -0.0543  0.2064  0.0796
  557PYPI   GL2 8736   7.778   4.515   9.577  0.1040 -0.2180  0.0401
  557PYPI   C1A 8737   7.497   4.786   9.203  0.3486  0.2199 -0.2907
  557PYPI   C2A 8738   7.593   4.431   8.902  0.0874  0.0036 -0.3497
  557PYPI   D3A 8739   7.611   4.100   8.701  0.1050 -0.2300  0.0282
  557PYPI   C4A 8740   7.351   4.127   8.319  0.0438 -0.2832  0.2653
  557PYPI   C1B 8741   8.051   4.685   9.174 -0.0354  0.1401  0.0236
  557PYPI   C2B 8742   8.019   4.629   8.731  0.1543  0.1327 -0.0077
  557PYPI   C3B 8743   7.819   4.655   8.308  0.1049  0.0873  0.0525
  557PYPI   C4B 8744   7.861   4.799   7.863  0.1538 -0.0097 -0.0543
  558PYPI    C1 8745  15.222   4.532   9.624  0.0679 -0.0722 -0.0249
  558PYPI    C2 8746  15.412   4.480   9.972  0.0794  0.1121 -0.0026
  558PYPI    C3 8747  15.048   4.322   9.917  0.1251 -0.0137  0.0513
  558PYPI   PO4 8748  15.350   4.496   9.408  0.0206  0.1827 -0.0546
  558PYPI   GL1 8749  15.176   4.620   9.043  0.1151  0.1044  0.4639
  558PYPI   GL2 8750  14.907   4.639   9.174 -0.0492  0.4903  0.2471
  558PYPI   C1A 8751  15.158   4.239   8.702  0.0926 -0.0213 -0.0367
  558PYPI   C2A 8752  15.087   4.308   8.221 -0.2396 -0.0864 -0.0419
  558PYPI   D3A 8753  14.872   4.670   7.985 -0.0324  0.0573  0.1983
  558PYPI   C4A 8754  14.709   4.469   7.688  0.1640 -0.1522 -0.2562
  558PYPI   C1B 8755  14.598   4.578   8.827 -0.0399 -0.0926  0.0639
  558PYPI   C2B 8756  14.469   4.609   8.432  0.1584  0.0029  0.0994
  558PYPI   C3B 8757  14.388   4.449   8.054 -0.2784 -0.1013 -0.3177
  558PYPI   C4B 8758  14.016   4.327   7.708 -0.2482  0.1756  0.1831
  559PYPI    C1 8759   4.598  15.334   9.814 -0.2698  0.0114  0.1899
  559PYPI    C2 8760   4.602  15.557  10.146 -0.3492 -0.2037  0.3369
  559PYPI    C3 8761   4.361  15.655   9.842  0.0187  0.2298  0.1747
  559PYPI   PO4 8762   4.825  15.265   9.834 -0.0750 -0.0610 -0.0732
  559PYPI   GL1 8763   5.016  15.120   9.451  0.3974 -0.0945  0.0584
  559PYPI   GL2 8764   4.718  15.126   9.324 -0.0319 -0.0208 -0.0407
  559PYPI   C1A 8765   5.121  15.066   9.085 -0.0704 -0.2193 -0.1481
  559PYPI   C2A 8766   5.177  15.137   8.721  0.1223 -0.2443 -0.3450
  559PYPI   D3A 8767   5.526  14.941   8.376  0.2552 -0.2156  0.2703
  559PYPI   C4A 8768   5.407  15.087   7.929  0.0526 -0.0745  0.0809
  559PYPI   C1B 8769   4.799  15.413   8.961  0.2215  0.0957 -0.3282
  559PYPI   C2B 8770   4.756  15.448   8.481  0.1211 -0.2120  0.1915
  559PYPI   C3B 8771   4.986  15.633   8.193  0.2430  0.6680  0.3457
  559PYPI   C4B 8772   4.946  15.533   7.745 -0.0941  0.2799 -0.2062
  560PYPI    C1 8773  11.292  11.685  10.260 -0.0266  0.0879 -0.0436
  560PYPI    C2 8774  11.083  11.844  10.562 -0.0924 -0.1337  0.0293
  560PYPI    C3 8775  11.461  11.727  10.621 -0.0411  0.0008 -0.0267
  560PYPI   PO4 8776  11.346  11.769  10.052  0.3368 -0.0553 -0.2241
  560PYPI   GL1 8777  11.199  11.906   9.684  0.1280  0.0009  0.0438
  560PYPI   GL2 8778  10.928  11.685   9.769  0.0457  0.2963 -0.2720
  560PYPI   C1A 8779  11.310  12.179   9.463  0.1227  0.4650  0.1690
  560PYPI   C2A 8780  11.176  12.099   8.948 -0.1781  0.2652 -0.1788
  560PYPI   D3A 8781  11.060  11.779   8.684  0.0844 -0.0720  0.0755
  560PYPI   C4A 8782  11.188  11.742   8.262 -0.0652  0.0579 -0.1621
  560PYPI   C1B 8783  10.890  11.658   9.296 -0.1474  0.1831 -0.2268
  560PYPI   C2B 8784  10.933  11.420   8.997  0.0647 -0.1661  0.0729
  560PYPI   C3B 8785  10.945  11.154   8.549  0.0345 -0.3033  0.1023
  560PYPI   C4B 8786  10.829  10.791   8.346 -0.1241 -0.1423 -0.1515
  561PYPI    C1 8787  11.224   6.938   9.725  0.2079 -0.2340  0.0896
  561PYPI    C2 8788  11.010   6.605   9.783 -0.0562 -0.0867 -0.0222
  561PYPI    C3 8789  10.916   6.940   9.981  0.0856 -0.0262 -0.0561
  561PYPI   PO4 8790  11.547   6.975   9.711 -0.2052  0.1199  0.2392
  561PYPI   GL1 8791  11.727   6.819   9.307 -0.1237  0.2257 -0.3125
  561PYPI   GL2 8792  11.438   6.607   9.389  0.0376 -0.1799  0.1366
  561PYPI   C1A 8793  11.871   6.977   8.851  0.0439  0.1564  0.2494
  561PYPI   C2A 8794  11.791   6.952   8.456 -0.0435  0.0296 -0.1589
  561PYPI   D3A 8795  11.494   7.044   8.074  0.0605 -0.0160 -0.0228
  561PYPI   C4A 8796  11.087   7.014   8.167  0.1641 -0.0607 -0.3293
  561PYPI   C1B 8797  11.516   6.586   8.871 -0.0655  0.2097 -0.3450
  561PYPI   C2B 8798  11.338   6.646   8.375  0.2519  0.0640  0.0475
  561PYPI   C3B 8799  11.313   6.660   7.845 -0.1436 -0.1022 -0.0192
  561PYPI   C4B 8800  11.323   6.979   7.626  0.2352 -0.3649 -0.2003
  562PYPI    C1 8801   0.859  17.553   9.886 -0.1264  0.2039  0.0640
  562PYPI    C2 8802   0.707  17.584  10.254 -0.0194 -0.0923  0.1357
  562PYPI    C3 8803   0.467  17.504   9.945 -0.0885  0.0089  0.1629
  562PYPI   PO4 8804   0.956  17.687   9.805 -0.1830 -0.1352 -0.1818
  562PYPI   GL1 8805   1.002  17.976   9.422  0.0911 -0.0075 -0.2721
  562PYPI   GL2 8806   0.687  18.081   9.472  0.0038 -0.0730  0.1522
  562PYPI   C1A 8807   0.833  17.725   9.014 -0.1308  0.6060  0.1647
  562PYPI   C2A 8808   0.735  17.440   8.759  0.2393  0.0781  0.2890
  562PYPI   D3A 8809   1.023  17.228   8.438  0.1197  0.2116  0.0019
  562PYPI   C4A 8810   0.794  16.994   8.205 -0.1192 -0.1268  0.1487
  562PYPI   C1B 8811   0.663  18.410   9.248 -0.2165  0.0204 -0.4557
  562PYPI   C2B 8812   0.646  18.440   8.820  0.0224 -0.2235  0.0338
  562PYPI   C3B 8813   0.699  18.364   8.499  0.0243  0.2902  0.0950
  562PYPI   C4B 8814   0.999  18.408   8.217 -0.0141 -0.2109 -0.0386
  563PYPI    C1 8815  13.498  17.669   9.878 -0.1282 -0.0352  0.1612
  563PYPI    C2 8816  13.128  17.634  10.027 -0.0847 -0.1739  0.2379
  563PYPI    C3 8817  13.429  17.746  10.265 -0.0661 -0.1192  0.1890
  563PYPI   PO4 8818  13.547  17.595   9.657 -0.0640 -0.2093  0.1488
  563PYPI   GL1 8819  13.582  17.745   9.233  0.0099  0.2001  0.1982
  563PYPI   GL2 8820  13.786  17.890   9.222  0.6031 -0.0335 -0.1191
  563PYPI   C1A 8821  13.301  18.010   8.910  0.0429 -0.3813  0.1340
  563PYPI   C2A 8822  13.296  18.330   8.603 -0.1914  0.0617  0.1957
  563PYPI   D3A 8823  13.086  18.324   8.263  0.1247  0.0560  0.0879
  563PYPI   C4A 8824  13.341  18.418   7.893  0.1429 -0.0376  0.1216
  563PYPI   C1B 8825  13.793  18.049   8.768  0.1786  0.3372 -0.1952
  563PYPI   C2B 8826  14.011  18.195   8.404  0.1718 -0.0287 -0.1039
  563PYPI   C3B 8827  14.330  18.365   8.364 -0.1149 -0.0358  0.0301
  563PYPI   C4B 8828  14.779  18.397   8.146  0.2651  0.2580  0.0960
  564PYPI    C1 8829   7.415   2.985  10.248 -0.2007 -0.1435 -0.2315
  564PYPI    C2 8830   7.174   3.261  10.408  0.0980 -0.0744  0.1121
  564PYPI    C3 8831   7.020   2.924  10.258 -0.2431  0.1417 -0.0356
  564PYPI   PO4 8832   7.542   3.103  10.094  0.1519  0.1584  0.0054
  564PYPI   GL1 8833   7.650   3.114   9.705 -0.0025 -0.0535 -0.0722
  564PYPI   GL2 8834   7.810   2.932   9.622 -0.2770  0.3492  0.2112
  564PYPI   C1A 8835   7.562   3.314   9.334  0.2333 -0.1684 -0.3971
  564PYPI   C2A 8836   7.582   3.292   8.962  0.0830 -0.1825  0.0142
  564PYPI   D3A 8837   7.501   3.183   8.486 -0.2723  0.1912 -0.0603
  564PYPI   C4A 8838   7.384   3.379   8.063 -0.0855  0.0819  0.1952
  564PYPI   C1B 8839   7.976   3.044   9.214  0.1088 -0.3966  0.0303
  564PYPI   C2B 8840   8.205   3.357   8.920  0.1834 -0.2948 -0.1795
  564PYPI   C3B 8841   8.567   3.244   8.638  0.1142 -0.0213 -0.1926
  564PYPI   C4B 8842   8.830   2.959   8.766  0.0399 -0.1894 -0.1034
  565PYPI    C1 8843  16.005   3.241   9.747 -0.0904  0.0483  0.0711
  565PYPI    C2 8844  16.150   3.184  10.115  0.0425  0.3162  0.0626
  565PYPI    C3 8845  16.115   3.555   9.969 -0.1078  0.2178 -0.1561
  565PYPI   PO4 8846  15.938   3.049   9.679  0.1713 -0.0305  0.2157
  565PYPI   GL1 8847  16.017   2.938   9.348 -0.2160 -0.0842  0.2679
  565PYPI   GL2 8848  15.790   2.971   9.203 -0.2541  0.0139  0.2467
  565PYPI   C1A 8849  15.934   2.675   8.856  0.0992 -0.1191  0.2109
  565PYPI   C2A 8850  15.538   2.726   8.494  0.1055 -0.1174 -0.0986
  565PYPI   D3A 8851  15.527   3.117   8.293 -0.2794  0.1749 -0.0440
  565PYPI   C4A 8852  15.368   3.424   7.996 -0.0132 -0.0805  0.0639
  565PYPI   C1B 8853  15.600   3.167   8.877 -0.2360  0.1021 -0.0991
  565PYPI   C2B 8854  15.391   3.528   8.534 -0.0251 -0.0952  0.1312
  565PYPI   C3B 8855  15.213   3.860   8.250  0.2120  0.2270  0.1886
  565PYPI   C4B 8856  15.394   4.054   7.857  0.2022  0.2746 -0.0759
  566PYPI    C1 8857  17.765   0.695  10.306  0.1305  0.1915  0.4513
  566PYPI    C2 8858  18.034   0.408  10.230  0.1020  0.2589  0.0752
  566PYPI    C3 8859  18.099   0.671  10.525  0.2214 -0.0115  0.2941
  566PYPI   PO4 8860  17.652   0.682  10.045 -0.3015 -0.1418  0.2127
  566PYPI   GL1 8861  17.677   0.384   9.741 -0.0263  0.0286  0.2520
  566PYPI   GL2 8862  17.961   0.343   9.733 -0.2570  0.0458 -0.1340
  566PYPI   C1A 8863  17.629   0.591   9.383 -0.0595  0.1237 -0.1458
  566PYPI   C2A 8864  17.373   0.731   9.041  0.0379 -0.0823 -0.2888
  566PYPI   D3A 8865  17.295   0.955   8.715 -0.2431 -0.1212  0.3824
  566PYPI   C4A 8866  17.393   0.852   8.283  0.3391  0.3417  0.0673
  566PYPI   C1B 8867  18.225   0.222   9.453 -0.0080 -0.2590 -0.3451
  566PYPI   C2B 8868  18.397  -0.024   9.234  0.0133  0.0814  0.2015
  566PYPI   C3B 8869  18.469  -0.134   8.714  0.0479  0.0518 -0.0042
  566PYPI   C4B 8870  18.380  -0.095   8.280  0.0569 -0.1254 -0.1751
  567PYPI    C1 8871   9.193  12.990  10.451  0.1645  0.1121 -0.1026
  567PYPI    C2 8872   9.311  13.026  10.831 -0.0069  0.0331 -0.0410
  567PYPI    C3 8873   9.314  12.668  10.654 -0.2321  0.0152 -0.0116
  567PYPI   PO4 8874   9.347  13.055  10.309  0.2427  0.1046  0.2418
  567PYPI   GL1 8875   9.379  12.951   9.830  0.1186 -0.1826 -0.1257
  567PYPI   GL2 8876   9.364  12.597   9.688  0.0338  0.0208  0.1321
  567PYPI   C1A 8877   9.616  12.893   9.417 -0.0660 -0.2597 -0.0051
  567PYPI   C2A 8878   9.725  12.962   8.989 -0.0478  0.1833 -0.1338
  567PYPI   D3A 8879   9.828  12.714   8.546  0.0107  0.0687 -0.4352
  567PYPI   C4A 8880  10.000  12.695   8.135  0.0481 -0.0176 -0.1969
  567PYPI   C1B 8881   9.262  12.366   9.302 -0.1577 -0.1592  0.2793
  567PYPI   C2B 8882   9.333  12.058   9.015 -0.2074  0.0183 -0.3399
  567PYPI   C3B 8883   9.408  11.706   8.660 -0.3481 -0.0843  0.1726
  567PYPI   C4B 8884   9.670  11.716   8.277 -0.1152  0.2816  0.0613
  568PYPI    C1 8885  10.724  16.307  10.271 -0.1337 -0.4320 -0.2102
  568PYPI    C2 8886  10.463  16.296  10.574 -0.4113 -0.1978 -0.4346
  568PYPI    C3 8887  10.856  16.315  10.648 -0.4701 -0.2570 -0.0924
  568PYPI   PO4 8888  10.506  16.405  10.026  0.0443  0.1188  0.1090
  568PYPI   GL1 8889  10.658  16.527   9.622  0.0498  0.0015 -0.1028
  568PYPI   GL2 8890  10.736  16.377   9.371 -0.0353 -0.0620  0.3159
  568PYPI   C1A 8891  10.281  16.705   9.326  0.3514 -0.0875 -0.1388
  568PYPI   C2A 8892  10.071  16.908   9.073 -0.2600  0.1259 -0.1062
  568PYPI   D3A 8893  10.117  17.209   8.966 -0.2964  0.0911 -0.1618
  568PYPI   C4A 8894  10.080  17.158   8.479 -0.1013 -0.0298  0.1418
  568PYPI   C1B 8895  10.722  16.645   9.036  0.1261 -0.0013  0.0103
  568PYPI   C2B 8896  10.377  16.561   8.761 -0.0244 -0.1389 -0.0959
  568PYPI   C3B 8897  10.155  16.555   8.401 -0.1143 -0.2686  0.0114
  568PYPI   C4B 8898  10.034  16.446   8.013  0.2158  0.0909  0.3935
  569PYPI    C1 8899   0.550   3.504  10.417  0.0827  0.1126  0.0119
  569PYPI    C2 8900   0.656   3.141  10.546  0.1454  0.1119 -0.0409
  569PYPI    C3 8901   0.558   3.426  10.809 -0.0751  0.0054 -0.0055
  569PYPI   PO4 8902   0.690   3.588  10.212  0.2669 -0.1682 -0.0799
  569PYPI   GL1 8903   0.611   3.600   9.859 -0.2109 -0.0704 -0.0770
  569PYPI   GL2 8904   0.335   3.548   9.721  0.0557  0.0202 -0.0990
  569PYPI   C1A 8905   0.864   3.354   9.399 -0.1568  0.0172 -0.1957
  569PYPI   C2A 8906   1.116   3.367   8.987 -0.2992  0.1458 -0.2533
  569PYPI   D3A 8907   0.865   3.191   8.648  0.0222 -0.0754  0.0450
  569PYPI   C4A 8908   0.789   3.170   8.195  0.2089  0.2562  0.3040
  569PYPI   C1B 8909  -0.085   3.332   9.485 -0.0646 -0.2028  0.0604
  569PYPI   C2B 8910  -0.099   3.333   8.983 -0.0341 -0.0022  0.1919
  569PYPI   C3B 8911  -0.205   3.214   8.508  0.0486 -0.0146 -0.0868
  569PYPI   C4B 8912  -0.400   2.826   8.194  0.0791  0.0799 -0.1229
  570PYPI    C1 8913  18.584   4.775  10.312  0.0143  0.1018  0.0196
  570PYPI    C2 8914  18.940   4.869  10.469  0.0243  0.1758 -0.0469
  570PYPI    C3 8915  18.605   5.021  10.627  0.0132  0.0093  0.0926
  570PYPI   PO4 8916  18.686   4.718   9.978  0.0061  0.1829 -0.1436
  570PYPI   GL1 8917  18.765   4.428   9.796  0.1477 -0.1693 -0.2270
  570PYPI   GL2 8918  18.849   4.129   9.928  0.5058 -0.0021 -0.0044
  570PYPI   C1A 8919  18.863   4.250   9.402  0.0305 -0.1505  0.1636
  570PYPI   C2A 8920  19.005   4.312   9.013 -0.1915  0.0275 -0.2185
  570PYPI   D3A 8921  19.018   4.328   8.628  0.1626 -0.0237 -0.2871
  570PYPI   C4A 8922  19.168   4.497   8.297  0.2254 -0.0056 -0.1136
  570PYPI   C1B 8923  18.902   3.816   9.645 -0.3137 -0.2735  0.0269
  570PYPI   C2B 8924  19.105   3.699   9.235  0.3216 -0.1013 -0.0616
  570PYPI   C3B 8925  19.204   3.836   8.839 -0.0107 -0.0467  0.1172
  570PYPI   C4B 8926  19.000   3.893   8.382  0.0300  0.0707 -0.1293
  571PYPI    C1 8927  13.182  16.712   9.738 -0.1300 -0.2781 -0.1574
  571PYPI    C2 8928  12.944  16.481   9.961 -0.1905 -0.1812 -0.1209
  571PYPI    C3 8929  13.091  16.820  10.112 -0.0846 -0.2064 -0.1671
  571PYPI   PO4 8930  13.098  16.645   9.472  0.2745  0.0877 -0.0774
  571PYPI   GL1 8931  12.714  16.426   9.188  0.5274 -0.1490  0.1074
  571PYPI   GL2 8932  12.459  16.129   9.228  0.2883  0.0848  0.0216
  571PYPI   C1A 8933  13.114  16.273   8.943  0.0047  0.1396  0.1528
  571PYPI   C2A 8934  13.192  16.130   8.420  0.0411 -0.2343 -0.1918
  571PYPI   D3A 8935  13.336  16.279   8.093 -0.2660  0.1977 -0.3247
  571PYPI   C4A 8936  13.578  15.996   7.807 -0.1093  0.0559  0.2589
  571PYPI   C1B 8937  12.521  16.193   8.726 -0.0609  0.0725  0.0865
  571PYPI   C2B 8938  12.698  16.343   8.320 -0.1062  0.0846 -0.1087
  571PYPI   C3B 8939  12.845  16.209   7.862  0.1623 -0.1383 -0.0045
  571PYPI   C4B 8940  13.064  15.825   7.838  0.1298  0.1034  0.2145
  572PYPI    C1 8941  14.331   5.384   9.726  0.1703  0.1259 -0.1114
  572PYPI    C2 8942  14.009   5.251   9.922  0.1437  0.0449 -0.2096
  572PYPI    C3 8943  14.276   5.482  10.110  0.1182 -0.0314 -0.0784
  572PYPI   PO4 8944  14.240   5.312   9.498 -0.4264 -0.2071 -0.0165
  572PYPI   GL1 8945  13.906   5.119   9.154 -0.0565  0.1035 -0.1107
  572PYPI   GL2 8946  14.122   5.267   8.957  0.2761  0.0068  0.0525
  572PYPI   C1A 8947  13.561   5.219   8.851  0.2674  0.1105 -0.0822
  572PYPI   C2A 8948  13.673   5.392   8.464  0.3045 -0.0733  0.3378
  572PYPI   D3A 8949  13.698   5.596   8.134 -0.1226  0.1256  0.2210
  572PYPI   C4A 8950  13.458   6.021   8.014  0.0123 -0.1637 -0.0477
  572PYPI   C1B 8951  14.205   5.101   8.527 -0.0582  0.0294  0.1737
  572PYPI   C2B 8952  14.414   5.085   8.115  0.0337 -0.2742 -0.2698
  572PYPI   C3B 8953  14.567   4.951   7.659  0.4724 -0.1444 -0.0757
  572PYPI   C4B 8954  14.737   5.289   7.512 -0.0466  0.1995  0.2958
  573PYPI    C1 8955  16.456   4.696   9.779 -0.0152 -0.1465 -0.1193
  573PYPI    C2 8956  16.104   4.759   9.599  0.0651  0.2895 -0.1352
  573PYPI    C3 8957  16.142   4.821   9.993  0.0568 -0.0288 -0.0813
  573PYPI   PO4 8958  16.578   4.696   9.670  0.0467  0.1069  0.2048
  573PYPI   GL1 8959  16.766   4.382   9.383  0.0720 -0.4763  0.2300
  573PYPI   GL2 8960  17.008   4.540   9.353  0.2237  0.1290 -0.0844
  573PYPI   C1A 8961  17.079   4.138   9.073 -0.1925 -0.0235  0.0369
  573PYPI   C2A 8962  17.412   4.117   8.820 -0.0261 -0.0632 -0.2509
  573PYPI   D3A 8963  17.733   4.043   8.468  0.3511  0.0993  0.1173
  573PYPI   C4A 8964  17.849   3.951   8.039  0.2190  0.2925 -0.0664
  573PYPI   C1B 8965  17.291   4.603   8.945 -0.0992  0.0727  0.0001
  573PYPI   C2B 8966  17.603   4.574   8.505 -0.0494  0.0052 -0.1556
  573PYPI   C3B 8967  17.791   4.466   8.219  0.1475 -0.3402 -0.2998
  573PYPI   C4B 8968  17.919   4.733   7.901 -0.1483  0.0052  0.2203
  574ERGO   ROH 8969  13.580  13.228   9.580 -0.2673 -0.0684  0.1528
  574ERGO    R1 8970  13.495  13.142   9.325 -0.2302 -0.0114  0.1219
  574ERGO    R2 8971  13.361  13.307   9.149 -0.0220  0.0880  0.0602
  574ERGO    R3 8972  13.560  13.235   8.979 -0.0111 -0.0810  0.1415
  574ERGO    R4 8973  13.340  13.315   8.804  0.0222 -0.1621  0.0490
  574ERGO    R5 8974  13.448  13.127   8.797 -0.0135 -0.1949  0.2052
  574ERGO    C1 8975  13.516  13.252   8.444  0.0583 -0.4664  0.1188
  574ERGO    C2 8976  13.680  13.538   8.205 -0.0191 -0.1447 -0.1790
  575ERGO   ROH 8977   3.357  14.115   9.204 -0.1733 -0.0710 -0.2395
  575ERGO    R1 8978   3.394  14.236   8.951  0.0668 -0.0014 -0.1726
  575ERGO    R2 8979   3.632  14.218   8.811  0.0382 -0.3930 -0.1745
  575ERGO    R3 8980   3.471  14.124   8.613 -0.1495  0.0300 -0.2347
  575ERGO    R4 8981   3.722  14.197   8.478  0.1613 -0.7216 -0.1245
  575ERGO    R5 8982   3.521  14.265   8.425  0.3649 -0.1372 -0.2416
  575ERGO    C1 8983   3.624  14.096   8.098  0.0567 -0.5160 -0.1520
  575ERGO    C2 8984   3.893  14.031   7.988 -0.0997 -0.2010  0.1270
  576ERGO   ROH 8985  17.403   3.088   9.323  0.2553 -0.0820 -0.0586
  576ERGO    R1 8986  17.280   3.072   9.068  0.2414 -0.1482 -0.0465
  576ERGO    R2 8987  17.217   3.296   8.919  0.1137 -0.1852 -0.0403
  576ERGO    R3 8988  17.364   3.170   8.728  0.1593 -0.1100 -0.0574
  576ERGO    R4 8989  17.147   3.299   8.580  0.1144 -0.1525 -0.0413
  576ERGO    R5 8990  17.202   3.089   8.572  0.1827 -0.1381 -0.0724
  576ERGO    C1 8991  17.244   3.182   8.204  0.1575 -0.0629 -0.0579
  576ERGO    C2 8992  17.183   3.269   7.950  0.0447  0.2423 -0.1382
  577ERGO   ROH 8993   0.874   8.480   9.755 -0.3324 -0.1736  0.1398
  577ERGO    R1 8994   0.859   8.618   9.509  0.0094 -0.2400  0.0771
  577ERGO    R2 8995   0.845   8.487   9.266 -0.3386 -0.3249  0.1421
  577ERGO    R3 8996   0.623   8.640   9.233  0.0392  0.2415  0.0802
  577ERGO    R4 8997   0.720   8.589   8.960 -0.3688 -0.6130  0.0551
  577ERGO    R5 8998   0.677   8.784   9.048  0.2675 -0.2799 -0.2885
  577ERGO    C1 8999   0.438   8.792   8.751 -0.0316 -0.2492 -0.0536
  577ERGO    C2 9000   0.262   8.826   8.539 -0.0056  0.0395  0.1140
  578ERGO   ROH 9001   9.803   4.985   9.424 -0.3056 -0.4679  0.1593
  578ERGO    R1 9002   9.699   5.110   9.192 -0.2036 -0.2172  0.2441
  578ERGO    R2 9003   9.712   4.993   8.942 -0.1013  0.0461  0.1201
  578ERGO    R3 9004   9.444   5.035   8.944 -0.1009  0.0501  0.0544
  578ERGO    R4 9005   9.499   4.922   8.679 -0.0607 -0.0518  0.1135
  578ERGO    R5 9006   9.393   5.107   8.721 -0.0642 -0.0374  0.0204
  578ERGO    C1 9007   9.123   4.919   8.529 -0.0367 -0.1051  0.0481
  578ERGO    C2 9008   8.863   4.793   8.399  0.3630  0.1247 -0.1360
  579ERGO   ROH 9009  13.006   6.846   9.542 -0.1053  0.1171  0.1811
  579ERGO    R1 9010  12.823   6.909   9.335 -0.0177  0.0809  0.0926
  579ERGO    R2 9011  12.854   7.128   9.170  0.1109 -0.0106 -0.0023
  579ERGO    R3 9012  12.834   6.941   8.973  0.1082 -0.0977  0.0785
  579ERGO    R4 9013  12.885   7.193   8.832  0.1971 -0.1721 -0.0276
  579ERGO    R5 9014  12.721   7.054   8.795  0.1708 -0.1513  0.0020
  579ERGO    C1 9015  12.884   7.056   8.450  0.2448 -0.3480  0.0334
  579ERGO    C2 9016  12.971   7.088   8.111  0.1784 -0.2324  0.1827
  580ERGO   ROH 9017  18.115   4.808   9.167  0.2480  0.1605 -0.0034
  580ERGO    R1 9018  18.177   4.723   8.904  0.1394  0.0214  0.0136
  580ERGO    R2 9019  18.018   4.786   8.686  0.0877 -0.0269  0.0292
  580ERGO    R3 9020  18.251   4.883   8.585  0.0881 -0.1426 -0.0798
  580ERGO    R4 9021  18.082   4.838   8.351 -0.0487 -0.0157  0.0051
  580ERGO    R5 9022  18.283   4.761   8.382 -0.0797 -0.1282 -0.1107
  580ERGO    C1 9023  18.339   4.959   8.060 -0.1278 -0.1179 -0.1111
  580ERGO    C2 9024  18.563   5.252   7.925 -0.1940  0.2827  0.2202
  581ERGO   ROH 9025   6.381   3.526   9.320  0.0094 -0.0236  0.0591
  581ERGO    R1 9026   6.239   3.694   9.142 -0.1102 -0.1271  0.0556
  581ERGO    R2 9027   6.364   3.889   8.991 -0.2461 -0.0526  0.0424
  581ERGO    R3 9028   6.240   3.762   8.785 -0.1697 -0.1438  0.0515
  581ERGO    R4 9029   6.273   4.038   8.692 -0.1105 -0.1867 -0.0676
  581ERGO    R5 9030   6.087   3.924   8.697 -0.1228 -0.1720 -0.0897
  581ERGO    C1 9031   6.104   4.005   8.325  0.0403 -0.3505 -0.1231
  581ERGO    C2 9032   6.060   3.931   8.009  0.0798  0.1017  0.0613
  582ERGO   ROH 9033   7.841  16.698   9.608  0.0597  0.0985 -0.1281
  582ERGO    R1 9034   7.958  16.587   9.376  0.3108  0.2001 -0.0547
  582ERGO    R2 9035   7.808  16.509   9.157  0.4531 -0.4059  0.0413
  582ERGO    R3 9036   7.979  16.674   9.023 -0.0132 -0.0472 -0.1389
  582ERGO    R4 9037   7.896  16.476   8.824  0.1899 -0.2206 -0.0496
  582ERGO    R5 9038   8.100  16.528   8.878  0.1448  0.2020 -0.2593
  582ERGO    C1 9039   8.107  16.611   8.505 -0.4010  0.2240 -0.2716
  582ERGO    C2 9040   8.200  16.594   8.131  0.1722  0.1062 -0.0164
  583ERGO   ROH 9041   9.123   8.899   9.981  0.2608  0.0426  0.1266
  583ERGO    R1 9042   9.033   9.122   9.832  0.2653  0.0521  0.1379
  583ERGO    R2 9043   9.206   9.295   9.703  0.2622 -0.0505 -0.0075
  583ERGO    R3 9044   9.053   9.235   9.486  0.0977 -0.0286  0.1005
  583ERGO    R4 9045   9.206   9.471   9.405  0.1520 -0.1123 -0.0443
  583ERGO    R5 9046   8.990   9.447   9.396  0.1348 -0.0191  0.0972
  583ERGO    C1 9047   9.063   9.516   9.028 -0.0666 -0.1279  0.0356
  583ERGO    C2 9048   9.154   9.624   8.704  0.5385 -0.1201  0.0189
  584ERGO   ROH 9049   4.082   2.424   9.846 -0.0174 -0.1809  0.1515
  584ERGO    R1 9050   3.877   2.400   9.652 -0.0271 -0.1637  0.1594
  584ERGO    R2 9051   3.900   2.502   9.397 -0.0446 -0.1306  0.1709
  584ERGO    R3 9052   3.839   2.248   9.324 -0.0395 -0.1235  0.1419
  584ERGO    R4 9053   3.757   2.412   9.095 -0.0372 -0.0984  0.1580
  584ERGO    R5 9054   3.633   2.268   9.203 -0.0376 -0.1123  0.1400
  584ERGO    C1 9055   3.616   2.121   8.852 -0.0280 -0.0729  0.1232
  584ERGO    C2 9056   3.655   2.010   8.581 -0.0051 -0.0441  0.3637
  585ERGO   ROH 9057  10.739   1.428   9.529 -0.1052  0.0145 -0.0106
  585ERGO    R1 9058  10.726   1.531   9.266  0.0438  0.2431  0.0676
  585ERGO    R2 9059  10.945   1.639   9.137  0.2266 -0.0322  0.1294
  585ERGO    R3 9060  10.881   1.458   8.945 -0.1116  0.2152 -0.0009
  585ERGO    R4 9061  11.103   1.611   8.831  0.1565 -0.1002  0.0997
  585ERGO    R5 9062  10.909   1.577   8.739  0.0869  0.3135  0.0837
  585ERGO    C1 9063  11.135   1.424   8.472 -0.2019  0.0925 -0.0400
  585ERGO    C2 9064  11.232   1.269   8.147  0.0037 -0.1320  0.1426
  586ERGO   ROH 9065  11.724   0.041   9.342 -0.0803 -0.2764  0.0571
  586ERGO    R1 9066  11.704  -0.099   9.097  0.0241 -0.1697 -0.0155
  586ERGO    R2 9067  11.604   0.018   8.866  0.0617 -0.0792  0.0068
  586ERGO    R3 9068  11.840  -0.064   8.761  0.1203  0.0238  0.0405
  586ERGO    R4 9069  11.648  -0.096   8.543  0.1225 -0.2205  0.0664
  586ERGO    R5 9070  11.783  -0.249   8.621  0.2350 -0.0942  0.1427
  586ERGO    C1 9071  11.897  -0.240   8.257  0.2128 -0.2059  0.1327
  586ERGO    C2 9072  12.111  -0.223   7.974  0.1902  0.3196 -0.0964
  587ERGO   ROH 9073   5.203  18.828  10.008 -0.2728 -0.0553 -0.0881
  587ERGO    R1 9074   5.258  18.867   9.733 -0.1168  0.0629 -0.0421
  587ERGO    R2 9075   5.178  18.688   9.539  0.1665  0.0438 -0.1469
  587ERGO    R3 9076   5.064  18.908   9.428  0.0546 -0.0224 -0.1642
  587ERGO    R4 9077   5.103  18.724   9.203  0.3739  0.0757 -0.1909
  587ERGO    R5 9078   5.172  18.930   9.216  0.1876  0.1321 -0.0816
  587ERGO    C1 9079   4.952  18.951   8.904  0.3896  0.0321 -0.2327
  587ERGO    C2 9080   4.827  18.886   8.610  0.0118 -0.0550 -0.3214
  588ERGO   ROH 9081  13.070  18.427   9.253  0.0970  0.0452  0.0201
  588ERGO    R1 9082  13.097  18.679   9.128 -0.0404 -0.0327 -0.1710
  588ERGO    R2 9083  13.335  18.819   9.123 -0.1757  0.2143 -0.0445
  588ERGO    R3 9084  13.292  18.819   8.854  0.0944 -0.0691 -0.0931
  588ERGO    R4 9085  13.483  19.036   8.899 -0.2761  0.2567 -0.0698
  588ERGO    R5 9086  13.293  19.051   8.794 -0.1948 -0.1134 -0.2787
  588ERGO    C1 9087  13.530  19.164   8.517 -0.0810  0.0152 -0.1301
  588ERGO    C2 9088  13.633  19.247   8.156 -0.0296  0.2091  0.0700
  589ERGO   ROH 9089   9.774   8.493   9.579 -0.1462 -0.0653  0.0017
  589ERGO    R1 9090   9.924   8.654   9.401 -0.0420 -0.1614  0.0027
  589ERGO    R2 9091   9.931   8.607   9.129 -0.1069 -0.1394  0.0019
  589ERGO    R3 9092   9.854   8.868   9.115  0.0934 -0.0756  0.0309
  589ERGO    R4 9093  10.025   8.829   8.881 -0.2419 -0.3015 -0.1982
  589ERGO    R5 9094  10.047   8.983   9.033  0.0941 -0.2666 -0.2644
  589ERGO    C1 9095  10.008   9.202   8.723 -0.1323 -0.3359 -0.2874
  589ERGO    C2 9096   9.882   9.398   8.444  0.4292  0.0849 -0.1615
  590ERGO   ROH 9097   8.382  13.571   9.765  0.0388  0.0438  0.0130
  590ERGO    R1 9098   8.459  13.496   9.503  0.1281  0.2239 -0.0145
  590ERGO    R2 9099   8.277  13.418   9.311  0.2261 -0.0794  0.0074
  590ERGO    R3 9100   8.395  13.614   9.165 -0.1537  0.1682  0.0174
  590ERGO    R4 9101   8.268  13.440   8.966  0.1909 -0.0818  0.0084
  590ERGO    R5 9102   8.477  13.502   8.969  0.0762  0.3336  0.0151
  590ERGO    C1 9103   8.374  13.637   8.628 -0.1862  0.1492  0.0184
  590ERGO    C2 9104   8.268  13.611   8.443 -0.0136  0.0066 -0.1120
  591ERGO   ROH 9105   6.055   1.180   9.857  0.1554 -0.0205 -0.0582
  591ERGO    R1 9106   5.909   1.169   9.615  0.1100 -0.0285 -0.0292
  591ERGO    R2 9107   5.817   1.396   9.487  0.0636 -0.0387 -0.0017
  591ERGO    R3 9108   5.951   1.290   9.275  0.0279 -0.0159 -0.0371
  591ERGO    R4 9109   5.721   1.430   9.157  0.1170  0.1932  0.0040
  591ERGO    R5 9110   5.777   1.221   9.124 -0.0051  0.1665 -0.0934
  591ERGO    C1 9111   5.790   1.350   8.765  0.1145  0.3498 -0.0258
  591ERGO    C2 9112   5.702   1.414   8.478 -0.1526 -0.0264  0.1577
  592ERGO   ROH 9113   1.103   0.028   9.438  0.1850 -0.1305  0.0262
  592ERGO    R1 9114   1.098  -0.137   9.208 -0.0360 -0.0658 -0.0181
  592ERGO    R2 9115   0.921  -0.097   8.999 -0.0268  0.1851  0.0187
  592ERGO    R3 9116   1.148  -0.094   8.850 -0.0467 -0.0272 -0.0140
  592ERGO    R4 9117   0.932  -0.101   8.654 -0.0849  0.2839  0.0155
  592ERGO    R5 9118   1.101  -0.238   8.665 -0.2396  0.0871 -0.0540
  592ERGO    C1 9119   1.152  -0.101   8.313 -0.1373  0.1421 -0.0171
  592ERGO    C2 9120   1.143  -0.111   7.984 -0.2236 -0.0482  0.2547
  593ERGO   ROH 9121   5.690  13.603   9.726  0.2141  0.1180  0.1511
  593ERGO    R1 9122   5.678  13.532   9.453  0.2392  0.0364  0.1715
  593ERGO    R2 9123   5.814  13.672   9.256  0.1451  0.0609  0.1272
  593ERGO    R3 9124   5.915  13.427   9.197  0.2847  0.1030  0.1849
  593ERGO    R4 9125   5.994  13.597   8.971 -0.1773  0.0073 -0.0679
  593ERGO    R5 9126   5.887  13.407   8.959 -0.0279 -0.1051  0.2305
  593ERGO    C1 9127   6.194  13.323   8.749 -0.2339  0.0155 -0.1273
  593ERGO    C2 9128   6.290  13.254   8.528  0.1522  0.0770 -0.2914
  594ERGO   ROH 9129  15.562   7.891   9.552 -0.0418  0.0285 -0.0448
  594ERGO    R1 9130  15.673   7.778   9.317  0.0310  0.0678 -0.0292
  594ERGO    R2 9131  15.517   7.673   9.114  0.0947  0.0746 -0.0812
  594ERGO    R3 9132  15.660   7.845   8.960  0.1163  0.1078 -0.0251
  594ERGO    R4 9133  15.562   7.642   8.773  0.1853  0.1214 -0.0743
  594ERGO    R5 9134  15.769   7.705   8.799  0.1718  0.1392 -0.0146
  594ERGO    C1 9135  15.722   7.785   8.429  0.2583  0.1797 -0.0175
  594ERGO    C2 9136  15.800   7.864   8.128  0.2416 -0.0784  0.0217
  595ERGO   ROH 9137  13.791   9.644   9.171 -0.3347 -0.0913 -0.0297
  595ERGO    R1 9138  13.932   9.736   8.943 -0.3062 -0.2403 -0.0730
  595ERGO    R2 9139  13.824   9.731   8.689 -0.4016 -0.1047 -0.0339
  595ERGO    R3 9140  13.887   9.995   8.692 -0.0967 -0.1728 -0.0437
  595ERGO    R4 9141  13.824   9.938   8.412 -0.1416 -0.1173 -0.0468
  595ERGO    R5 9142  14.006  10.031   8.487 -0.0371 -0.3208 -0.0371
  595ERGO    C1 9143  13.883  10.306   8.253  0.2960 -0.1887 -0.0635
  595ERGO    C2 9144  14.014  10.389   7.934 -0.1447 -0.1749 -0.0955
  596ERGO   ROH 9145  13.985   1.368   9.363  0.1522  0.1626 -0.0018
  596ERGO    R1 9146  13.905   1.493   9.122  0.0803  0.1481  0.0127
  596ERGO    R2 9147  14.080   1.636   8.963  0.0548  0.0798 -0.0913
  596ERGO    R3 9148  13.992   1.467   8.770 -0.0773  0.0667 -0.0184
  596ERGO    R4 9149  14.028   1.724   8.633 -0.0077 -0.0054 -0.1036
  596ERGO    R5 9150  13.848   1.602   8.634 -0.0542  0.0808 -0.0167
  596ERGO    C1 9151  13.915   1.616   8.259 -0.1681 -0.0673 -0.0422
  596ERGO    C2 9152  13.803   1.785   8.030  0.0013  0.1759 -0.1744
  597ERGO   ROH 9153   0.567   1.880   9.629 -0.0827  0.0570  0.1207
  597ERGO    R1 9154   0.475   1.952   9.371 -0.0138  0.2525  0.1494
  597ERGO    R2 9155   0.594   2.152   9.222  0.3150  0.0622  0.1491
  597ERGO    R3 9156   0.613   1.957   9.034 -0.0772  0.0460  0.1187
  597ERGO    R4 9157   0.661   2.205   8.887  0.3389 -0.0074  0.1427
  597ERGO    R5 9158   0.514   2.052   8.838  0.0466  0.2560  0.1531
  597ERGO    C1 9159   0.717   2.053   8.516 -0.0153 -0.0632  0.1104
  597ERGO    C2 9160   0.789   2.145   8.130  0.1576 -0.2048 -0.0784
  598ERGO   ROH 9161   3.875   4.028   9.657 -0.0524 -0.2408 -0.0436
  598ERGO    R1 9162   3.925   4.090   9.386  0.1027 -0.4076 -0.0555
  598ERGO    R2 9163   3.919   3.899   9.186 -0.3850 -0.4387 -0.0221
  598ERGO    R3 9164   3.741   4.070   9.072  0.0341  0.0042 -0.0486
  598ERGO    R4 9165   3.926   4.001   8.856 -0.2087 -0.6418 -0.0837
  598ERGO    R5 9166   3.872   4.202   8.922  0.3642 -0.4350 -0.1720
  598ERGO    C1 9167   3.762   4.221   8.557  0.2874 -0.3441 -0.1443
  598ERGO    C2 9168   3.709   4.169   8.342 -0.1470  0.3113  0.1460
  599ERGO   ROH 9169   3.264  16.648   9.393  0.0594  0.0318 -0.0282
  599ERGO    R1 9170   3.464  16.756   9.224  0.0831 -0.0584 -0.0564
  599ERGO    R2 9171   3.734  16.715   9.268  0.0675 -0.1719 -0.0903
  599ERGO    R3 9172   3.729  16.625   9.012  0.0017 -0.1750 -0.0890
  599ERGO    R4 9173   4.007  16.705   9.056 -0.0046 -0.0705 -0.1900
  599ERGO    R5 9174   3.877  16.771   8.894 -0.0936 -0.1163 -0.1443
  599ERGO    C1 9175   4.160  16.614   8.691 -0.1084 -0.0140 -0.2468
  599ERGO    C2 9176   4.351  16.504   8.372  0.0265 -0.0267 -0.0081
  600ERGO   ROH 9177   0.307  14.759   9.199  0.2722 -0.0180  0.0693
  600ERGO    R1 9178   0.230  14.799   8.929  0.0912 -0.0297  0.1176
  600ERGO    R2 9179   0.403  14.897   8.738 -0.0843  0.1244  0.0322
  600ERGO    R3 9180   0.332  14.672   8.604 -0.0006  0.0931  0.0403
  600ERGO    R4 9181   0.488  14.827   8.410 -0.0805  0.1535  0.0272
  600ERGO    R5 9182   0.288  14.747   8.381 -0.0483  0.0702  0.0431
  600ERGO    C1 9183   0.471  14.575   8.094  0.0004  0.1410  0.0320
  600ERGO    C2 9184   0.808  14.568   7.889  0.0366  0.1118  0.0013
  601ERGO   ROH 9185  13.539   2.979   9.295  0.1221  0.1097 -0.1231
  601ERGO    R1 9186  13.594   3.160   9.085  0.0770  0.0181 -0.2135
  601ERGO    R2 9187  13.638   3.077   8.825 -0.1740 -0.0788 -0.2228
  601ERGO    R3 9188  13.439   3.254   8.769 -0.1033  0.0339 -0.1226
  601ERGO    R4 9189  13.556   3.189   8.508 -0.2611 -0.0404 -0.1875
  601ERGO    R5 9190  13.527   3.389   8.592 -0.1076 -0.0175 -0.1702
  601ERGO    C1 9191  13.321   3.421   8.272 -0.2454  0.0879 -0.0729
  601ERGO    C2 9192  13.260   3.235   8.009  0.0013  0.1789  0.1646
  602ERGO   ROH 9193   2.073   8.062   9.773 -0.1633 -0.0836 -0.0304
  602ERGO    R1 9194   2.289   8.133   9.604 -0.1484  0.0110  0.0277
  602ERGO    R2 9195   2.424   7.948   9.449 -0.0207  0.0681  0.0678
  602ERGO    R3 9196   2.361   8.120   9.248 -0.0445  0.0357  0.0478
  602ERGO    R4 9197   2.480   7.888   9.113 -0.0207  0.0351  0.0738
  602ERGO    R5 9198   2.541   8.096   9.091 -0.0459  0.0385  0.0471
  602ERGO    C1 9199   2.454   8.015   8.729 -0.0432 -0.0143  0.0585
  602ERGO    C2 9200   2.465   7.677   8.450 -0.1162 -0.0296  0.1081
  603ERGO   ROH 9201  15.761  16.679   9.697 -0.1164 -0.1253 -0.0497
  603ERGO    R1 9202  15.784  16.613   9.423 -0.1298 -0.1280 -0.0497
  603ERGO    R2 9203  15.673  16.384   9.315 -0.1966 -0.0896 -0.0549
  603ERGO    R3 9204  15.557  16.560   9.143 -0.1378 -0.0537 -0.0587
  603ERGO    R4 9205  15.614  16.321   8.981 -0.2961 -0.1166 -0.0330
  603ERGO    R5 9206  15.676  16.526   8.937 -0.1935 -0.1526 -0.0781
  603ERGO    C1 9207  15.471  16.450   8.623 -0.2988 -0.0987 -0.0238
  603ERGO    C2 9208  15.373  16.172   8.523  0.4229 -0.0618 -0.0617
  604ERGO   ROH 9209  17.070   8.842   9.479  0.2894 -0.0669 -0.0067
  604ERGO    R1 9210  17.081   9.062   9.302  0.1978 -0.0064  0.0631
  604ERGO    R2 9211  17.311   9.211   9.263  0.1862 -0.0207 -0.0313
  604ERGO    R3 9212  17.267   9.151   9.002  0.0134  0.0813 -0.0289
  604ERGO    R4 9213  17.442   9.386   8.996  0.3475 -0.1503 -0.0395
  604ERGO    R5 9214  17.251   9.364   8.894  0.2737  0.1323  0.0170
  604ERGO    C1 9215  17.478   9.432   8.594  0.2792 -0.1302 -0.0421
  604ERGO    C2 9216  17.544   9.495   8.242  0.1921  0.3553 -0.2499
  605ERGO   ROH 9217  12.564  14.182   9.318  0.1112 -0.0212 -0.0415
  605ERGO    R1 9218  12.758  14.171   9.111  0.1693  0.0132  0.0125
  605ERGO    R2 9219  12.713  14.040   8.872  0.2885 -0.0612  0.0367
  605ERGO    R3 9220  12.781  14.280   8.765  0.2163 -0.0592 -0.0087
  605ERGO    R4 9221  12.760  14.100   8.535  0.0963 -0.0751  0.0055
  605ERGO    R5 9222  12.930  14.226   8.586  0.1222 -0.0618 -0.0918
  605ERGO    C1 9223  12.851  14.361   8.238 -0.0832 -0.0811 -0.0553
  605ERGO    C2 9224  12.840  14.383   7.938  0.1013 -0.1576 -0.2551
  606ERGO   ROH 9225  10.016  12.406   9.841 -0.3240  0.0535 -0.0627
  606ERGO    R1 9226   9.874  12.505   9.616 -0.2836 -0.0571 -0.1371
  606ERGO    R2 9227   9.995  12.547   9.371 -0.1880  0.0317 -0.0724
  606ERGO    R3 9228   9.794  12.387   9.282 -0.0214 -0.1217 -0.1803
  606ERGO    R4 9229   9.924  12.486   9.038 -0.2816  0.4072 -0.1269
  606ERGO    R5 9230   9.712  12.498   9.086 -0.2809  0.0518  0.0166
  606ERGO    C1 9231   9.695  12.300   8.761 -0.1796  0.4820 -0.2599
  606ERGO    C2 9232   9.512  12.156   8.565  0.2299 -0.0739  0.2085
  607ERGO   ROH 9233   2.099   7.057   9.582 -0.0632 -0.0051 -0.0717
  607ERGO    R1 9234   2.046   7.134   9.315 -0.1750  0.0868 -0.0232
  607ERGO    R2 9235   2.140   6.992   9.097 -0.0360  0.3134 -0.1115
  607ERGO    R3 9236   1.877   6.989   9.027 -0.0424  0.0600 -0.0893
  607ERGO    R4 9237   2.022   6.945   8.775  0.0002  0.4369 -0.1433
  607ERGO    R5 9238   1.872   7.099   8.814 -0.1836  0.2331 -0.0025
  607ERGO    C1 9239   1.707   6.916   8.522  0.0153  0.2710 -0.1411
  607ERGO    C2 9240   1.721   6.639   8.393 -0.2937  0.0527 -0.2781
  608ERGO   ROH 9241  12.541   0.577   9.337  0.2922 -0.0710 -0.0854
  608ERGO    R1 9242  12.587   0.620   9.061  0.0465  0.0071 -0.1163
  608ERGO    R2 9243  12.454   0.479   8.864 -0.0419 -0.0189 -0.0328
  608ERGO    R3 9244  12.392   0.728   8.774 -0.2413 -0.0329  0.0588
  608ERGO    R4 9245  12.482   0.582   8.535 -0.0792  0.1298  0.0092
  608ERGO    R5 9246  12.558   0.774   8.607 -0.2501  0.1716  0.0988
  608ERGO    C1 9247  12.439   0.876   8.259 -0.2880  0.2033  0.1196
  608ERGO    C2 9248  12.515   1.116   7.985 -0.1867 -0.2113 -0.1903
  609ERGO   ROH 9249   4.971  12.710   9.442 -0.0343 -0.1564 -0.0653
  609ERGO    R1 9250   5.210  12.689   9.291  0.0108 -0.0514 -0.0109
  609ERGO    R2 9251   5.248  12.494   9.099  0.1727 -0.0848  0.0493
  609ERGO    R3 9252   5.302  12.707   8.939  0.0697 -0.0942  0.0028
  609ERGO    R4 9253   5.415  12.477   8.796  0.2223 -0.0643  0.0764
  609ERGO    R5 9254   5.519  12.661   8.849  0.1077  0.0096  0.0434
  609ERGO    C1 9255   5.562  12.668   8.470  0.1544 -0.0612  0.0486
  609ERGO    C2 9256   5.554  12.515   8.124 -0.1115 -0.0835  0.3080
  610ERGO   ROH 9257   9.582  15.358   9.712 -0.1896  0.1873  0.0540
  610ERGO    R1 9258   9.686  15.482   9.480 -0.2615  0.2250  0.0408
  610ERGO    R2 9259   9.704  15.757   9.454 -0.0290  0.2312  0.1839
  610ERGO    R3 9260   9.965  15.701   9.399 -0.1222  0.0133 -0.0510
  610ERGO    R4 9261   9.873  15.857   9.170 -0.1126  0.3304  0.1698
  610ERGO    R5 9262   9.969  15.662   9.163 -0.3195  0.2393 -0.0900
  610ERGO    C1 9263  10.215  15.864   8.953 -0.2487  0.1835 -0.0590
  610ERGO    C2 9264  10.496  16.041   8.854 -0.2450 -0.5065  0.2447
  611ERGO   ROH 9265   8.770   0.744   9.598  0.3773  0.0227 -0.0440
  611ERGO    R1 9266   8.651   0.771   9.342  0.2394 -0.1261  0.0019
  611ERGO    R2 9267   8.610   1.017   9.223 -0.0292 -0.1797 -0.0269
  611ERGO    R3 9268   8.750   0.905   9.019 -0.0181 -0.0957 -0.0653
  611ERGO    R4 9269   8.534   1.053   8.888 -0.1312 -0.2153 -0.0080
  611ERGO    R5 9270   8.583   0.843   8.859 -0.0212 -0.1854 -0.0253
  611ERGO    C1 9271   8.622   0.969   8.501 -0.1801 -0.1572 -0.0330
  611ERGO    C2 9272   8.619   1.011   8.194 -0.1852  0.0715 -0.0811
  612ERGO   ROH 9273   7.781   6.542   9.712 -0.0014 -0.0380  0.0305
  612ERGO    R1 9274   7.747   6.619   9.441 -0.1088 -0.1263  0.0172
  612ERGO    R2 9275   7.930   6.779   9.308 -0.3688  0.1890  0.0181
  612ERGO    R3 9276   7.929   6.575   9.130  0.0134  0.1570  0.0463
  612ERGO    R4 9277   7.982   6.813   8.969 -0.2416  0.2010  0.0389
  612ERGO    R5 9278   7.826   6.666   8.934 -0.0152 -0.0255 -0.0209
  612ERGO    C1 9279   8.013   6.640   8.603  0.1913  0.1780  0.0774
  612ERGO    C2 9280   8.028   6.528   8.199  0.1745  0.2912 -0.1990
  613ERGO   ROH 9281  18.669   6.371   9.754  0.1102 -0.3854  0.2015
  613ERGO    R1 9282  18.718   6.278   9.492 -0.0580 -0.4368  0.1872
  613ERGO    R2 9283  18.515   6.203   9.320 -0.2006 -0.0394  0.1744
  613ERGO    R3 9284  18.633   6.383   9.154  0.1331 -0.2242  0.2023
  613ERGO    R4 9285  18.527   6.175   8.976 -0.2887  0.0048  0.1674
  613ERGO    R5 9286  18.733   6.249   8.982 -0.1373 -0.3870  0.1648
  613ERGO    C1 9287  18.646   6.328   8.619 -0.0265 -0.1429  0.1893
  613ERGO    C2 9288  18.542   6.303   8.288 -0.2409  0.1887 -0.0079
  614ERGO   ROH 9289   6.717  11.820   9.648 -0.0468  0.1218  0.1403
  614ERGO    R1 9290   6.745  11.794   9.368 -0.1665 -0.0554  0.1434
  614ERGO    R2 9291   6.545  11.864   9.191 -0.1188  0.1567  0.1712
  614ERGO    R3 9292   6.741  12.016   9.079  0.0785 -0.1824  0.0389
  614ERGO    R4 9293   6.527  12.011   8.878 -0.1514  0.3303  0.2530
  614ERGO    R5 9294   6.736  11.958   8.847 -0.2798 -0.0781  0.0141
  614ERGO    C1 9295   6.700  12.239   8.592  0.0148  0.1131  0.1766
  614ERGO    C2 9296   6.662  12.211   8.260  0.0079 -0.1736 -0.3051
  615ERGO   ROH 9297   6.780   8.541   9.755 -0.0257 -0.1542  0.0003
  615ERGO    R1 9298   6.850   8.361   9.548 -0.1308 -0.1749 -0.0166
  615ERGO    R2 9299   6.711   8.347   9.309  0.0067  0.0998 -0.1109
  615ERGO    R3 9300   6.958   8.386   9.201  0.1343 -0.1949  0.0606
  615ERGO    R4 9301   6.793   8.290   8.978  0.0919  0.2367 -0.1149
  615ERGO    R5 9302   6.983   8.206   9.045 -0.0659 -0.1180 -0.0705
  615ERGO    C1 9303   7.072   8.293   8.684  0.2612  0.0401  0.0437
  615ERGO    C2 9304   7.098   8.257   8.455 -0.0372  0.0217 -0.3765
  616ERGO   ROH 9305  18.449   1.715   9.402 -0.2901 -0.0956 -0.1087
  616ERGO    R1 9306  18.353   1.889   9.201 -0.0825  0.0967 -0.0452
  616ERGO    R2 9307  18.432   2.153   9.183  0.1890  0.0282  0.0893
  616ERGO    R3 9308  18.497   2.083   8.928  0.1586  0.0796  0.0672
  616ERGO    R4 9309  18.591   2.360   8.956  0.0464  0.1183  0.0704
  616ERGO    R5 9310  18.459   2.282   8.800  0.0424  0.0758  0.0944
  616ERGO    C1 9311  18.744   2.414   8.584 -0.0649  0.2190  0.0385
  616ERGO    C2 9312  18.938   2.647   8.376  0.1309  0.1705 -0.2921
  617ERGO   ROH 9313  17.267   6.435   9.891 -0.1391  0.0118  0.0898
  617ERGO    R1 9314  17.175   6.563   9.655 -0.0899 -0.0595  0.0318
  617ERGO    R2 9315  17.342   6.709   9.491 -0.0290 -0.2164 -0.0470
  617ERGO    R3 9316  17.246   6.542   9.299 -0.1150 -0.2651  0.0371
  617ERGO    R4 9317  17.306   6.793   9.158 -0.4786 -0.1889  0.0022
  617ERGO    R5 9318  17.116   6.685   9.156 -0.3973 -0.3445  0.2049
  617ERGO    C1 9319  17.195   6.685   8.783 -0.8211 -0.2185  0.1100
  617ERGO    C2 9320  17.240   7.004   8.492  0.0352  0.1786  0.0558
  618ERGO   ROH 9321   5.731   7.684   9.237 -0.2452 -0.0119 -0.2113
  618ERGO    R1 9322   5.868   7.675   8.989 -0.1391 -0.1740 -0.1494
  618ERGO    R2 9323   5.772   7.535   8.771 -0.2270 -0.0311 -0.2071
  618ERGO    R3 9324   5.800   7.775   8.646  0.1505 -0.0527 -0.1732
  618ERGO    R4 9325   5.820   7.577   8.431 -0.2878 -0.0541 -0.2180
  618ERGO    R5 9326   5.964   7.735   8.476  0.0144 -0.3134 -0.2452
  618ERGO    C1 9327   5.875   7.826   8.116  0.0311 -0.0877 -0.1925
  618ERGO    C2 9328   5.970   7.818   7.829  0.0203 -0.1464  0.0791
  619ERGO   ROH 9329   6.601   8.950   9.496  0.1834 -0.0581  0.0335
  619ERGO    R1 9330   6.781   8.990   9.282  0.3652 -0.3867  0.1178
  619ERGO    R2 9331   6.876   8.783   9.127 -0.3534 -0.5314 -0.1693
  619ERGO    R3 9332   6.782   8.935   8.922  0.1920  0.1258  0.0311
  619ERGO    R4 9333   6.981   8.758   8.799 -0.5023 -0.5358 -0.2172
  619ERGO    R5 9334   6.975   8.976   8.786  0.3550 -0.4565  0.0619
  619ERGO    C1 9335   6.954   8.886   8.416 -0.0770  0.0787 -0.0571
  619ERGO    C2 9336   6.973   9.031   8.162  0.0758  0.0075 -0.0432
  620ERGO   ROH 9337  11.526   5.478   9.376  0.1230 -0.1320 -0.0641
  620ERGO    R1 9338  11.476   5.651   9.158  0.1794 -0.0613 -0.0216
  620ERGO    R2 9339  11.651   5.677   8.945  0.0488 -0.2949 -0.1621
  620ERGO    R3 9340  11.430   5.617   8.798 -0.1548  0.0001  0.0119
  620ERGO    R4 9341  11.629   5.704   8.602 -0.2466 -0.1113 -0.1329
  620ERGO    R5 9342  11.427   5.782   8.625 -0.1486  0.0867  0.0932
  620ERGO    C1 9343  11.410   5.662   8.263 -0.6098  0.2725  0.0474
  620ERGO    C2 9344  11.675   5.546   7.998 -0.3333 -0.0727  0.2353
  621ERGO   ROH 9345  13.760   5.652   9.136 -0.0233  0.0482  0.1961
  621ERGO    R1 9346  13.805   5.673   8.858 -0.1342  0.0398  0.1767
  621ERGO    R2 9347  13.686   5.869   8.703 -0.1124  0.1038  0.2353
  621ERGO    R3 9348  13.943   5.922   8.630 -0.1177 -0.0130  0.1300
  621ERGO    R4 9349  13.779   6.061   8.431 -0.1296 -0.0004  0.1559
  621ERGO    R5 9350  13.939   5.918   8.391 -0.2010 -0.0701  0.1343
  621ERGO    C1 9351  14.074   6.223   8.204 -0.1446 -0.1706  0.0108
  621ERGO    C2 9352  14.156   6.399   7.871  0.1355 -0.0849 -0.1522
  622ERGO   ROH 9353  14.648   8.146   9.601 -0.1672 -0.1876  0.0052
  622ERGO    R1 9354  14.631   8.247   9.337 -0.0348 -0.1194  0.0218
  622ERGO    R2 9355  14.853   8.318   9.190  0.0419 -0.1200  0.1372
  622ERGO    R3 9356  14.747   8.146   9.007  0.0929 -0.0574  0.0476
  622ERGO    R4 9357  14.918   8.326   8.851  0.1533 -0.0165  0.1601
  622ERGO    R5 9358  14.708   8.282   8.814  0.1628  0.0053  0.0770
  622ERGO    C1 9359  14.857   8.170   8.482  0.2660  0.1024  0.0895
  622ERGO    C2 9360  14.850   8.018   8.175 -0.1403 -0.2446 -0.0100
  623ERGO   ROH 9361  12.028  12.313   9.567 -0.2321  0.2836 -0.0656
  623ERGO    R1 9362  11.954  12.309   9.294 -0.2045  0.2226 -0.0735
  623ERGO    R2 9363  11.941  12.076   9.147  0.1932  0.2209 -0.1306
  623ERGO    R3 9364  11.689  12.162   9.093  0.0484 -0.1789 -0.1222
  623ERGO    R4 9365  11.826  12.169   8.834  0.1343  0.3780 -0.0619
  623ERGO    R5 9366  11.718  12.333   8.929 -0.2067  0.0721  0.0902
  623ERGO    C1 9367  11.522  12.304   8.603 -0.0361  0.0943 -0.0140
  623ERGO    C2 9368  11.300  12.245   8.322 -0.1483  0.0480 -0.0850
  624ERGO   ROH 9369   3.511  12.645   9.267 -0.0916  0.0950 -0.0896
  624ERGO    R1 9370   3.546  12.747   9.006 -0.1639  0.0629 -0.1117
  624ERGO    R2 9371   3.775  12.702   8.858 -0.1809  0.0961 -0.1450
  624ERGO    R3 9372   3.599  12.609   8.673 -0.1906  0.0251 -0.1010
  624ERGO    R4 9373   3.853  12.635   8.528 -0.1647 -0.1453 -0.0940
  624ERGO    R5 9374   3.661  12.721   8.470 -0.1354 -0.1252 -0.1704
  624ERGO    C1 9375   3.733  12.508   8.162 -0.1644 -0.3525 -0.0229
  624ERGO    C2 9376   3.581  12.316   7.796 -0.2667  0.1561  0.1604
  625ERGO   ROH 9377   9.971   6.557   9.584  0.1942  0.0588 -0.0760
  625ERGO    R1 9378  10.057   6.671   9.340  0.1080  0.0108 -0.1291
  625ERGO    R2 9379  10.293   6.812   9.316  0.0801  0.0418 -0.2312
  625ERGO    R3 9380  10.342   6.634   9.117  0.0512 -0.0008 -0.2002
  625ERGO    R4 9381  10.533   6.852   9.070  0.1088 -0.0544 -0.2190
  625ERGO    R5 9382  10.391   6.770   8.926  0.0996 -0.0416 -0.2172
  625ERGO    C1 9383  10.719   6.708   8.740  0.0986 -0.1505 -0.1826
  625ERGO    C2 9384  10.949   6.777   8.639 -0.3961 -0.3653 -0.1592
  626ERGO   ROH 9385   6.819   6.926   9.383 -0.1583 -0.1513 -0.1340
  626ERGO    R1 9386   6.901   6.803   9.141 -0.0878 -0.1814 -0.0953
  626ERGO    R2 9387   6.767   6.840   8.903  0.0359 -0.1369 -0.1587
  626ERGO    R3 9388   7.013   6.913   8.813  0.1036 -0.2222 -0.0445
  626ERGO    R4 9389   6.872   6.819   8.574  0.1610 -0.1196 -0.1204
  626ERGO    R5 9390   7.066   6.750   8.645  0.1041 -0.2136 -0.0529
  626ERGO    C1 9391   7.164   6.875   8.298  0.2973 -0.1896  0.0091
  626ERGO    C2 9392   7.152   6.959   8.020 -0.0444 -0.4841  0.0692
  627ERGO   ROH 9393  13.138   3.178   9.160 -0.2590 -0.0390 -0.0117
  627ERGO    R1 9394  13.000   3.213   8.916 -0.2298  0.1211 -0.0061
  627ERGO    R2 9395  12.907   3.459   8.832  0.0591  0.2324 -0.0074
  627ERGO    R3 9396  13.050   3.400   8.608 -0.0197  0.0563 -0.0131
  627ERGO    R4 9397  12.842   3.586   8.517  0.0918  0.1706 -0.0394
  627ERGO    R5 9398  12.885   3.389   8.434 -0.0589  0.1103  0.0196
  627ERGO    C1 9399  12.938   3.605   8.123  0.0369 -0.0307 -0.0634
  627ERGO    C2 9400  12.833   3.581   7.730 -0.1695  0.0966  0.2870
  628ERGO   ROH 9401   3.422   8.213   9.467  0.0020 -0.0442 -0.0474
  628ERGO    R1 9402   3.442   8.331   9.211 -0.1218 -0.0387 -0.0559
  628ERGO    R2 9403   3.463   8.182   8.979 -0.0047 -0.0351 -0.0514
  628ERGO    R3 9404   3.248   8.330   8.903 -0.1450 -0.2302 -0.0404
  628ERGO    R4 9405   3.391   8.273   8.654  0.2182  0.3907  0.0119
  628ERGO    R5 9406   3.331   8.469   8.727 -0.1554  0.1876  0.2735
  628ERGO    C1 9407   3.147   8.465   8.392  0.2162  0.4554  0.0591
  628ERGO    C2 9408   3.122   8.640   8.040 -0.2028 -0.0630 -0.0059
  629ERGO   ROH 9409   8.412   3.130   9.619 -0.0510  0.2430  0.1248
  629ERGO    R1 9410   8.462   3.332   9.428  0.0654  0.1621  0.0694
  629ERGO    R2 9411   8.714   3.437   9.384  0.1294 -0.0138  0.0221
  629ERGO    R3 9412   8.663   3.367   9.126  0.0639 -0.0444  0.0426
  629ERGO    R4 9413   8.910   3.523   9.113  0.0869 -0.0810 -0.0310
  629ERGO    R5 9414   8.729   3.558   8.999  0.0659 -0.0705  0.0015
  629ERGO    C1 9415   8.977   3.508   8.714  0.0008 -0.1489 -0.0428
  629ERGO    C2 9416   9.215   3.336   8.481 -0.1731 -0.1216 -0.1413
  630ERGO   ROH 9417   3.210  14.531   9.186 -0.1462  0.0182  0.0043
  630ERGO    R1 9418   3.287  14.693   8.967 -0.0353  0.0414  0.0605
  630ERGO    R2 9419   3.548  14.706   8.876 -0.0119 -0.0393  0.1204
  630ERGO    R3 9420   3.434  14.641   8.638  0.0146  0.0653  0.0782
  630ERGO    R4 9421   3.720  14.670   8.578  0.0420 -0.0232  0.1491
  630ERGO    R5 9422   3.555  14.771   8.477  0.0991  0.0655  0.1390
  630ERGO    C1 9423   3.713  14.588   8.182  0.0982  0.0846  0.1262
  630ERGO    C2 9424   3.970  14.573   7.860  0.1008 -0.0721 -0.0447
  631ERGO   ROH 9425   5.111   8.422   9.496 -0.0044 -0.2006  0.0198
  631ERGO    R1 9426   4.954   8.492   9.271  0.0861  0.1117  0.0453
  631ERGO    R2 9427   5.049   8.655   9.068  0.3751 -0.0515  0.0191
  631ERGO    R3 9428   4.974   8.446   8.910 -0.0503  0.0751  0.0478
  631ERGO    R4 9429   4.934   8.684   8.743  0.1011  0.1187  0.1304
  631ERGO    R5 9430   4.786   8.530   8.787 -0.0503  0.3189  0.2351
  631ERGO    C1 9431   4.796   8.506   8.406 -0.4578  0.3366  0.2221
  631ERGO    C2 9432   4.650   8.635   8.152 -0.0011 -0.0882 -0.1781
  632ERGO   ROH 9433   4.070   5.707   9.919 -0.1551  0.0973  0.0076
  632ERGO    R1 9434   4.172   5.752   9.659 -0.0601  0.1929  0.0597
  632ERGO    R2 9435   4.026   5.698   9.430  0.1162  0.0300 -0.0213
  632ERGO    R3 9436   4.083   5.957   9.371 -0.1224  0.0893  0.0061
  632ERGO    R4 9437   3.976   5.845   9.122  0.0399  0.0049 -0.0202
  632ERGO    R5 9438   4.165   5.950   9.147 -0.0685  0.1865  0.0256
  632ERGO    C1 9439   3.999   6.175   8.887 -0.2286  0.0459  0.0061
  632ERGO    C2 9440   3.973   6.231   8.498  0.2475  0.5607  0.0748
  633ERGO   ROH 9441   3.928   4.968   9.716 -0.0183 -0.0043 -0.0475
  633ERGO    R1 9442   3.776   5.084   9.507 -0.1545  0.0516  0.0829
  633ERGO    R2 9443   3.730   5.356   9.491  0.0461  0.0791  0.0549
  633ERGO    R3 9444   3.834   5.326   9.242 -0.2533 -0.0749 -0.0582
  633ERGO    R4 9445   3.655   5.558   9.221  0.1898  0.3210  0.1906
  633ERGO    R5 9446   3.652   5.380   9.095 -0.3040  0.3459  0.1345
  633ERGO    C1 9447   3.709   5.647   8.829 -0.0076  0.3173  0.1635
  633ERGO    C2 9448   3.781   5.793   8.503 -0.2428  0.1044 -0.2116
  634ERGO   ROH 9449   1.161  17.507   9.384 -0.0423 -0.0069 -0.0884
  634ERGO    R1 9450   1.282  17.594   9.144  0.1374 -0.0824 -0.0287
  634ERGO    R2 9451   1.456  17.436   8.999 -0.0467 -0.2774 -0.0491
  634ERGO    R3 9452   1.283  17.489   8.795  0.0655  0.0440 -0.0668
  634ERGO    R4 9453   1.544  17.461   8.665  0.0381 -0.3764 -0.0339
  634ERGO    R5 9454   1.407  17.629   8.646  0.3221 -0.1409 -0.0301
  634ERGO    C1 9455   1.434  17.524   8.281  0.1927 -0.1325 -0.0416
  634ERGO    C2 9456   1.309  17.476   8.008 -0.0437  0.0399  0.0375
  635ERGO   ROH 9457   3.582   7.564   9.685  0.0849 -0.1102  0.0427
  635ERGO    R1 9458   3.429   7.614   9.452  0.1200 -0.1024  0.0217
  635ERGO    R2 9459   3.533   7.744   9.231  0.1505 -0.0884  0.0464
  635ERGO    R3 9460   3.444   7.522   9.101  0.1765 -0.0830  0.0185
  635ERGO    R4 9461   3.441   7.735   8.898  0.2455 -0.0779  0.0193
  635ERGO    R5 9462   3.275   7.605   8.953  0.2220 -0.0711 -0.0292
  635ERGO    C1 9463   3.305   7.522   8.581  0.3252 -0.0668 -0.0227
  635ERGO    C2 9464   3.209   7.515   8.312  0.0144  0.1347 -0.0998
  636ERGO   ROH 9465   8.601   5.573   9.730  0.0896 -0.1733  0.0249
  636ERGO    R1 9466   8.570   5.695   9.477  0.1526 -0.0476  0.0767
  636ERGO    R2 9467   8.679   5.589   9.246  0.0935 -0.0087  0.0294
  636ERGO    R3 9468   8.423   5.605   9.156  0.1001  0.1676  0.0393
  636ERGO    R4 9469   8.587   5.638   8.916  0.1110  0.0010  0.0259
  636ERGO    R5 9470   8.430   5.772   8.985  0.2150  0.1313  0.0094
  636ERGO    C1 9471   8.293   5.682   8.640  0.1273  0.1721  0.0332
  636ERGO    C2 9472   8.131   5.577   8.427  0.1280 -0.1997 -0.0518
  637ERGO   ROH 9473   8.370   4.533   9.515  0.0022 -0.1868 -0.0377
  637ERGO    R1 9474   8.536   4.542   9.286  0.0076  0.0933 -0.0258
  637ERGO    R2 9475   8.513   4.361   9.079  0.3203  0.0590 -0.0332
  637ERGO    R3 9476   8.489   4.585   8.927 -0.0381  0.0292 -0.0280
  637ERGO    R4 9477   8.475   4.363   8.735  0.4814  0.0023 -0.0525
  637ERGO    R5 9478   8.610   4.534   8.727  0.1627  0.2701  0.0262
  637ERGO    C1 9479   8.429   4.575   8.393  0.2386 -0.0587 -0.0589
  637ERGO    C2 9480   8.194   4.470   8.102 -0.1206 -0.3321  0.2118
  638ERGO   ROH 9481   7.222  13.388   9.513  0.0375 -0.1596  0.0954
  638ERGO    R1 9482   7.327  13.414   9.251  0.0076  0.0344  0.1023
  638ERGO    R2 9483   7.221  13.279   9.035  0.2373 -0.1271  0.0965
  638ERGO    R3 9484   7.207  13.529   8.927 -0.1708 -0.1381  0.1025
  638ERGO    R4 9485   7.252  13.351   8.698  0.4109 -0.0607  0.1238
  638ERGO    R5 9486   7.370  13.527   8.751  0.0143  0.1919  0.2513
  638ERGO    C1 9487   7.257  13.627   8.401  0.1289 -0.0324  0.1453
  638ERGO    C2 9488   7.109  13.662   8.191 -0.3659 -0.2937 -0.0521
  639ERGO   ROH 9489   7.394   2.785   9.356 -0.1680  0.0002  0.1249
  639ERGO    R1 9490   7.239   2.687   9.141 -0.0896  0.1026  0.0195
  639ERGO    R2 9491   7.257   2.791   8.885  0.0721  0.1640  0.0507
  639ERGO    R3 9492   7.303   2.531   8.818  0.0292  0.1670  0.0125
  639ERGO    R4 9493   7.288   2.673   8.562  0.0870  0.2058  0.0374
  639ERGO    R5 9494   7.173   2.497   8.620  0.0484  0.2216 -0.0060
  639ERGO    C1 9495   7.349   2.361   8.310  0.0554  0.2329 -0.0060
  639ERGO    C2 9496   7.500   2.377   8.004 -0.2024  0.1348  0.1417
  640ERGO   ROH 9497   6.554  14.727   9.572 -0.0967  0.0162 -0.3609
  640ERGO    R1 9498   6.628  14.702   9.299 -0.0122 -0.0636 -0.3325
  640ERGO    R2 9499   6.653  14.458   9.173 -0.0873 -0.0990 -0.2868
  640ERGO    R3 9500   6.478  14.568   8.996  0.0273 -0.0393 -0.3617
  640ERGO    R4 9501   6.587  14.334   8.857  0.0164 -0.0652 -0.3206
  640ERGO    R5 9502   6.584  14.539   8.783  0.1128 -0.0634 -0.3145
  640ERGO    C1 9503   6.386  14.366   8.506  0.1843  0.0104 -0.4107
  640ERGO    C2 9504   6.288  14.155   8.371  0.0059  0.0327  0.1423
  641ERGO   ROH 9505  12.541   5.428   9.171 -0.0741 -0.1614 -0.1432
  641ERGO    R1 9506  12.569   5.584   8.937 -0.0393 -0.0719 -0.0803
  641ERGO    R2 9507  12.717   5.500   8.719  0.0342  0.0313 -0.0740
  641ERGO    R3 9508  12.486   5.550   8.584  0.0593  0.0382 -0.1140
  641ERGO    R4 9509  12.699   5.581   8.384  0.0992  0.1873 -0.0409
  641ERGO    R5 9510  12.544   5.727   8.432  0.0523  0.1232 -0.0145
  641ERGO    C1 9511  12.472   5.674   8.061  0.1607  0.2846 -0.0592
  641ERGO    C2 9512  12.299   5.684   7.806  0.0329 -0.2049 -0.2344
  642ERGO   ROH 9513   0.499   0.890   9.328 -0.0156 -0.1072 -0.2244
  642ERGO    R1 9514   0.558   0.994   9.072 -0.0486 -0.0791 -0.2210
  642ERGO    R2 9515   0.554   0.839   8.844 -0.0413 -0.0628 -0.2332
  642ERGO    R3 9516   0.383   1.031   8.755 -0.0760 -0.0814 -0.2060
  642ERGO    R4 9517   0.449   0.874   8.516 -0.0738 -0.0568 -0.2219
  642ERGO    R5 9518   0.467   1.090   8.539 -0.1026 -0.0556 -0.2094
  642ERGO    C1 9519   0.228   1.075   8.242 -0.1253 -0.0707 -0.1899
  642ERGO    C2 9520   0.124   0.995   7.903 -0.1145 -0.1494  0.2449
  643ERGO   ROH 9521   6.668   7.790   9.548 -0.1571 -0.0094 -0.0039
  643ERGO    R1 9522   6.743   7.885   9.292 -0.1959 -0.0371 -0.0255
  643ERGO    R2 9523   6.909   7.742   9.123 -0.0855  0.0194  0.0343
  643ERGO    R3 9524   6.704   7.776   8.947 -0.0926 -0.1684  0.0040
  643ERGO    R4 9525   6.946   7.762   8.780 -0.0583  0.0393  0.0378
  643ERGO    R5 9526   6.795   7.920   8.778 -0.1983 -0.0939  0.0108
  643ERGO    C1 9527   6.775   7.804   8.415 -0.0492 -0.1255  0.0114
  643ERGO    C2 9528   6.801   7.650   8.257  0.1687 -0.3998 -0.1224
  644ERGO   ROH 9529  11.680   3.463   9.166  0.3233 -0.2502 -0.0195
  644ERGO    R1 9530  11.654   3.523   8.891  0.2087 -0.3789 -0.0384
  644ERGO    R2 9531  11.757   3.752   8.778 -0.3641 -0.1150 -0.0758
  644ERGO    R3 9532  11.878   3.576   8.609  0.1297  0.1438 -0.0099
  644ERGO    R4 9533  11.830   3.815   8.446 -0.3178  0.0321 -0.0379
  644ERGO    R5 9534  11.769   3.611   8.399  0.1658 -0.1120 -0.0695
  644ERGO    C1 9535  11.986   3.687   8.094  0.1728  0.3608  0.0461
  644ERGO    C2 9536  11.968   3.880   7.886  0.0052 -0.0219  0.3211
  645ERGO   ROH 9537  17.851  13.809   9.066  0.0762  0.1737 -0.0562
  645ERGO    R1 9538  17.914  13.980   8.849 -0.0563  0.1468 -0.1168
  645ERGO    R2 9539  18.154  13.966   8.714 -0.0123  0.3328 -0.0648
  645ERGO    R3 9540  17.993  13.940   8.496  0.0506  0.0740 -0.0844
  645ERGO    R4 9541  18.245  14.049   8.391 -0.1362  0.5493 -0.0459
  645ERGO    R5 9542  18.045  14.132   8.362 -0.2865  0.1918 -0.0509
  645ERGO    C1 9543  18.147  14.074   7.999 -0.1491  0.4325 -0.0530
  645ERGO    C2 9544  18.409  14.154   7.787  0.2616  0.1627 -0.2346
  646ERGO   ROH 9545   6.147  16.857   9.502 -0.1481  0.2634 -0.0692
  646ERGO    R1 9546   6.334  16.778   9.305 -0.1035  0.1292  0.0266
  646ERGO    R2 9547   6.314  16.854   9.040 -0.0889 -0.1181 -0.0465
  646ERGO    R3 9548   6.568  16.943   9.080 -0.1149 -0.0192 -0.0972
  646ERGO    R4 9549   6.562  16.858   8.799 -0.0641 -0.2966 -0.0248
  646ERGO    R5 9550   6.704  16.793   8.951 -0.0656 -0.1179  0.0614
  646ERGO    C1 9551   6.944  16.943   8.696 -0.0741 -0.3076 -0.0598
  646ERGO    C2 9552   7.194  16.912   8.421  0.0219  0.4169  0.1708
  647ERGO   ROH 9553  18.001   7.455   9.924  0.1243  0.2089  0.0031
  647ERGO    R1 9554  17.933   7.434   9.650  0.0672  0.1293  0.0228
  647ERGO    R2 9555  17.875   7.655   9.495 -0.0299  0.0787 -0.0129
  647ERGO    R3 9556  18.070   7.553   9.334 -0.0380  0.0978 -0.0350
  647ERGO    R4 9557  17.848   7.617   9.152 -0.0838  0.0301 -0.0034
  647ERGO    R5 9558  17.950   7.424   9.171 -0.0416  0.0529  0.0026
  647ERGO    C1 9559  18.015   7.499   8.802 -0.1229  0.0197 -0.0188
  647ERGO    C2 9560  17.940   7.539   8.463  0.2065 -0.0009 -0.0587
  648ERGO   ROH 9561   9.639   5.643   9.475 -0.2484  0.0376  0.0161
  648ERGO    R1 9562   9.674   5.558   9.207 -0.0596  0.0894  0.0231
  648ERGO    R2 9563   9.462   5.506   9.037  0.0537 -0.1594 -0.0485
  648ERGO    R3 9564   9.590   5.684   8.876 -0.1053  0.0023  0.0011
  648ERGO    R4 9565   9.384   5.564   8.706 -0.2279  0.1184  0.0622
  648ERGO    R5 9566   9.597   5.576   8.662 -0.2626  0.1884 -0.1019
  648ERGO    C1 9567   9.458   5.764   8.361 -0.5412  0.4320  0.1733
  648ERGO    C2 9568   9.211   5.871   8.042  0.1851 -0.3486 -0.0297
  649ERGO   ROH 9569   8.625  15.702   9.491  0.0165  0.2590  0.1823
  649ERGO    R1 9570   8.821  15.739   9.290  0.0035  0.2106  0.1608
  649ERGO    R2 9571   8.820  15.598   9.053 -0.0658  0.2221  0.1566
  649ERGO    R3 9572   8.827  15.846   8.943 -0.0048  0.2242  0.1642
  649ERGO    R4 9573   8.936  15.670   8.735 -0.1701  0.1791  0.1081
  649ERGO    R5 9574   9.030  15.849   8.816 -0.0553  0.1372  0.0763
  649ERGO    C1 9575   9.010  15.945   8.447 -0.1736  0.1561  0.0870
  649ERGO    C2 9576   9.055  16.041   8.189 -0.1460  0.0417  0.1786
  650ERGO   ROH 9577   2.426   5.970   9.406  0.1671  0.0777  0.0144
  650ERGO    R1 9578   2.334   6.042   9.148 -0.0314 -0.0850  0.0386
  650ERGO    R2 9579   2.502   6.059   8.929 -0.1585  0.0038 -0.0488
  650ERGO    R3 9580   2.322   5.887   8.819 -0.0588 -0.1955  0.0899
  650ERGO    R4 9581   2.492   5.971   8.595 -0.2401 -0.0988 -0.0209
  650ERGO    R5 9582   2.275   5.981   8.604 -0.2512 -0.2959  0.0833
  650ERGO    C1 9583   2.318   5.759   8.297 -0.1941 -0.3455  0.1255
  650ERGO    C2 9584   2.335   5.667   8.072 -0.0423 -0.0686  0.1208
  651ERGO   ROH 9585  17.177  10.250   9.371 -0.1624  0.1499 -0.0552
  651ERGO    R1 9586  17.119  10.220   9.096 -0.1472 -0.0731 -0.0360
  651ERGO    R2 9587  17.022  10.426   8.941 -0.2285 -0.2232 -0.1888
  651ERGO    R3 9588  17.235  10.366   8.784 -0.2026 -0.2519 -0.1419
  651ERGO    R4 9589  17.019  10.427   8.595 -0.1324 -0.1375 -0.1894
  651ERGO    R5 9590  17.141  10.246   8.599 -0.1892 -0.1775 -0.1977
  651ERGO    C1 9591  17.217  10.371   8.246 -0.0517 -0.1146 -0.1456
  651ERGO    C2 9592  17.385  10.406   7.953 -0.0541  0.2193  0.0906
  652ERGO   ROH 9593  14.335   2.049   9.506  0.2402  0.0602 -0.0629
  652ERGO    R1 9594  14.439   2.085   9.245  0.0242  0.3086 -0.1173
  652ERGO    R2 9595  14.460   1.878   9.064  0.3825  0.3640 -0.1338
  652ERGO    R3 9596  14.317   2.045   8.904 -0.0753  0.0654 -0.0583
  652ERGO    R4 9597  14.446   1.857   8.719  0.6427  0.5927 -0.1625
  652ERGO    R5 9598  14.455   2.075   8.711 -0.0386  0.6633  0.0326
  652ERGO    C1 9599  14.303   2.002   8.368  0.3646  0.4456 -0.1082
  652ERGO    C2 9600  14.263   2.006   8.054 -0.0634  0.2574 -0.0889
  653ERGO   ROH 9601  11.102  14.279   9.657 -0.2490  0.0878  0.1617
  653ERGO    R1 9602  11.138  14.313   9.379 -0.0473 -0.0405  0.1692
  653ERGO    R2 9603  11.289  14.139   9.226 -0.0527 -0.1977  0.3288
  653ERGO    R3 9604  11.062  14.124   9.077  0.0282 -0.1111  0.1964
  653ERGO    R4 9605  11.280  14.115   8.881  0.1207  0.0283  0.3069
  653ERGO    R5 9606  11.111  14.252   8.881  0.1197  0.0163  0.3067
  653ERGO    C1 9607  11.062  14.086   8.541  0.2975  0.2413  0.1699
  653ERGO    C2 9608  11.133  14.029   8.255  0.2998 -0.0323 -0.1241
  654ERGO   ROH 9609   5.127   2.920   9.843  0.2308 -0.3454  0.4515
  654ERGO    R1 9610   5.140   2.799   9.588  0.0994 -0.3443  0.4438
  654ERGO    R2 9611   5.274   2.913   9.374 -0.3767 -0.1228  0.2465
  654ERGO    R3 9612   5.401   2.673   9.368  0.0345  0.0888  0.1068
  654ERGO    R4 9613   5.344   2.734   9.087 -0.3818 -0.0048  0.1707
  654ERGO    R5 9614   5.291   2.552   9.193  0.0485 -0.1023  0.2309
  654ERGO    C1 9615   5.504   2.404   8.914  0.0012  0.2624 -0.0048
  654ERGO    C2 9616   5.845   2.296   8.778  0.2092  0.0073 -0.4196
  655ERGO   ROH 9617  16.851   5.584   9.379 -0.0315 -0.0899 -0.1198
  655ERGO    R1 9618  16.813   5.819   9.227 -0.1585 -0.1367 -0.1627
  655ERGO    R2 9619  17.015   6.004   9.186 -0.3357  0.1169  0.0587
  655ERGO    R3 9620  16.953   5.964   8.924 -0.0002  0.0319 -0.0115
  655ERGO    R4 9621  17.005   6.252   8.946 -0.4977  0.1225  0.0712
  655ERGO    R5 9622  16.826   6.158   8.863 -0.2616 -0.1697 -0.1241
  655ERGO    C1 9623  16.941   6.359   8.560 -0.2770  0.0461  0.0126
  655ERGO    C2 9624  16.974   6.584   8.242 -0.0592  0.0894 -0.0225
  656ERGO   ROH 9625   1.434  15.006   7.858 -0.2792  0.1349  0.2447
  656ERGO    R1 9626   1.276  15.036   7.625 -0.2240  0.0940  0.2007
  656ERGO    R2 9627   1.091  15.238   7.596 -0.2309  0.0829  0.1252
  656ERGO    R3 9628   1.230  15.289   7.368 -0.1731  0.0567  0.1561
  656ERGO    R4 9629   1.002  15.472   7.357 -0.3133 -0.1359 -0.0606
  656ERGO    R5 9630   1.062  15.330   7.203 -0.1311 -0.1802  0.0546
  656ERGO    C1 9631   1.081  15.655   7.004 -0.3069 -0.2877 -0.1395
  656ERGO    C2 9632   1.105  15.838   6.719  0.0441 -0.3296  0.1641
  657ERGO   ROH 9633   0.686   5.333  10.059  0.1647  0.0236  0.1779
  657ERGO    R1 9634   0.787   5.239   9.812  0.0548  0.0325  0.1291
  657ERGO    R2 9635   0.625   5.126   9.618 -0.0331  0.0505  0.1924
  657ERGO    R3 9636   0.738   5.316   9.460 -0.0924  0.0533  0.1532
  657ERGO    R4 9637   0.676   5.095   9.278 -0.2264  0.0821  0.1596
  657ERGO    R5 9638   0.869   5.192   9.302 -0.1969  0.0511  0.0653
  657ERGO    C1 9639   0.811   5.255   8.931 -0.3947  0.1031  0.1038
  657ERGO    C2 9640   0.771   5.123   8.750 -0.0505 -0.0519  0.4108
  658ERGO   ROH 9641   2.858  17.947   9.138  0.0524 -0.0726  0.1558
  658ERGO    R1 9642   2.893  18.012   8.865 -0.0259  0.0296  0.1694
  658ERGO    R2 9643   3.143  18.023   8.745 -0.0546  0.1711  0.1259
  658ERGO    R3 9644   3.031  17.847   8.571 -0.0134  0.1809  0.0889
  658ERGO    R4 9645   3.280  17.929   8.442  0.0018  0.2208  0.1355
  658ERGO    R5 9646   3.081  17.936   8.355  0.0120  0.2131  0.1061
  658ERGO    C1 9647   3.255  17.709   8.103  0.0733  0.2589  0.1062
  658ERGO    C2 9648   3.147  17.552   7.703  0.1285  0.1377 -0.3651
  659ERGO   ROH 9649  10.297  11.472   9.571 -0.0407  0.0670  0.0510
  659ERGO    R1 9650  10.240  11.537   9.302  0.0385  0.1303  0.0489
  659ERGO    R2 9651  10.411  11.687   9.145  0.1539  0.0440  0.0893
  659ERGO    R3 9652  10.391  11.474   8.977  0.0498  0.0722  0.0657
  659ERGO    R4 9653  10.538  11.677   8.824  0.0196  0.0668  0.0348
  659ERGO    R5 9654  10.357  11.572   8.761 -0.0223  0.1070  0.0939
  659ERGO    C1 9655  10.593  11.471   8.479 -0.1562  0.1065 -0.0189
  659ERGO    C2 9656  10.763  11.566   8.201 -0.1085  0.0232 -0.2876
  660ERGO   ROH 9657   9.852   1.590   9.394  0.1430  0.2628 -0.0358
  660ERGO    R1 9658   9.825   1.704   9.137  0.0754  0.1130 -0.0954
  660ERGO    R2 9659   9.951   1.600   8.914  0.0424  0.0033 -0.0602
  660ERGO    R3 9660   9.699   1.597   8.812  0.0222 -0.0867 -0.0111
  660ERGO    R4 9661   9.873   1.571   8.578 -0.0098  0.0243 -0.0506
  660ERGO    R5 9662   9.716   1.720   8.607 -0.0681 -0.0451  0.0040
  660ERGO    C1 9663   9.591   1.553   8.288 -0.0592 -0.0481  0.0009
  660ERGO    C2 9664   9.521   1.400   8.044  0.2979  0.0385 -0.3113
  661ERGO   ROH 9665  17.967   8.537   9.673  0.2303  0.0940  0.1540
  661ERGO    R1 9666  17.996   8.641   9.411  0.2947  0.0872  0.1578
  661ERGO    R2 9667  18.177   8.539   9.230  0.1498 -0.0988  0.1125
  661ERGO    R3 9668  17.957   8.517   9.071  0.0904  0.1579  0.1543
  661ERGO    R4 9669  18.184   8.504   8.886  0.0395 -0.0803  0.1081
  661ERGO    R5 9670  18.013   8.640   8.874  0.1865  0.1112  0.1534
  661ERGO    C1 9671  17.982   8.462   8.537 -0.0805  0.1713  0.1447
  661ERGO    C2 9672  17.794   8.339   8.230 -0.1093  0.1317 -0.0569
  662ERGO   ROH 9673   0.184  18.392   8.879 -0.1092  0.0384 -0.0044
  662ERGO    R1 9674   0.070  18.400   8.620 -0.1465 -0.1876  0.0029
  662ERGO    R2 9675   0.208  18.494   8.399 -0.3072 -0.0164 -0.0248
  662ERGO    R3 9676   0.141  18.252   8.294  0.0545 -0.1452  0.0255
  662ERGO    R4 9677   0.266  18.398   8.073 -0.3661  0.0957 -0.0690
  662ERGO    R5 9678   0.070  18.303   8.071 -0.2023 -0.2660  0.0743
  662ERGO    C1 9679   0.237  18.116   7.784 -0.0609  0.0402 -0.0476
  662ERGO    C2 9680   0.389  18.108   7.480  0.2357  0.0709  0.0700
  663ERGO   ROH 9681   9.935  14.135   9.525  0.1894 -0.0335  0.0388
  663ERGO    R1 9682  10.062  14.022   9.299  0.1412 -0.0569  0.0238
  663ERGO    R2 9683   9.920  13.908   9.091  0.0958 -0.0240  0.0388
  663ERGO    R3 9684  10.065  14.082   8.940  0.1161 -0.0538  0.0234
  663ERGO    R4 9685   9.946  13.895   8.746 -0.0572  0.0473  0.0236
  663ERGO    R5 9686  10.158  13.945   8.766 -0.0217 -0.0580 -0.0509
  663ERGO    C1 9687  10.097  14.050   8.404 -0.1273  0.0608  0.0002
  663ERGO    C2 9688  10.196  13.947   8.067 -0.2599 -0.1589  0.4467
  664ERGO   ROH 9689  13.587  16.451   9.356 -0.2257 -0.1048  0.0839
  664ERGO    R1 9690  13.673  16.572   9.115 -0.1522 -0.0747  0.1243
  664ERGO    R2 9691  13.697  16.432   8.878 -0.0027 -0.0651  0.1287
  664ERGO    R3 9692  13.534  16.628   8.783 -0.0209 -0.1117  0.0640
  664ERGO    R4 9693  13.664  16.517   8.544  0.1757  0.0033  0.1275
  664ERGO    R5 9694  13.658  16.727   8.603  0.0502 -0.0172  0.1695
  664ERGO    C1 9695  13.492  16.750   8.261  0.2625 -0.0005  0.0659
  664ERGO    C2 9696  13.548  16.706   7.882 -0.0423 -0.2037  0.0311
  665ERGO   ROH 9697  10.965   8.043   9.533  0.0771  0.0462 -0.0910
  665ERGO    R1 9698  10.893   7.911   9.293  0.1290 -0.0426 -0.0595
  665ERGO    R2 9699  10.703   8.011   9.118 -0.0339 -0.2385 -0.0112
  665ERGO    R3 9700  10.904   7.985   8.937 -0.0581 -0.0496 -0.0654
  665ERGO    R4 9701  10.669   8.049   8.776 -0.0927 -0.0344  0.0169
  665ERGO    R5 9702  10.802   7.880   8.748 -0.0416  0.0381 -0.1151
  665ERGO    C1 9703  10.838   8.046   8.407 -0.1499  0.2620 -0.0175
  665ERGO    C2 9704  10.792   7.880   8.090  0.1029  0.2236 -0.0477
  666ERGO   ROH 9705  11.278  13.094   9.418 -0.0182 -0.0683  0.0103
  666ERGO    R1 9706  11.273  13.208   9.158 -0.0247  0.0634  0.0680
  666ERGO    R2 9707  11.390  13.086   8.940  0.2069  0.3043  0.0557
  666ERGO    R3 9708  11.143  13.115   8.831  0.2217  0.0929 -0.0412
  666ERGO    R4 9709  11.322  13.085   8.601  0.3486  0.2820  0.0261
  666ERGO    R5 9710  11.180  13.246   8.634  0.1859  0.1518 -0.0110
  666ERGO    C1 9711  11.050  13.111   8.302  0.4450  0.0705 -0.0820
  666ERGO    C2 9712  11.202  13.168   8.012  0.1937 -0.0410  0.0973
  667ERGO   ROH 9713   5.356  10.920   9.274  0.0714  0.0922  0.0576
  667ERGO    R1 9714   5.458  11.075   9.060  0.1660  0.1682  0.1576
  667ERGO    R2 9715   5.724  11.150   9.044  0.2872 -0.2633  0.0415
  667ERGO    R3 9716   5.708  11.034   8.799 -0.1050  0.0400 -0.0872
  667ERGO    R4 9717   5.941  11.212   8.783  0.2197 -0.3643 -0.0399
  667ERGO    R5 9718   5.770  11.209   8.647  0.1074  0.1066  0.0710
  667ERGO    C1 9719   6.053  11.140   8.400 -0.1879 -0.1384 -0.2080
  667ERGO    C2 9720   6.266  11.316   8.238  0.1741 -0.0314  0.1170
  668ERGO   ROH 9721   6.651  10.092   9.601 -0.0392 -0.0618  0.1866
  668ERGO    R1 9722   6.771  10.011   9.358  0.0560  0.1514  0.1617
  668ERGO    R2 9723   6.627   9.903   9.149  0.2013 -0.1160  0.1995
  668ERGO    R3 9724   6.745  10.103   9.007 -0.1879  0.1009  0.1641
  668ERGO    R4 9725   6.655   9.909   8.805  0.6641 -0.4164  0.2223
  668ERGO    R5 9726   6.857   9.988   8.828  0.4175  0.2221  0.4362
  668ERGO    C1 9727   6.782  10.099   8.470  0.5681 -0.3877  0.2025
  668ERGO    C2 9728   6.776  10.110   8.078 -0.0291 -0.1130 -0.1762
  669ERGO   ROH 9729   2.759   5.113   9.607  0.1626  0.0032 -0.1882
  669ERGO    R1 9730   2.810   5.069   9.332  0.0210  0.0314 -0.2194
  669ERGO    R2 9731   2.656   4.901   9.177 -0.0945  0.0946 -0.1708
  669ERGO    R3 9732   2.633   5.120   9.018 -0.1149  0.1232 -0.1293
  669ERGO    R4 9733   2.612   4.892   8.834 -0.0580  0.1536 -0.1774
  669ERGO    R5 9734   2.750   5.061   8.818 -0.0832  0.1813 -0.1298
  669ERGO    C1 9735   2.565   5.094   8.486 -0.0558  0.2149 -0.1425
  669ERGO    C2 9736   2.506   5.247   8.275  0.1051  0.1693  0.0510
  670ERGO   ROH 9737   8.394  10.223   9.705 -0.1653  0.1603 -0.1068
  670ERGO    R1 9738   8.323  10.233   9.431 -0.0618  0.0771 -0.1381
  670ERGO    R2 9739   8.346  10.463   9.280 -0.1270  0.0680 -0.1691
  670ERGO    R3 9740   8.493  10.304   9.117  0.0276  0.1188 -0.0797
  670ERGO    R4 9741   8.409  10.528   8.947 -0.2748 -0.1093 -0.2321
  670ERGO    R5 9742   8.381  10.316   8.906 -0.0315 -0.1750 -0.0658
  670ERGO    C1 9743   8.584  10.416   8.599 -0.2159 -0.1649 -0.1851
  670ERGO    C2 9744   8.624  10.475   8.301  0.3089  0.1884  0.1961
  671ERGO   ROH 9745   5.702  10.143   9.558  0.0696  0.0018 -0.0823
  671ERGO    R1 9746   5.730  10.143   9.277  0.0650 -0.0588 -0.0831
  671ERGO    R2 9747   5.786   9.914   9.132  0.0196 -0.0978 -0.0396
  671ERGO    R3 9748   5.564   9.986   8.993  0.0309 -0.0831 -0.0496
  671ERGO    R4 9749   5.693   9.782   8.827  0.0029 -0.1233 -0.0231
  671ERGO    R5 9750   5.633   9.982   8.764  0.0321 -0.1224 -0.0487
  671ERGO    C1 9751   5.430   9.772   8.519  0.0038 -0.1245 -0.0230
  671ERGO    C2 9752   5.467   9.498   8.277 -0.1078 -0.0565  0.1299
  672ERGO   ROH 9753   1.075   4.260   9.548 -0.3481  0.0665 -0.1014
  672ERGO    R1 9754   1.178   4.232   9.286 -0.1130  0.0749 -0.0145
  672ERGO    R2 9755   1.015   4.186   9.066  0.0832  0.0315 -0.1618
  672ERGO    R3 9756   1.142   4.406   8.969  0.1244  0.0543 -0.0530
  672ERGO    R4 9757   1.101   4.235   8.735  0.3085  0.0785 -0.0964
  672ERGO    R5 9758   1.290   4.321   8.801  0.2491  0.0932  0.0413
  672ERGO    C1 9759   1.270   4.470   8.451  0.4784  0.1274  0.0439
  672ERGO    C2 9760   1.281   4.645   8.113  0.1014 -0.0041  0.0642
  673ERGO   ROH 9761   6.219   2.754   9.624  0.0765 -0.3513 -0.1604
  673ERGO    R1 9762   6.212   2.955   9.425 -0.4258 -0.4256 -0.2335
  673ERGO    R2 9763   6.441   3.061   9.312 -0.6184  0.5115  0.1277
  673ERGO    R3 9764   6.320   2.988   9.079  0.0542 -0.1152 -0.0591
  673ERGO    R4 9765   6.527   3.177   8.998 -0.3981  0.4782  0.1772
  673ERGO    R5 9766   6.316   3.188   8.948 -0.3522 -0.2536 -0.2533
  673ERGO    C1 9767   6.464   3.176   8.597  0.3616 -0.1295  0.0307
  673ERGO    C2 9768   6.658   3.266   8.334  0.0152 -0.3931  0.1418
  674ERGO   ROH 9769   8.970   7.037   9.585 -0.1842  0.0480  0.0361
  674ERGO    R1 9770   9.009   7.031   9.305 -0.1677 -0.0211  0.0402
  674ERGO    R2 9771   8.815   6.943   9.129 -0.1982  0.0431  0.0446
  674ERGO    R3 9772   8.855   7.185   9.013 -0.0718  0.0026  0.0008
  674ERGO    R4 9773   8.818   6.999   8.788  0.1339 -0.0742  0.0242
  674ERGO    R5 9774   8.986   7.136   8.818  0.1162 -0.0731  0.1408
  674ERGO    C1 9775   8.858   7.259   8.480  0.4457 -0.1806 -0.0288
  674ERGO    C2 9776   8.622   7.286   8.221 -0.0299  0.3151  0.2042
  675loPI    C1 9777   0.130  14.148   4.669 -0.0170  0.2924 -0.0167
  675loPI    C2 9778   0.136  13.945   4.325  0.2629  0.1639  0.0611
  675loPI    C3 9779   0.128  13.748   4.673 -0.0242  0.2933  0.1300
  675loPI   PO4 9780   0.338  14.367   4.723 -0.1637 -0.1477 -0.1937
  675loPI   GL1 9781   0.498  14.560   5.147  0.0813  0.3091 -0.0673
  675loPI   GL2 9782   0.159  14.554   5.186  0.0420 -0.2707 -0.1063
  675loPI   C1A 9783   0.554  14.282   5.612  0.1670  0.0653  0.2208
  675loPI   C2A 9784   0.488  14.201   6.073  0.0758 -0.3830  0.2063
  675loPI   C3A 9785   0.348  14.128   6.493  0.2217  0.3033 -0.1746
  675loPI   C4A 9786   0.356  14.385   6.932 -0.0502  0.2235  0.1622
  675loPI   C5A 9787   0.315  14.428   7.352 -0.0504  0.0300 -0.3584
  675loPI   C6A 9788   0.214  14.711   7.690  0.1140 -0.1956 -0.1528
  675loPI   C1B 9789   0.217  14.656   5.671  0.1033  0.1846  0.0723
  675loPI   C2B 9790   0.237  14.716   6.090  0.2463 -0.2756 -0.0692
  675loPI   C3B 9791   0.127  14.643   6.474  0.0765  0.0125 -0.0793
  675loPI   C4B 9792  -0.015  14.705   6.878 -0.0612 -0.1000 -0.0710
  676loPI    C1 9793  17.265   8.267   5.041 -0.1005 -0.2952  0.1802
  676loPI    C2 9794  17.113   8.584   4.851 -0.1227 -0.2977  0.1936
  676loPI    C3 9795  17.221   8.260   4.643  0.1622 -0.1759  0.1462
  676loPI   PO4 9796  17.053   8.138   5.313  0.1598 -0.3009 -0.2848
  676loPI   GL1 9797  16.976   8.130   5.791  0.1725  0.1675  0.0992
  676loPI   GL2 9798  16.638   7.986   5.644  0.0524 -0.0293  0.1590
  676loPI   C1A 9799  16.814   8.258   6.196  0.2459  0.0463 -0.4359
  676loPI   C2A 9800  16.647   7.990   6.555 -0.0913  0.0389 -0.3315
  676loPI   C3A 9801  16.573   7.726   6.752  0.4267  0.1116  0.2024
  676loPI   C4A 9802  16.718   7.543   7.139  0.0734  0.1424  0.1733
  676loPI   C5A 9803  16.974   7.320   7.480 -0.0198  0.1957 -0.0509
  676loPI   C6A 9804  17.073   6.972   7.556 -0.1602 -0.3254  0.1828
  676loPI   C1B 9805  16.378   7.896   6.164  0.2666  0.3931  0.3677
  676loPI   C2B 9806  16.153   8.024   6.584 -0.0683  0.0922  0.0157
  676loPI   C3B 9807  16.190   8.226   6.954 -0.0442  0.0227 -0.0900
  676loPI   C4B 9808  16.209   8.443   7.283  0.0102 -0.2390  0.0930
  677loPI    C1 9809   3.148  16.465   4.902 -0.0492  0.1555 -0.1080
  677loPI    C2 9810   3.291  16.175   4.667 -0.0398  0.1086 -0.0446
  677loPI    C3 9811   3.094  16.483   4.506  0.0294  0.1133 -0.1207
  677loPI   PO4 9812   3.278  16.348   5.125 -0.0693  0.0286 -0.1541
  677loPI   GL1 9813   3.154  16.549   5.466  0.0514 -0.1287  0.2069
  677loPI   GL2 9814   3.440  16.761   5.394  0.0700 -0.1283  0.1798
  677loPI   C1A 9815   3.231  16.493   5.841 -0.2042  0.0021 -0.4700
  677loPI   C2A 9816   3.119  16.610   6.108 -0.0156  0.3018  0.1157
  677loPI   C3A 9817   2.891  16.725   6.460 -0.1009  0.2593 -0.2086
  677loPI   C4A 9818   2.792  16.923   6.853  0.0667  0.1583 -0.1502
  677loPI   C5A 9819   2.784  16.980   7.314 -0.0446  0.5165 -0.2969
  677loPI   C6A 9820   3.097  17.073   7.582 -0.0644  0.1318 -0.0996
  677loPI   C1B 9821   3.528  16.956   5.829  0.0992  0.1599 -0.1133
  677loPI   C2B 9822   3.503  16.849   6.333 -0.3581 -0.0767  0.1730
  677loPI   C3B 9823   3.364  16.921   6.732  0.1028 -0.0602 -0.4872
  677loPI   C4B 9824   3.216  17.106   7.070 -0.6514  0.1449  0.0787
  678loPI    C1 9825  13.919  10.872   5.104 -0.2046  0.0234 -0.0120
  678loPI    C2 9826  13.997  11.259   5.038 -0.1081 -0.0125 -0.1144
  678loPI    C3 9827  13.741  11.063   4.801 -0.1706 -0.0073 -0.0517
  678loPI   PO4 9828  13.913  10.884   5.362 -0.1242  0.0349  0.1603
  678loPI   GL1 9829  14.108  11.199   5.686  0.1971 -0.1463  0.2897
  678loPI   GL2 9830  14.166  11.594   5.733 -0.0190  0.0657  0.1790
  678loPI   C1A 9831  14.061  11.004   6.060  0.0126 -0.2350  0.1056
  678loPI   C2A 9832  13.957  11.008   6.572  0.2499  0.1311 -0.2442
  678loPI   C3A 9833  13.640  11.142   6.810 -0.0154  0.1562  0.0999
  678loPI   C4A 9834  13.438  11.096   7.174 -0.1168  0.1730 -0.0032
  678loPI   C5A 9835  13.531  11.132   7.589  0.0335  0.0053  0.5407
  678loPI   C6A 9836  13.884  11.286   7.840 -0.2976  0.3872  0.0601
  678loPI   C1B 9837  14.096  11.870   6.232  0.1753  0.2461 -0.1009
  678loPI   C2B 9838  14.253  11.935   6.727 -0.0254  0.0619 -0.0694
  678loPI   C3B 9839  14.482  12.162   6.956  0.0127  0.1288  0.2169
  678loPI   C4B 9840  14.686  12.383   6.717  0.1924 -0.0518  0.0456
  679loPI    C1 9841  11.324   1.026   4.836 -0.0325 -0.0584 -0.1390
  679loPI    C2 9842  11.621   1.285   4.906 -0.1852  0.1675 -0.3115
  679loPI    C3 9843  11.647   1.028   4.600  0.0808 -0.2035  0.0122
  679loPI   PO4 9844  11.148   1.092   4.989  0.1311 -0.4304 -0.1918
  679loPI   GL1 9845  11.163   1.304   5.444 -0.1594 -0.1538  0.0846
  679loPI   GL2 9846  11.077   1.575   5.533  0.3789 -0.3477 -0.2548
  679loPI   C1A 9847  11.155   0.964   5.655 -0.2874 -0.1759 -0.0888
  679loPI   C2A 9848  11.281   0.800   6.074 -0.3758  0.2553  0.0060
  679loPI   C3A 9849  11.289   0.977   6.459  0.0683  0.2911  0.2075
  679loPI   C4A 9850  11.508   0.856   6.769 -0.0864 -0.0369 -0.1701
  679loPI   C5A 9851  11.949   1.008   6.874 -0.0237  0.3187 -0.0063
  679loPI   C6A 9852  12.185   1.091   7.234  0.1106  0.3287  0.0393
  679loPI   C1B 9853  11.169   1.683   5.924 -0.2801  0.1290 -0.2894
  679loPI   C2B 9854  11.210   1.946   6.242 -0.1743 -0.1579 -0.0168
  679loPI   C3B 9855  11.075   2.232   6.633 -0.3283 -0.0977 -0.0169
  679loPI   C4B 9856  10.888   2.438   7.104  0.0204 -0.0674  0.2324
  680loPI    C1 9857  11.391  12.838   5.208 -0.0144  0.2439  0.1145
  680loPI    C2 9858  11.318  12.899   4.819  0.0389  0.3124  0.1151
  680loPI    C3 9859  11.693  12.918   4.958  0.0791 -0.1664  0.0883
  680loPI   PO4 9860  11.170  12.953   5.331  0.1945  0.0399  0.2048
  680loPI   GL1 9861  11.098  12.980   5.678 -0.2477 -0.0393  0.4460
  680loPI   GL2 9862  10.882  12.729   5.753  0.1323  0.1523  0.1630
  680loPI   C1A 9863  11.167  12.880   6.121 -0.1540 -0.1484 -0.1693
  680loPI   C2A 9864  11.310  12.998   6.524  0.3079  0.2862 -0.1465
  680loPI   C3A 9865  11.258  13.102   6.945  0.1558 -0.0332  0.1640
  680loPI   C4A 9866  11.239  13.303   7.309  0.1427  0.1657  0.0561
  680loPI   C5A 9867  10.966  13.350   7.616  0.3039  0.0018 -0.0284
  680loPI   C6A 9868  10.522  13.659   7.535  0.0518 -0.2781  0.2078
  680loPI   C1B 9869  10.851  12.429   6.084 -0.2446 -0.3912 -0.2790
  680loPI   C2B 9870  10.645  12.578   6.377 -0.1412 -0.2251  0.1812
  680loPI   C3B 9871  10.827  12.719   6.774  0.1384 -0.0811  0.1473
  680loPI   C4B 9872  10.813  12.778   7.173  0.6369 -0.4218  0.2038
  681loPI    C1 9873  14.450   5.138   4.838 -0.1148 -0.3180  0.1479
  681loPI    C2 9874  14.843   5.197   4.879 -0.1257 -0.2192  0.1143
  681loPI    C3 9875  14.700   5.031   4.545 -0.1184 -0.1968  0.1001
  681loPI   PO4 9876  14.364   5.254   5.113 -0.0763 -0.0124 -0.0488
  681loPI   GL1 9877  14.276   5.159   5.582  0.0893  0.0324  0.1800
  681loPI   GL2 9878  14.326   5.473   5.570 -0.2481 -0.3206 -0.0168
  681loPI   C1A 9879  14.442   5.002   5.882 -0.0585  0.1331 -0.0813
  681loPI   C2A 9880  14.665   4.929   6.179  0.0562  0.1650 -0.2483
  681loPI   C3A 9881  14.794   4.620   6.461 -0.1672 -0.0094 -0.2303
  681loPI   C4A 9882  15.032   4.352   6.725 -0.4242  0.1996 -0.2339
  681loPI   C5A 9883  15.282   4.049   6.998  0.2678  0.0086  0.3615
  681loPI   C6A 9884  15.257   3.806   7.340 -0.1041  0.1683  0.2253
  681loPI   C1B 9885  14.498   5.754   5.871 -0.1430 -0.0855 -0.0536
  681loPI   C2B 9886  14.481   5.805   6.382  0.0735  0.2046 -0.0803
  681loPI   C3B 9887  14.704   5.598   6.760  0.3102  0.3993  0.2020
  681loPI   C4B 9888  14.949   5.403   7.004  0.2701  0.0731  0.2852
  682loPI    C1 9889   3.737   9.773   5.121  0.2149 -0.0283  0.0327
  682loPI    C2 9890   3.875  10.147   5.154  0.1342 -0.0181  0.2783
  682loPI    C3 9891   3.981   9.922   4.841  0.0117  0.2810  0.0156
  682loPI   PO4 9892   3.649   9.720   5.386  0.1251  0.0926 -0.0134
  682loPI   GL1 9893   3.702   9.426   5.758 -0.0750 -0.3117  0.1482
  682loPI   GL2 9894   3.503   9.256   5.409 -0.0284 -0.0343 -0.0942
  682loPI   C1A 9895   3.875   9.659   6.080  0.3502 -0.0536 -0.0461
  682loPI   C2A 9896   3.783   9.785   6.514  0.1939 -0.1841 -0.1613
  682loPI   C3A 9897   3.570   9.889   6.966 -0.1728 -0.0541  0.5162
  682loPI   C4A 9898   3.663   9.855   7.443 -0.0452  0.1328 -0.0958
  682loPI   C5A 9899   3.757   9.773   7.849  0.4309  0.3167 -0.1012
  682loPI   C6A 9900   3.981   9.539   8.038 -0.3969 -0.2765  0.2066
  682loPI   C1B 9901   3.506   8.981   5.741  0.3377 -0.0413 -0.0559
  682loPI   C2B 9902   3.732   9.012   5.999  0.0412 -0.3958 -0.5276
  682loPI   C3B 9903   3.712   9.192   6.456  0.3595  0.0189  0.1980
  682loPI   C4B 9904   3.851   9.421   6.863  0.2947  0.3176  0.1633
  683loPI    C1 9905   2.936  14.516   4.922 -0.0536  0.1581 -0.1469
  683loPI    C2 9906   2.581  14.373   4.808  0.0126  0.0151 -0.1760
  683loPI    C3 9907   2.910  14.152   4.758  0.0613  0.0055  0.1672
  683loPI   PO4 9908   2.871  14.570   5.188  0.0291  0.1635  0.0339
  683loPI   GL1 9909   2.708  14.441   5.528  0.1413 -0.0434 -0.0338
  683loPI   GL2 9910   2.393  14.272   5.601 -0.2375 -0.2436 -0.0378
  683loPI   C1A 9911   2.750  14.572   5.968  0.1626  0.1489  0.0819
  683loPI   C2A 9912   2.717  14.653   6.448  0.4203 -0.0364 -0.1013
  683loPI   C3A 9913   2.785  14.721   6.826  0.0884  0.0163 -0.1088
  683loPI   C4A 9914   2.781  14.885   7.179 -0.1842 -0.1665  0.0032
  683loPI   C5A 9915   2.999  14.998   7.522 -0.1755  0.2120 -0.0068
  683loPI   C6A 9916   3.012  14.901   7.932  0.0097  0.0241  0.0047
  683loPI   C1B 9917   2.516  14.156   5.902 -0.0166  0.1149  0.0478
  683loPI   C2B 9918   2.323  14.211   6.286  0.0357 -0.1834  0.2490
  683loPI   C3B 9919   2.317  14.447   6.680  0.3001  0.0754  0.3394
  683loPI   C4B 9920   2.239  14.921   6.819  0.0799 -0.0074 -0.2168
  684loPI    C1 9921   8.237  16.162   5.129 -0.0081 -0.0729  0.0168
  684loPI    C2 9922   8.118  16.444   4.872 -0.1197 -0.1742 -0.0444
  684loPI    C3 9923   8.507  16.354   4.905 -0.1020 -0.1412 -0.1575
  684loPI   PO4 9924   8.086  16.263   5.362 -0.3420 -0.2681 -0.2089
  684loPI   GL1 9925   7.992  16.232   5.763  0.0658  0.0152 -0.1690
  684loPI   GL2 9926   8.122  15.982   5.931  0.0340 -0.0505  0.2878
  684loPI   C1A 9927   7.901  16.500   6.091 -0.2981 -0.1990 -0.0017
  684loPI   C2A 9928   7.756  16.565   6.540  0.0747  0.1540  0.1473
  684loPI   C3A 9929   7.861  16.685   6.924 -0.1028 -0.0679 -0.1759
  684loPI   C4A 9930   7.996  17.035   7.089 -0.1383 -0.1910 -0.0617
  684loPI   C5A 9931   8.223  17.117   7.526 -0.1541 -0.0001 -0.0853
  684loPI   C6A 9932   8.470  16.877   7.787 -0.3539  0.1330  0.1617
  684loPI   C1B 9933   8.026  16.133   6.368  0.2298  0.2567 -0.2817
  684loPI   C2B 9934   8.092  16.264   6.812 -0.0693 -0.1973 -0.0589
  684loPI   C3B 9935   8.170  16.531   7.237  0.1704  0.2829  0.0785
  684loPI   C4B 9936   7.968  16.703   7.611 -0.4000  0.1521 -0.0220
  685loPI    C1 9937  10.004   5.883   5.060  0.0574 -0.0438  0.0280
  685loPI    C2 9938   9.937   5.736   4.694 -0.2711  0.3941 -0.0965
  685loPI    C3 9939  10.234   5.997   4.753  0.2647 -0.2357  0.1098
  685loPI   PO4 9940   9.943   5.657   5.201 -0.1813  0.3992  0.0949
  685loPI   GL1 9941  10.107   5.568   5.650  0.2338  0.0312 -0.2634
  685loPI   GL2 9942  10.322   5.624   5.833  0.1253  0.1348  0.1769
  685loPI   C1A 9943   9.927   5.350   6.020 -0.0200 -0.0216 -0.1466
  685loPI   C2A 9944   9.709   5.180   6.377  0.1909 -0.1516 -0.3620
  685loPI   C3A 9945   9.750   5.284   6.860 -0.1256  0.0547  0.1156
  685loPI   C4A 9946   9.703   5.300   7.315  0.0839 -0.0798 -0.0066
  685loPI   C5A 9947   9.370   5.110   7.593 -0.1230 -0.0573 -0.1820
  685loPI   C6A 9948   9.099   4.749   7.434  0.0801 -0.1469  0.0154
  685loPI   C1B 9949  10.360   5.599   6.274 -0.1989 -0.2793  0.0925
  685loPI   C2B 9950  10.135   5.349   6.607 -0.0363 -0.2299  0.1629
  685loPI   C3B 9951  10.213   5.148   7.006 -0.0926 -0.0508  0.0200
  685loPI   C4B 9952  10.165   5.089   7.422  0.0614  0.1428  0.1169
  686loPI    C1 9953   1.695  10.398   5.360  0.0140 -0.1869 -0.0914
  686loPI    C2 9954   1.475  10.693   5.203  0.0125 -0.0897  0.0905
  686loPI    C3 9955   1.485  10.334   5.025 -0.1790 -0.0528  0.0023
  686loPI   PO4 9956   1.708  10.496   5.624  0.1822  0.3617  0.1228
  686loPI   GL1 9957   1.604  10.526   6.036 -0.0568  0.2767 -0.1734
  686loPI   GL2 9958   1.623  10.168   6.000  0.0392  0.4495  0.0176
  686loPI   C1A 9959   1.816  10.547   6.362 -0.2062 -0.1236  0.0040
  686loPI   C2A 9960   1.849  10.502   6.759  0.5017  0.0263  0.1176
  686loPI   C3A 9961   2.021  10.183   7.094 -0.2841  0.0906  0.1506
  686loPI   C4A 9962   2.004  10.089   7.502  0.0442  0.2641 -0.1098
  686loPI   C5A 9963   1.896  10.018   7.850 -0.3089 -0.1183  0.0364
  686loPI   C6A 9964   1.482  10.103   7.800  0.5245  0.0950 -0.0549
  686loPI   C1B 9965   1.382  10.092   6.338  0.0600  0.2207  0.0072
  686loPI   C2B 9966   1.300   9.986   6.787  0.5315 -0.2802  0.1453
  686loPI   C3B 9967   1.431  10.206   7.095 -0.0266  0.1174  0.1056
  686loPI   C4B 9968   1.524  10.657   7.374 -0.0227 -0.2376  0.0345
  687loPI    C1 9969  11.869   2.288   4.781 -0.2315  0.1565 -0.0247
  687loPI    C2 9970  11.671   2.227   5.123 -0.1773  0.0349 -0.0144
  687loPI    C3 9971  11.683   1.940   4.845 -0.0201  0.0430 -0.0170
  687loPI   PO4 9972  12.109   2.339   4.829  0.0533 -0.0367 -0.1898
  687loPI   GL1 9973  12.181   2.388   5.173  0.1563 -0.1367  0.2215
  687loPI   GL2 9974  12.133   2.589   5.452 -0.0098 -0.1791  0.0546
  687loPI   C1A 9975  12.005   2.121   5.553 -0.0702  0.0262  0.1009
  687loPI   C2A 9976  12.013   2.009   5.982  0.0918 -0.0403 -0.1350
  687loPI   C3A 9977  12.273   1.679   6.166  0.0730 -0.0040 -0.0558
  687loPI   C4A 9978  12.308   1.743   6.634 -0.0356  0.0372  0.3496
  687loPI   C5A 9979  11.998   1.988   6.953 -0.1921  0.3275  0.2330
  687loPI   C6A 9980  11.910   2.401   7.028 -0.0814 -0.1123  0.1495
  687loPI   C1B 9981  12.301   2.338   5.842 -0.1179 -0.3862  0.0930
  687loPI   C2B 9982  12.279   2.173   6.300 -0.0717 -0.3658 -0.1616
  687loPI   C3B 9983  12.202   2.280   6.585 -0.0234  0.0162  0.0457
  687loPI   C4B 9984  12.474   2.176   6.901 -0.3744  0.1164 -0.1416
  688loPI    C1 9985   0.101  10.696   5.547 -0.0392 -0.0451 -0.0158
  688loPI    C2 9986   0.007  10.450   5.247 -0.0337 -0.1504  0.0683
  688loPI    C3 9987  -0.282  10.644   5.443 -0.0184  0.1494 -0.1976
  688loPI   PO4 9988   0.369  10.763   5.403 -0.1412 -0.0463  0.1267
  688loPI   GL1 9989   0.612  10.901   5.688  0.0071  0.2584  0.3629
  688loPI   GL2 9990   0.895  10.773   5.751  0.1805 -0.1701 -0.3136
  688loPI   C1A 9991   0.745  11.219   5.959  0.2357  0.1940  0.0754
  688loPI   C2A 9992   0.928  11.151   6.381 -0.0882  0.1411  0.1164
  688loPI   C3A 9993   1.126  11.095   6.843  0.1248 -0.1796  0.1250
  688loPI   C4A 9994   1.358  11.100   7.143 -0.1391  0.3823 -0.0243
  688loPI   C5A 9995   1.401  11.063   7.672 -0.0014 -0.0141 -0.1300
  688loPI   C6A 9996   1.547  11.012   8.072  0.0107 -0.0408 -0.1672
  688loPI   C1B 9997   0.750  10.744   6.225  0.0009 -0.2072  0.0404
  688loPI   C2B 9998   0.724  10.776   6.611  0.1689  0.2092  0.1953
  688loPI   C3B 9999   0.744  10.784   7.008 -0.3068  0.0041  0.0622
  688loPI   C4B10000   0.914  10.913   7.476  0.4019  0.2526 -0.0504
  689loPI    C110001  10.038  11.571   5.125 -0.1978 -0.1554  0.0700
  689loPI    C210002   9.681  11.397   5.076 -0.2371 -0.0414 -0.0536
  689loPI    C310003   9.879  11.542   4.760  0.0350 -0.3288 -0.0196
  689loPI   PO410004  10.167  11.418   5.284 -0.1218  0.2588 -0.0611
  689loPI   GL110005  10.280  11.166   5.690  0.0223 -0.0240  0.0060
  689loPI   GL210006  10.520  10.830   5.668 -0.0985 -0.3603 -0.1889
  689loPI   C1A10007  10.102  11.182   6.073  0.1477 -0.0374 -0.1856
  689loPI   C2A10008   9.949  11.452   6.442 -0.1007  0.2143  0.0781
  689loPI   C3A10009  10.054  11.684   6.886  0.0263  0.0408 -0.0100
  689loPI   C4A10010  10.475  11.892   7.079  0.2730 -0.0328 -0.1224
  689loPI   C5A10011  10.637  12.081   7.470 -0.0016 -0.0126  0.0455
  689loPI   C6A10012  10.626  12.475   7.573 -0.4832  0.0812  0.0744
  689loPI   C1B10013  10.596  10.631   6.063  0.2447  0.0391  0.0822
  689loPI   C2B10014  10.815  10.539   6.375 -0.0105 -0.1627  0.0220
  689loPI   C3B10015  11.081  10.633   6.649 -0.4148  0.0634  0.0754
  689loPI   C4B10016  11.365  10.532   6.914  0.2735 -0.1470  0.0560
  690loPI    C110017  16.280   2.281   4.850  0.3325 -0.1610  0.0171
  690loPI    C210018  16.520   2.127   4.570  0.0276 -0.2619 -0.1943
  690loPI    C310019  16.154   2.255   4.471  0.0407  0.0140  0.0985
  690loPI   PO410020  16.381   2.187   5.052  0.1308  0.0978  0.0652
  690loPI   GL110021  16.547   2.303   5.418  0.0706 -0.1194  0.0442
  690loPI   GL210022  16.295   2.157   5.582 -0.0280 -0.2522  0.0842
  690loPI   C1A10023  16.695   2.408   5.822  0.0918 -0.3593 -0.2438
  690loPI   C2A10024  16.743   2.443   6.200  0.0034 -0.2496 -0.1084
  690loPI   C3A10025  16.759   2.558   6.660  0.0864 -0.3384  0.0295
  690loPI   C4A10026  16.692   2.307   6.996  0.3843 -0.1105 -0.0956
  690loPI   C5A10027  16.730   2.130   7.388  0.0195 -0.2789 -0.0159
  690loPI   C6A10028  16.714   2.432   7.760 -0.1510  0.1153 -0.0446
  690loPI   C1B10029  16.433   2.114   6.039 -0.0880 -0.1610 -0.1068
  690loPI   C2B10030  16.592   2.008   6.480  0.0798  0.0560 -0.1442
  690loPI   C3B10031  16.803   1.824   6.847 -0.0242 -0.2104  0.1458
  690loPI   C4B10032  16.724   1.678   7.208  0.1600 -0.1080  0.1081
  691loPI    C110033   8.189   2.688   4.862  0.0627 -0.0713  0.1542
  691loPI    C210034   8.026   2.661   4.497 -0.1070  0.3956  0.1888
  691loPI    C310035   7.992   2.356   4.754  0.1302  0.0070 -0.2264
  691loPI   PO410036   8.348   2.754   4.909  0.1866  0.0826 -0.1599
  691loPI   GL110037   8.420   2.842   5.316  0.0793 -0.0884 -0.3392
  691loPI   GL210038   8.599   3.014   5.439 -0.3959 -0.0487 -0.1685
  691loPI   C1A10039   8.128   2.852   5.674 -0.1209  0.2114  0.0693
  691loPI   C2A10040   8.146   3.034   6.087 -0.0372  0.2225  0.2292
  691loPI   C3A10041   8.373   3.260   6.304  0.0229  0.1849 -0.1185
  691loPI   C4A10042   8.473   3.194   6.790 -0.2061  0.0467 -0.1446
  691loPI   C5A10043   8.413   2.986   7.142 -0.0340  0.2226 -0.0683
  691loPI   C6A10044   8.649   2.746   7.334  0.4691 -0.1481  0.0499
  691loPI   C1B10045   8.399   3.301   5.702  0.1800  0.0367 -0.1387
  691loPI   C2B10046   8.055   3.514   5.942  0.0977 -0.2365  0.0778
  691loPI   C3B10047   7.805   3.762   6.279  0.0021  0.0722 -0.1237
  691loPI   C4B10048   7.728   3.869   6.675 -0.2553  0.0177 -0.2324
  692loPI    C110049   1.940  14.891   5.041  0.2734  0.1322 -0.0218
  692loPI    C210050   2.116  14.682   4.749 -0.2079 -0.0942 -0.1606
  692loPI    C310051   1.864  14.980   4.658  0.1318  0.2619  0.0350
  692loPI   PO410052   2.084  14.974   5.131 -0.0415 -0.1936  0.1249
  692loPI   GL110053   2.178  15.064   5.490 -0.1429  0.3607 -0.0940
  692loPI   GL210054   2.335  14.829   5.672 -0.0861  0.1714 -0.1725
  692loPI   C1A10055   1.942  15.109   5.796  0.2646 -0.1232 -0.1971
  692loPI   C2A10056   1.676  15.012   6.116 -0.2132 -0.2030  0.2784
  692loPI   C3A10057   1.577  15.012   6.425  0.1799  0.2931  0.3176
  692loPI   C4A10058   1.470  15.081   6.811 -0.2141 -0.0364  0.1571
  692loPI   C5A10059   1.306  14.822   7.204 -0.1254 -0.1113  0.3704
  692loPI   C6A10060   1.157  14.581   7.537 -0.3123  0.3380 -0.1230
  692loPI   C1B10061   2.126  14.607   5.897  0.0451 -0.2002  0.3197
  692loPI   C2B10062   1.914  14.146   5.997  0.1963 -0.0529 -0.0643
  692loPI   C3B10063   1.860  14.057   6.422 -0.0895 -0.0509  0.0478
  692loPI   C4B10064   1.800  14.190   6.791 -0.0445  0.1794  0.0134
  693loPI    C110065  13.576  16.312   4.632  0.1401  0.0599  0.1331
  693loPI    C210066  13.692  16.141   4.975  0.2725 -0.0381  0.0410
  693loPI    C310067  13.711  15.935   4.633 -0.0837 -0.0222  0.0072
  693loPI   PO410068  13.326  16.462   4.742  0.0190 -0.3300  0.3365
  693loPI   GL110069  13.246  16.583   5.147 -0.3229 -0.0176 -0.0688
  693loPI   GL210070  13.271  16.224   5.191 -0.0858  0.0951  0.1093
  693loPI   C1A10071  13.114  16.583   5.472 -0.0119 -0.4624  0.1956
  693loPI   C2A10072  13.084  16.639   5.779 -0.0647 -0.0969 -0.2994
  693loPI   C3A10073  13.129  16.880   6.281  0.0515  0.0450 -0.2163
  693loPI   C4A10074  12.895  16.886   6.688  0.2030  0.0422 -0.1634
  693loPI   C5A10075  12.943  16.993   7.117 -0.2548  0.3230 -0.0453
  693loPI   C6A10076  12.881  17.165   7.479  0.1019  0.0838 -0.0556
  693loPI   C1B10077  13.250  16.116   5.626 -0.0371  0.0749  0.2298
  693loPI   C2B10078  13.253  16.226   5.974 -0.0303  0.1697  0.1848
  693loPI   C3B10079  13.149  16.235   6.359 -0.1585 -0.2284  0.0599
  693loPI   C4B10080  13.297  16.431   6.773 -0.0177 -0.1223 -0.0980
  694loPI    C110081   6.038  17.944   5.306 -0.2327  0.1679 -0.0827
  694loPI    C210082   5.788  18.145   5.545 -0.1113  0.4349 -0.1757
  694loPI    C310083   5.782  18.210   5.151 -0.2116  0.1017 -0.2322
  694loPI   PO410084   6.136  17.789   5.506 -0.2993  0.1367 -0.1808
  694loPI   GL110085   6.078  17.663   5.986 -0.1052 -0.3286  0.0477
  694loPI   GL210086   6.319  17.424   5.902  0.0887  0.0030  0.2815
  694loPI   C1A10087   5.848  17.467   6.375  0.3813  0.0442  0.0259
  694loPI   C2A10088   5.720  17.241   6.734 -0.3395  0.0835 -0.1082
  694loPI   C3A10089   5.688  17.006   7.026 -0.0484  0.0653  0.0778
  694loPI   C4A10090   5.476  16.728   7.431  0.0718 -0.3770  0.2980
  694loPI   C5A10091   5.447  16.252   7.468  0.0401 -0.0473  0.0948
  694loPI   C6A10092   5.560  15.861   7.494  0.0084  0.2468  0.1204
  694loPI   C1B10093   6.350  17.506   6.377  0.0981  0.1460  0.0165
  694loPI   C2B10094   6.261  17.462   6.837  0.0363 -0.2457 -0.2192
  694loPI   C3B10095   6.158  17.249   7.162  0.2960 -0.0803  0.0225
  694loPI   C4B10096   5.999  17.053   7.516 -0.3971 -0.2063  0.1250
  695loPI    C110097  13.614   7.987   4.856 -0.0253  0.0544 -0.0514
  695loPI    C210098  13.376   8.034   4.538 -0.0186  0.0860 -0.0519
  695loPI    C310099  13.543   7.678   4.612 -0.1305  0.0426 -0.0062
  695loPI   PO410100  13.524   8.208   5.005  0.2463 -0.0527 -0.1791
  695loPI   GL110101  13.551   8.264   5.551  0.1798 -0.2041  0.1677
  695loPI   GL210102  13.757   8.403   5.660  0.0699  0.0421 -0.0401
  695loPI   C1A10103  13.552   7.875   5.814 -0.1997 -0.1255  0.1524
  695loPI   C2A10104  13.664   7.817   6.162  0.0948 -0.0993 -0.0787
  695loPI   C3A10105  13.516   7.640   6.602 -0.1701  0.2441  0.0189
  695loPI   C4A10106  13.283   7.774   6.931 -0.2723 -0.1742 -0.2920
  695loPI   C5A10107  13.443   7.858   7.365 -0.0900  0.2743 -0.2403
  695loPI   C6A10108  13.733   7.662   7.656 -0.1640  0.0829 -0.1879
  695loPI   C1B10109  13.950   8.274   5.963 -0.0287  0.1950 -0.3617
  695loPI   C2B10110  14.323   8.228   6.147 -0.1198 -0.2551 -0.0208
  695loPI   C3B10111  14.365   8.290   6.508  0.3344  0.0440 -0.3867
  695loPI   C4B10112  14.278   8.586   6.778 -0.0637 -0.2894  0.0019
  696loPI    C110113  13.292  12.529   5.030 -0.0294  0.1110 -0.3141
  696loPI    C210114  13.387  12.433   4.653 -0.1603 -0.1111 -0.2922
  696loPI    C310115  13.242  12.797   4.736  0.0602  0.0090 -0.4232
  696loPI   PO410116  13.349  12.358   5.179  0.0478  0.0315  0.2753
  696loPI   GL110117  13.487  12.373   5.652 -0.2467  0.2358  0.2193
  696loPI   GL210118  13.848  12.389   5.612  0.3049 -0.0297 -0.2889
  696loPI   C1A10119  13.396  12.290   6.018 -0.0826 -0.0139 -0.0016
  696loPI   C2A10120  13.479  12.401   6.345  0.1571 -0.1317 -0.1466
  696loPI   C3A10121  13.568  12.448   6.813 -0.1408 -0.2036  0.0689
  696loPI   C4A10122  13.377  12.597   7.224 -0.0522 -0.1986  0.1206
  696loPI   C5A10123  13.500  12.734   7.634  0.0470 -0.0083 -0.0760
  696loPI   C6A10124  13.498  13.156   7.923  0.1216 -0.3022  0.3227
  696loPI   C1B10125  13.912  12.352   6.072  0.2764  0.3592  0.0720
  696loPI   C2B10126  13.947  12.329   6.474  0.1259 -0.1368 -0.2686
  696loPI   C3B10127  14.090  12.437   6.921  0.3201  0.2281  0.0169
  696loPI   C4B10128  14.359  12.563   7.257  0.2512  0.0780 -0.4281
  697loPI    C110129   5.575   1.671   5.257  0.0751  0.0264 -0.0888
  697loPI    C210130   5.720   1.303   5.193 -0.0397 -0.0378  0.0163
  697loPI    C310131   5.630   1.539   4.883  0.1081 -0.0689 -0.0508
  697loPI   PO410132   5.352   1.610   5.443  0.2653 -0.1701  0.0446
  697loPI   GL110133   5.149   1.786   5.800 -0.2261  0.0096  0.0588
  697loPI   GL210134   5.007   1.635   6.073 -0.3428  0.0701  0.0078
  697loPI   C1A10135   5.326   2.029   5.967  0.0801  0.1182 -0.1665
  697loPI   C2A10136   5.573   2.105   6.326 -0.4317 -0.0555  0.1665
  697loPI   C3A10137   5.609   2.106   6.755  0.1365 -0.0488 -0.1419
  697loPI   C4A10138   5.674   2.002   7.206 -0.0946  0.0162  0.2478
  697loPI   C5A10139   5.487   2.177   7.633  0.0599  0.1379 -0.2355
  697loPI   C6A10140   5.537   2.389   8.038 -0.3023 -0.3160  0.3435
  697loPI   C1B10141   5.277   1.274   6.092 -0.0184  0.3111  0.0782
  697loPI   C2B10142   5.642   1.191   6.250 -0.1741  0.0242  0.1442
  697loPI   C3B10143   5.958   1.357   6.384  0.2313  0.1013 -0.1046
  697loPI   C4B10144   6.252   1.342   6.761 -0.2066 -0.4315 -0.2190
  698loPI    C110145  12.964   9.287   4.844 -0.2324  0.1765  0.0013
  698loPI    C210146  13.154   9.412   4.514  0.1712 -0.3313  0.0282
  698loPI    C310147  12.765   9.319   4.499  0.0510  0.1730 -0.1661
  698loPI   PO410148  13.207   8.983   4.983  0.2500  0.2038  0.2729
  698loPI   GL110149  13.155   9.086   5.493  0.0276 -0.0294  0.2956
  698loPI   GL210150  13.296   9.376   5.673 -0.4936 -0.0391 -0.2899
  698loPI   C1A10151  12.893   9.110   5.862  0.2549 -0.0904 -0.1274
  698loPI   C2A10152  12.668   8.956   6.180 -0.1876  0.1708 -0.0567
  698loPI   C3A10153  12.543   8.786   6.600  0.0599 -0.0786  0.0163
  698loPI   C4A10154  12.315   8.746   6.974 -0.2643  0.1866 -0.1218
  698loPI   C5A10155  12.383   9.022   7.331  0.0703 -0.0400 -0.1711
  698loPI   C6A10156  12.726   9.284   7.472  0.1686  0.0432  0.2269
  698loPI   C1B10157  13.065   9.617   5.949 -0.2490  0.2108 -0.1692
  698loPI   C2B10158  12.898   9.539   6.400  0.0217 -0.2589  0.1193
  698loPI   C3B10159  12.934   9.232   6.558 -0.2412 -0.1352  0.0255
  698loPI   C4B10160  12.815   9.286   6.989 -0.1404  0.0186  0.1622
  699loPI    C110161   6.411  13.812   4.948 -0.0267 -0.1373  0.1005
  699loPI    C210162   6.579  14.072   4.695 -0.1872  0.0019  0.1348
  699loPI    C310163   6.530  13.690   4.586 -0.2110  0.0501 -0.0253
  699loPI   PO410164   6.214  13.914   5.037  0.2474 -0.2750  0.0047
  699loPI   GL110165   6.139  13.997   5.461  0.0283 -0.1088  0.2796
  699loPI   GL210166   5.784  14.018   5.654  0.0358 -0.1083  0.0461
  699loPI   C1A10167   6.251  14.069   5.865  0.4724  0.0171 -0.0401
  699loPI   C2A10168   6.398  14.394   6.326 -0.1963 -0.0079  0.3657
  699loPI   C3A10169   6.527  14.396   6.712 -0.1162  0.2740 -0.2698
  699loPI   C4A10170   6.598  14.368   7.155  0.0239 -0.4010 -0.0490
  699loPI   C5A10171   6.863  14.022   7.341  0.0866  0.1746 -0.0352
  699loPI   C6A10172   7.093  13.758   7.517 -0.2877 -0.0519  0.0838
  699loPI   C1B10173   5.790  14.209   6.068  0.1174  0.4719  0.3330
  699loPI   C2B10174   5.942  14.198   6.463 -0.0439 -0.0003  0.1154
  699loPI   C3B10175   6.140  14.233   6.946 -0.1251  0.0451  0.0232
  699loPI   C4B10176   6.334  13.925   7.324 -0.2184  0.1278  0.0071
  700loPI    C110177   8.772   0.868   5.204  0.2328  0.0161 -0.1775
  700loPI    C210178   8.899   1.213   5.363  0.1149 -0.0158 -0.0111
  700loPI    C310179   9.155   0.910   5.311  0.2009  0.0689 -0.0823
  700loPI   PO410180   8.577   0.821   5.369  0.3012  0.0134  0.1159
  700loPI   GL110181   8.303   0.882   5.647 -0.1356 -0.1811 -0.0568
  700loPI   GL210182   8.022   0.636   5.700 -0.0463  0.1163 -0.1618
  700loPI   C1A10183   8.112   1.064   5.950 -0.0357  0.1720  0.0454
  700loPI   C2A10184   8.128   1.066   6.430  0.0176  0.0651 -0.1344
  700loPI   C3A10185   7.804   1.026   6.646 -0.2966  0.2002 -0.0206
  700loPI   C4A10186   7.712   1.243   7.060  0.0287  0.0200  0.0629
  700loPI   C5A10187   7.475   1.121   7.411 -0.0510  0.1591 -0.1081
  700loPI   C6A10188   7.493   1.469   7.781  0.2338 -0.0272 -0.1129
  700loPI   C1B10189   8.253   0.556   6.059 -0.2954 -0.0853 -0.1823
  700loPI   C2B10190   8.259   0.608   6.473  0.0946  0.1162  0.0608
  700loPI   C3B10191   8.036   0.489   6.720  0.2343  0.0209 -0.2243
  700loPI   C4B10192   7.976   0.596   7.115  0.4782  0.0131 -0.1501
  701loPI    C110193   4.149   2.106   5.344 -0.0549  0.0899  0.0068
  701loPI    C210194   4.266   1.727   5.295 -0.0331  0.0842  0.1017
  701loPI    C310195   4.258   1.976   4.982  0.1512  0.0617  0.0779
  701loPI   PO410196   3.907   2.031   5.570 -0.1118 -0.2448  0.0110
  701loPI   GL110197   3.825   2.088   6.026 -0.1005  0.1767 -0.1436
  701loPI   GL210198   3.899   1.808   6.155  0.6681  0.0126  0.0976
  701loPI   C1A10199   4.150   2.261   6.296 -0.3358  0.0814 -0.2390
  701loPI   C2A10200   4.348   2.082   6.593  0.1251  0.0734  0.4557
  701loPI   C3A10201   4.773   2.073   6.749  0.0233  0.1266  0.0715
  701loPI   C4A10202   5.028   2.424   6.720  0.0109 -0.1450  0.2104
  701loPI   C5A10203   5.397   2.580   6.573  0.1114  0.0078  0.1305
  701loPI   C6A10204   5.647   2.748   6.413 -0.2069  0.1084 -0.0598
  701loPI   C1B10205   4.004   1.658   6.549  0.0877  0.1119 -0.0365
  701loPI   C2B10206   4.295   1.745   7.018 -0.1928 -0.0783  0.2887
  701loPI   C3B10207   4.705   1.835   7.236  0.0269 -0.2555 -0.1781
  701loPI   C4B10208   4.767   2.164   7.605 -0.1021  0.1109 -0.2322
  702loPI    C110209   5.269  15.866   4.419  0.0875 -0.1703 -0.2620
  702loPI    C210210   5.614  16.068   4.406 -0.1061  0.2030  0.1627
  702loPI    C310211   5.294  16.206   4.210 -0.1025  0.0299  0.0335
  702loPI   PO410212   5.307  15.817   4.751 -0.1606  0.0165 -0.0364
  702loPI   GL110213   5.359  15.884   5.241  0.1024  0.0866  0.3319
  702loPI   GL210214   5.108  15.637   5.311 -0.0147  0.0049 -0.1449
  702loPI   C1A10215   5.480  15.742   5.657 -0.0082 -0.0371  0.0651
  702loPI   C2A10216   5.648  15.535   6.047  0.1242 -0.0758 -0.3851
  702loPI   C3A10217   5.645  15.500   6.451 -0.0720 -0.2193  0.0207
  702loPI   C4A10218   5.539  15.186   6.774 -0.1435  0.2474 -0.4033
  702loPI   C5A10219   5.448  15.042   7.243 -0.0368 -0.0013  0.2754
  702loPI   C6A10220   5.335  15.420   7.487 -0.1991  0.2036 -0.0629
  702loPI   C1B10221   5.059  15.503   5.699  0.0750 -0.1781 -0.2805
  702loPI   C2B10222   5.162  15.487   6.049 -0.0526 -0.3788 -0.0095
  702loPI   C3B10223   5.211  15.351   6.422  0.2095  0.0628  0.2007
  702loPI   C4B10224   5.210  15.498   6.879 -0.1808  0.2742 -0.1375
  703loPI    C110225   4.791   9.159   5.159  0.0016 -0.1616 -0.1006
  703loPI    C210226   4.684   9.057   4.788  0.0376 -0.1816 -0.1055
  703loPI    C310227   5.055   9.189   4.860 -0.0602  0.1151 -0.1305
  703loPI   PO410228   4.546   9.282   5.261  0.1490  0.0486  0.0301
  703loPI   GL110229   4.466   9.192   5.725 -0.0656 -0.1380 -0.1364
  703loPI   GL210230   4.205   9.246   5.765  0.1537  0.4147  0.0165
  703loPI   C1A10231   4.681   9.232   6.125  0.1613  0.2173 -0.2098
  703loPI   C2A10232   4.703   9.348   6.600 -0.1813  0.1932 -0.1714
  703loPI   C3A10233   4.838   9.579   6.821  0.0418  0.0517  0.0312
  703loPI   C4A10234   5.056   9.680   7.153 -0.2346 -0.1180  0.0081
  703loPI   C5A10235   5.151   9.505   7.528 -0.0086  0.0363 -0.0238
  703loPI   C6A10236   5.398   9.328   7.819  0.1223  0.0529  0.0660
  703loPI   C1B10237   4.136   9.239   6.194  0.1444 -0.1667  0.1523
  703loPI   C2B10238   4.217   9.292   6.521  0.3682 -0.4011 -0.0084
  703loPI   C3B10239   4.410   9.273   7.010  0.0323  0.1775  0.2129
  703loPI   C4B10240   4.524   9.500   7.275 -0.0975 -0.3119  0.2225
  704loPI    C110241   7.398   0.401   5.452  0.1265  0.0678 -0.2000
  704loPI    C210242   7.617   0.735   5.444 -0.0731  0.2019 -0.1399
  704loPI    C310243   7.261   0.733   5.628 -0.0043 -0.0871 -0.0044
  704loPI   PO410244   7.571   0.258   5.540 -0.1271  0.0927 -0.4648
  704loPI   GL110245   7.609   0.426   5.995  0.1619  0.1843 -0.1343
  704loPI   GL210246   7.808   0.205   5.983 -0.1434 -0.1659  0.3168
  704loPI   C1A10247   7.677   0.597   6.382  0.0257  0.0163 -0.1694
  704loPI   C2A10248   7.511   0.420   6.742 -0.0632 -0.2646  0.0221
  704loPI   C3A10249   7.329   0.231   7.118  0.0525  0.3024  0.0923
  704loPI   C4A10250   7.036   0.237   7.474  0.0351  0.0108 -0.0171
  704loPI   C5A10251   6.912  -0.139   7.657 -0.1411  0.0404  0.1145
  704loPI   C6A10252   6.988  -0.039   8.015  0.0335  0.0458  0.1654
  704loPI   C1B10253   7.552   0.062   6.405 -0.0387 -0.0112 -0.0766
  704loPI   C2B10254   7.471  -0.106   6.802  0.1321  0.0608 -0.1175
  704loPI   C3B10255   7.488  -0.336   7.063 -0.2202 -0.3630  0.2813
  704loPI   C4B10256   7.393  -0.237   7.448  0.2618  0.0777 -0.2757
  705loPI    C110257   9.304   4.878   5.010  0.2674  0.2739  0.1170
  705loPI    C210258   9.584   4.629   4.869  0.0121 -0.0361  0.1466
  705loPI    C310259   9.518   4.979   4.687  0.0987 -0.1663 -0.1420
  705loPI   PO410260   9.363   4.936   5.222  0.1433 -0.0464  0.0824
  705loPI   GL110261   9.590   4.878   5.617 -0.1837  0.1781 -0.3047
  705loPI   GL210262   9.935   4.905   5.722  0.4441  0.0255  0.0434
  705loPI   C1A10263   9.495   5.119   5.926  0.0679  0.1851 -0.2002
  705loPI   C2A10264   9.178   5.225   6.280 -0.0348  0.1183 -0.2296
  705loPI   C3A10265   9.012   5.279   6.766 -0.0286  0.0430  0.0561
  705loPI   C4A10266   8.916   5.187   7.178 -0.1444  0.0674 -0.3865
  705loPI   C5A10267   8.744   5.093   7.500 -0.1636 -0.1115  0.1525
  705loPI   C6A10268   8.764   5.007   7.891  0.5547  0.1994 -0.4607
  705loPI   C1B10269  10.022   4.812   6.100 -0.1947 -0.0395 -0.1700
  705loPI   C2B10270  10.144   4.829   6.558  0.0134  0.0888 -0.1972
  705loPI   C3B10271   9.915   4.772   6.894 -0.1773  0.1075 -0.1964
  705loPI   C4B10272   9.791   4.771   7.251 -0.1837  0.1630  0.0525
  706loPI    C110273  14.969  14.360   4.685  0.0977 -0.0091 -0.1627
  706loPI    C210274  14.664  14.117   4.597  0.1041 -0.1351  0.1488
  706loPI    C310275  14.779  14.398   4.335 -0.2049 -0.1594 -0.0176
  706loPI   PO410276  14.876  14.379   4.985 -0.2296  0.0827 -0.0538
  706loPI   GL110277  15.145  14.626   5.347  0.0019  0.2426  0.1501
  706loPI   GL210278  15.460  14.795   5.478  0.1707  0.4043 -0.0896
  706loPI   C1A10279  15.075  14.701   5.733  0.0531 -0.2635 -0.0950
  706loPI   C2A10280  15.024  14.824   6.195  0.1707 -0.1095  0.1874
  706loPI   C3A10281  14.807  15.096   6.432 -0.4119 -0.0733  0.1151
  706loPI   C4A10282  14.894  15.194   6.851 -0.1616  0.0593 -0.3710
  706loPI   C5A10283  14.889  15.494   7.105 -0.0943  0.1063 -0.2093
  706loPI   C6A10284  15.022  15.878   7.305  0.1592  0.1548 -0.3594
  706loPI   C1B10285  15.536  14.714   5.967 -0.1495  0.1597 -0.0388
  706loPI   C2B10286  15.690  14.759   6.374 -0.1041 -0.3234  0.0370
  706loPI   C3B10287  15.947  14.734   6.753  0.2104 -0.2379  0.1354
  706loPI   C4B10288  16.146  14.424   7.168 -0.1860 -0.0856 -0.3601
  707loPI    C110289   5.126  10.329   4.785  0.0378 -0.1372 -0.0216
  707loPI    C210290   5.457  10.329   4.560  0.0223  0.0451 -0.0461
  707loPI    C310291   5.144  10.103   4.455  0.0526  0.0517 -0.1521
  707loPI   PO410292   5.177  10.227   5.066 -0.1463 -0.2462 -0.2985
  707loPI   GL110293   5.161  10.202   5.572 -0.1367  0.2183 -0.3359
  707loPI   GL210294   5.089   9.962   5.789  0.1492  0.1140 -0.2642
  707loPI   C1A10295   5.500  10.291   5.922  0.3353 -0.0139  0.0980
  707loPI   C2A10296   5.816  10.339   6.160  0.0674 -0.0441 -0.0578
  707loPI   C3A10297   5.815  10.439   6.538  0.2236 -0.0820 -0.1206
  707loPI   C4A10298   5.933  10.642   6.923 -0.0650  0.4499  0.1781
  707loPI   C5A10299   5.884  10.852   7.301 -0.0098 -0.2222  0.0745
  707loPI   C6A10300   5.794  11.276   7.374  0.1557  0.2313 -0.3550
  707loPI   C1B10301   4.961  10.022   6.207 -0.2172  0.1676  0.1043
  707loPI   C2B10302   4.660  10.264   6.231 -0.1294 -0.1953  0.2520
  707loPI   C3B10303   4.517  10.359   6.507 -0.0491  0.0726  0.1514
  707loPI   C4B10304   4.582  10.536   7.013 -0.3733  0.3328  0.1222
  708loPI    C110305   0.535  17.651   4.952 -0.1533 -0.0550  0.0313
  708loPI    C210306   0.376  17.655   4.585 -0.0048 -0.2787 -0.0372
  708loPI    C310307   0.768  17.589   4.632  0.0254  0.0167  0.1460
  708loPI   PO410308   0.378  17.431   5.019  0.3543 -0.0683  0.1362
  708loPI   GL110309   0.225  17.176   5.396 -0.0003 -0.1456 -0.3114
  708loPI   GL210310   0.263  16.858   5.634 -0.0013 -0.0443 -0.0097
  708loPI   C1A10311  -0.186  17.170   5.749 -0.3345 -0.2170  0.0018
  708loPI   C2A10312  -0.563  16.930   5.951 -0.0427 -0.1699  0.2621
  708loPI   C3A10313  -0.804  16.924   6.285  0.2395  0.0530  0.1838
  708loPI   C4A10314  -0.762  16.920   6.690 -0.0541 -0.0475 -0.0109
  708loPI   C5A10315  -0.825  17.036   7.031  0.1556  0.0247 -0.0058
  708loPI   C6A10316  -1.011  16.932   7.457 -0.0730 -0.1809  0.2981
  708loPI   C1B10317   0.328  16.493   5.889  0.3406  0.0584 -0.0402
  708loPI   C2B10318   0.388  16.473   6.308  0.0609  0.2613 -0.2668
  708loPI   C3B10319   0.265  16.689   6.590  0.2567 -0.4455  0.2395
  708loPI   C4B10320   0.316  16.888   6.980 -0.2832  0.0225 -0.2742
  709loPI    C110321   4.571  12.015   4.886 -0.1877 -0.4662 -0.1309
  709loPI    C210322   4.379  12.281   4.656 -0.1136 -0.1767  0.1351
  709loPI    C310323   4.645  12.031   4.493 -0.2512 -0.1523 -0.1327
  709loPI   PO410324   4.723  12.100   5.169 -0.2323 -0.0902  0.2274
  709loPI   GL110325   4.901  11.969   5.555  0.0498  0.2433 -0.0541
  709loPI   GL210326   4.847  12.315   5.674  0.1061 -0.4833 -0.1529
  709loPI   C1A10327   4.918  11.790   5.817  0.0011  0.2464  0.1278
  709loPI   C2A10328   4.571  11.605   6.133 -0.2925  0.0944 -0.0364
  709loPI   C3A10329   4.503  11.342   6.465 -0.2466 -0.1940  0.1327
  709loPI   C4A10330   4.411  11.075   6.812  0.1935 -0.3755 -0.5092
  709loPI   C5A10331   4.174  11.034   7.212  0.3265  0.0999 -0.2040
  709loPI   C6A10332   3.869  11.143   7.556 -0.0978 -0.2316  0.3115
  709loPI   C1B10333   4.940  12.169   6.103 -0.2436  0.0435 -0.2112
  709loPI   C2B10334   4.844  12.123   6.530 -0.0082 -0.2265  0.0336
  709loPI   C3B10335   4.869  12.283   6.948 -0.4043  0.0854  0.2069
  709loPI   C4B10336   4.659  12.340   7.267 -0.0799 -0.1057 -0.0784
  710loPI    C110337  13.709   9.229   5.070  0.0685  0.0034 -0.0062
  710loPI    C210338  13.426   9.468   4.918  0.0477  0.1147  0.2039
  710loPI    C310339  13.801   9.602   4.959  0.0759  0.0509  0.1571
  710loPI   PO410340  13.603   9.151   5.292 -0.1726  0.3914  0.0308
  710loPI   GL110341  13.651   8.971   5.630  0.0881  0.0909  0.1637
  710loPI   GL210342  13.970   8.763   5.831  0.0639 -0.0308  0.2534
  710loPI   C1A10343  13.388   8.837   6.021 -0.3878  0.3990 -0.0784
  710loPI   C2A10344  13.094   8.669   6.410  0.1891 -0.0566 -0.0611
  710loPI   C3A10345  13.242   8.793   6.801 -0.0272  0.3000  0.0265
  710loPI   C4A10346  13.448   8.990   7.118 -0.0366 -0.1324  0.1420
  710loPI   C5A10347  13.593   8.907   7.525 -0.3441  0.1673 -0.1030
  710loPI   C6A10348  13.786   8.567   7.594 -0.2765  0.0271 -0.1725
  710loPI   C1B10349  13.799   8.720   6.310 -0.2062  0.1228  0.0311
  710loPI   C2B10350  13.570   8.548   6.562 -0.0259  0.2324  0.0925
  710loPI   C3B10351  13.706   8.102   6.601 -0.0290 -0.0242  0.1455
  710loPI   C4B10352  13.795   7.848   6.985  0.0871 -0.0313  0.1200
  711loPI    C110353   2.193  10.883   4.901 -0.0173 -0.0248  0.2834
  711loPI    C210354   1.794  10.876   4.873  0.0011 -0.3115  0.0396
  711loPI    C310355   2.012  11.025   4.573  0.0881 -0.4566  0.0297
  711loPI   PO410356   2.356  11.038   5.265  0.2402  0.1622  0.0389
  711loPI   GL110357   2.215  10.976   5.686  0.1382 -0.1096  0.1337
  711loPI   GL210358   1.961  10.935   5.832 -0.4451 -0.0621  0.1728
  711loPI   C1A10359   2.490  11.179   6.031  0.2222 -0.1134  0.2699
  711loPI   C2A10360   2.607  11.153   6.552  0.0838  0.3011  0.4642
  711loPI   C3A10361   2.481  10.979   6.928  0.0048  0.1057  0.0248
  711loPI   C4A10362   2.788  10.879   7.273 -0.0687  0.2761 -0.1467
  711loPI   C5A10363   2.941  10.714   7.682  0.0594 -0.1460 -0.3142
  711loPI   C6A10364   2.904  10.336   7.886 -0.0238 -0.0164  0.2948
  711loPI   C1B10365   1.726  11.008   6.262  0.0817  0.0954  0.3508
  711loPI   C2B10366   1.599  11.051   6.649 -0.0228 -0.1185 -0.1796
  711loPI   C3B10367   1.896  10.936   7.043  0.4332  0.1063 -0.3363
  711loPI   C4B10368   2.167  11.143   7.298 -0.1727 -0.0618  0.1656
  712loPI    C110369  13.448   2.461   4.611 -0.1033  0.1145  0.0540
  712loPI    C210370  13.672   2.623   4.323  0.1876 -0.1052  0.1521
  712loPI    C310371  13.324   2.450   4.231  0.1361  0.0886 -0.0248
  712loPI   PO410372  13.644   2.520   4.847  0.4540  0.1541  0.4892
  712loPI   GL110373  13.472   2.486   5.250 -0.0941 -0.2983  0.1634
  712loPI   GL210374  13.099   2.308   5.231 -0.1656  0.0605  0.1480
  712loPI   C1A10375  13.305   2.509   5.669 -0.3846  0.0444  0.1055
  712loPI   C2A10376  13.176   2.547   6.072 -0.0852 -0.2005 -0.4483
  712loPI   C3A10377  13.242   2.622   6.568  0.0510 -0.3866 -0.2251
  712loPI   C4A10378  13.240   2.562   7.073  0.1481 -0.1291 -0.1610
  712loPI   C5A10379  13.215   2.138   7.187 -0.1203 -0.3716 -0.1753
  712loPI   C6A10380  13.035   1.723   7.215  0.1064 -0.1138 -0.0882
  712loPI   C1B10381  13.228   1.956   5.571 -0.0449  0.4003 -0.3158
  712loPI   C2B10382  13.247   1.846   5.938 -0.0958  0.0942  0.2261
  712loPI   C3B10383  13.223   2.086   6.346 -0.0671 -0.2182 -0.2039
  712loPI   C4B10384  12.976   2.120   6.741 -0.2115 -0.3087 -0.2376
  713loPI    C110385  12.041  13.179   4.748 -0.0639 -0.1650 -0.1583
  713loPI    C210386  12.349  13.383   4.596 -0.0009 -0.1362  0.0066
  713loPI    C310387  12.312  12.992   4.520  0.0239 -0.1200 -0.0912
  713loPI   PO410388  12.049  13.316   5.012  0.1105  0.1262  0.4514
  713loPI   GL110389  11.973  13.190   5.423  0.1256 -0.1857  0.0398
  713loPI   GL210390  11.910  12.826   5.367  0.0505  0.1410  0.0716
  713loPI   C1A10391  12.089  13.457   5.809 -0.0723  0.2278  0.2057
  713loPI   C2A10392  12.097  13.524   6.185 -0.2310  0.2172 -0.0456
  713loPI   C3A10393  12.139  13.896   6.569  0.3357  0.1647 -0.0938
  713loPI   C4A10394  12.402  14.035   6.859 -0.0693 -0.2625  0.1130
  713loPI   C5A10395  12.497  14.375   7.149  0.1077 -0.1983 -0.1565
  713loPI   C6A10396  12.647  14.600   7.551 -0.0978  0.0828 -0.0742
  713loPI   C1B10397  12.020  12.809   5.833  0.0419 -0.0946 -0.0503
  713loPI   C2B10398  12.101  12.644   6.216 -0.1428 -0.1074 -0.0875
  713loPI   C3B10399  12.365  12.427   6.379  0.1261 -0.1522 -0.0444
  713loPI   C4B10400  12.752  12.231   6.575 -0.1259  0.3351 -0.0302
  714loPI    C110401  12.176   2.866   4.944 -0.1701  0.1437  0.4265
  714loPI    C210402  12.002   3.222   4.890 -0.3660 -0.0064  0.0320
  714loPI    C310403  12.158   3.026   4.578  0.1487 -0.0643  0.3153
  714loPI   PO410404  11.868   2.764   5.079 -0.0131 -0.1381 -0.1154
  714loPI   GL110405  11.655   2.682   5.441  0.0147 -0.1069  0.1756
  714loPI   GL210406  11.340   2.454   5.537  0.1449  0.0420 -0.1073
  714loPI   C1A10407  11.777   2.541   5.873  0.0537  0.0987  0.1790
  714loPI   C2A10408  11.819   2.423   6.337  0.3182  0.0099 -0.1015
  714loPI   C3A10409  11.598   2.127   6.518 -0.2497 -0.0456 -0.1689
  714loPI   C4A10410  11.418   1.989   6.936  0.4024 -0.1275 -0.1256
  714loPI   C5A10411  11.083   2.025   7.207  0.0716  0.1713 -0.1352
  714loPI   C6A10412  10.769   2.098   7.455  0.0471 -0.0778  0.0559
  714loPI   C1B10413  11.160   2.550   5.865 -0.2779  0.3368  0.0126
  714loPI   C2B10414  10.801   2.807   6.064 -0.0715  0.2951  0.0927
  714loPI   C3B10415  10.658   3.036   6.431  0.1847 -0.0096  0.0964
  714loPI   C4B10416  10.566   2.796   6.813  0.2599  0.0528  0.4505
  715loPI    C110417  18.615  13.870   4.797  0.2002 -0.0540  0.1768
  715loPI    C210418  18.467  14.227   4.693 -0.0052 -0.1676  0.0723
  715loPI    C310419  18.635  13.992   4.416  0.1138 -0.1605  0.1376
  715loPI   PO410420  18.773  13.919   5.035  0.1435 -0.1346 -0.1519
  715loPI   GL110421  18.616  14.005   5.448  0.2851 -0.0644  0.0447
  715loPI   GL210422  18.346  14.118   5.514  0.0429  0.0788 -0.2788
  715loPI   C1A10423  18.485  14.077   5.952  0.1810  0.1424 -0.1735
  715loPI   C2A10424  18.116  14.181   6.091  0.0242 -0.1626 -0.0378
  715loPI   C3A10425  18.010  14.567   6.339  0.1338 -0.2697  0.2908
  715loPI   C4A10426  17.965  14.786   6.633  0.3286  0.2415 -0.3243
  715loPI   C5A10427  18.195  15.029   6.935  0.2754 -0.0641  0.1024
  715loPI   C6A10428  18.536  15.072   7.006 -0.0702 -0.0283  0.1860
  715loPI   C1B10429  18.663  14.483   5.741 -0.0997  0.1910 -0.1904
  715loPI   C2B10430  18.650  14.596   6.127  0.2011  0.2561 -0.2485
  715loPI   C3B10431  18.501  14.735   6.529 -0.0349 -0.1982 -0.0361
  715loPI   C4B10432  18.433  14.558   6.985 -0.0245  0.0212  0.0183
  716loPI    C110433  13.146   0.584   4.695  0.0363 -0.3980  0.3037
  716loPI    C210434  13.182   0.383   4.351 -0.0039  0.3260 -0.1453
  716loPI    C310435  12.821   0.504   4.476  0.0099  0.0627  0.1640
  716loPI   PO410436  13.288   0.483   4.847 -0.1063  0.0154 -0.5106
  716loPI   GL110437  13.315   0.275   5.221  0.0454 -0.1640 -0.0637
  716loPI   GL210438  13.610   0.440   5.244  0.0093  0.1198 -0.0106
  716loPI   C1A10439  13.138   0.094   5.561 -0.4131 -0.0601 -0.2697
  716loPI   C2A10440  13.022   0.017   6.053 -0.3743  0.4081  0.0631
  716loPI   C3A10441  12.972   0.110   6.557 -0.1086  0.1832  0.1066
  716loPI   C4A10442  12.779   0.009   7.000  0.2198  0.0400 -0.1075
  716loPI   C5A10443  12.508  -0.201   7.307  0.0581  0.2060 -0.1885
  716loPI   C6A10444  12.446  -0.552   7.616 -0.2155  0.0198  0.1445
  716loPI   C1B10445  13.493   0.599   5.615 -0.0911  0.3395  0.1184
  716loPI   C2B10446  13.356   0.839   5.932  0.2527 -0.0697 -0.0821
  716loPI   C3B10447  13.469   0.761   6.405  0.2718  0.2254  0.1830
  716loPI   C4B10448  13.340   0.511   6.772  0.2098  0.1242  0.3892
  717loPI    C110449  14.400   0.497   4.704 -0.2406  0.3350 -0.0210
  717loPI    C210450  14.161   0.384   4.404  0.0197 -0.0284 -0.0980
  717loPI    C310451  14.520   0.540   4.325  0.0895 -0.1255  0.0222
  717loPI   PO410452  14.432   0.269   4.900 -0.2693  0.0183  0.1109
  717loPI   GL110453  14.309   0.145   5.246 -0.0092  0.0240  0.1017
  717loPI   GL210454  14.474   0.456   5.408 -0.1869 -0.1724  0.1585
  717loPI   C1A10455  14.175   0.072   5.686 -0.2699  0.1429  0.4428
  717loPI   C2A10456  14.315  -0.216   5.899  0.2612  0.0207  0.2376
  717loPI   C3A10457  14.416  -0.227   6.337  0.1957  0.0207 -0.0333
  717loPI   C4A10458  14.450  -0.302   6.776 -0.0845  0.0114 -0.0523
  717loPI   C5A10459  14.390   0.011   7.206 -0.0588  0.1724  0.1712
  717loPI   C6A10460  14.185   0.416   7.065 -0.1391 -0.1304 -0.5464
  717loPI   C1B10461  14.485   0.475   5.848 -0.0489  0.3521 -0.0201
  717loPI   C2B10462  14.435   0.282   6.139  0.1512 -0.0785 -0.1640
  717loPI   C3B10463  14.699   0.163   6.465  0.1064  0.0326 -0.1169
  717loPI   C4B10464  14.739   0.217   6.869  0.0810 -0.1472  0.0153
  718loPI    C110465   6.109  17.354   5.231  0.0928 -0.2004  0.1386
  718loPI    C210466   6.483  17.312   5.365  0.1167  0.1336  0.1865
  718loPI    C310467   6.395  17.604   5.107  0.0023 -0.2959 -0.2770
  718loPI   PO410468   6.014  17.281   5.587  0.0861 -0.1610  0.1684
  718loPI   GL110469   5.659  17.198   5.814  0.0995 -0.0461  0.0090
  718loPI   GL210470   5.429  17.402   6.037 -0.2153 -0.2730  0.0364
  718loPI   C1A10471   5.771  16.913   6.215  0.0073 -0.0688  0.1863
  718loPI   C2A10472   5.467  16.865   6.430  0.0716 -0.3747  0.0831
  718loPI   C3A10473   5.256  16.952   6.731 -0.3462 -0.0624  0.0538
  718loPI   C4A10474   4.878  16.939   6.861 -0.1486  0.0222 -0.0725
  718loPI   C5A10475   4.617  17.021   7.312 -0.4482  0.0923 -0.0498
  718loPI   C6A10476   4.343  16.929   7.542 -0.0814 -0.0734  0.3866
  718loPI   C1B10477   5.324  17.419   6.469 -0.2346 -0.0026  0.0261
  718loPI   C2B10478   5.275  17.436   6.871  0.0286 -0.2274  0.0996
  718loPI   C3B10479   5.379  17.750   7.178 -0.0047  0.1537  0.1650
  718loPI   C4B10480   5.410  18.156   7.165  0.1512  0.3456  0.0629
  719loPI    C110481   1.977   2.803   4.821 -0.0443 -0.0966  0.0063
  719loPI    C210482   1.993   2.411   4.744 -0.0566 -0.0793 -0.0854
  719loPI    C310483   1.859   2.665   4.465  0.0648  0.0031 -0.0695
  719loPI   PO410484   1.796   2.877   5.027 -0.4203 -0.1610 -0.1947
  719loPI   GL110485   1.634   2.792   5.454  0.1749  0.3269  0.0664
  719loPI   GL210486   1.455   2.540   5.517 -0.2938 -0.0052  0.2079
  719loPI   C1A10487   1.704   2.802   5.928  0.1249  0.1324  0.1229
  719loPI   C2A10488   1.730   2.637   6.336 -0.2023  0.2494 -0.0964
  719loPI   C3A10489   1.790   2.673   6.763 -0.0488  0.0685  0.1227
  719loPI   C4A10490   2.146   2.940   6.956  0.0508 -0.0195 -0.0906
  719loPI   C5A10491   2.199   3.077   7.379  0.0201 -0.1169  0.1129
  719loPI   C6A10492   2.317   3.081   7.758 -0.1292  0.2736  0.1881
  719loPI   C1B10493   1.474   2.341   5.848  0.0325 -0.1322 -0.1250
  719loPI   C2B10494   1.494   2.193   6.324  0.1619 -0.0564 -0.0966
  719loPI   C3B10495   1.329   2.200   6.777  0.1706  0.1087  0.1356
  719loPI   C4B10496   0.968   2.278   6.918 -0.0083  0.3300 -0.0408
  720loPI    C110497   1.424   6.013   5.163 -0.0686 -0.0588 -0.0066
  720loPI    C210498   1.358   6.391   5.050  0.1476  0.0828  0.3231
  720loPI    C310499   1.423   6.108   4.774 -0.1658  0.2529  0.0670
  720loPI   PO410500   1.369   6.101   5.485 -0.0947  0.0700  0.0092
  720loPI   GL110501   1.293   6.226   5.887  0.0414 -0.2722 -0.0384
  720loPI   GL210502   1.416   6.461   6.031  0.2176  0.0325  0.0818
  720loPI   C1A10503   1.413   5.934   6.088 -0.0244  0.0178 -0.2572
  720loPI   C2A10504   1.558   5.809   6.466 -0.1546 -0.0748 -0.0292
  720loPI   C3A10505   1.484   5.962   6.818  0.0993 -0.1435 -0.2157
  720loPI   C4A10506   1.414   6.096   7.126  0.0043  0.1717 -0.0105
  720loPI   C5A10507   1.503   6.431   7.396  0.1690 -0.0246  0.3684
  720loPI   C6A10508   1.279   6.747   7.639  0.1503 -0.1638  0.2508
  720loPI   C1B10509   1.346   6.313   6.446  0.0809  0.0942  0.0116
  720loPI   C2B10510   1.365   6.530   6.750  0.1872 -0.3763 -0.3712
  720loPI   C3B10511   1.729   6.573   7.016  0.1352  0.2163  0.1425
  720loPI   C4B10512   2.035   6.374   7.308  0.1279  0.3038  0.0235
  721loPI    C110513   8.468  10.253   4.774  0.2457  0.0700  0.0480
  721loPI    C210514   8.352  10.403   4.421 -0.0429  0.0015  0.1112
  721loPI    C310515   8.627  10.113   4.435  0.0579  0.0882 -0.0491
  721loPI   PO410516   8.480  10.460   4.941 -0.1155  0.0052  0.0934
  721loPI   GL110517   8.567  10.433   5.387  0.1062 -0.0277 -0.3162
  721loPI   GL210518   8.778  10.201   5.584 -0.3821 -0.0465  0.2275
  721loPI   C1A10519   8.263  10.298   5.697  0.0701  0.0698  0.4919
  721loPI   C2A10520   8.222  10.556   6.084  0.0343 -0.0723  0.0114
  721loPI   C3A10521   8.299  10.459   6.459  0.0831  0.3293  0.0159
  721loPI   C4A10522   8.567  10.426   6.878  0.1447 -0.2774  0.0113
  721loPI   C5A10523   8.966  10.342   7.218 -0.0265 -0.4790 -0.0561
  721loPI   C6A10524   8.868  10.392   7.627  0.0647 -0.0816 -0.0038
  721loPI   C1B10525   8.690  10.517   5.916 -0.0843  0.0309  0.2481
  721loPI   C2B10526   8.786  10.496   6.372 -0.0681 -0.1191 -0.0201
  721loPI   C3B10527   9.020  10.221   6.724  0.0751 -0.1138  0.1457
  721loPI   C4B10528   9.414  10.158   6.868 -0.0013  0.0082  0.2095
  722loPI    C110529  11.594  17.266   4.836  0.1710  0.1682  0.0003
  722loPI    C210530  11.953  17.254   4.660  0.0923  0.0417 -0.1538
  722loPI    C310531  11.721  17.578   4.621  0.2126  0.1465 -0.0067
  722loPI   PO410532  11.637  17.229   5.062 -0.1378 -0.2413 -0.3555
  722loPI   GL110533  11.356  17.318   5.405  0.3016  0.2411 -0.1644
  722loPI   GL210534  11.139  17.511   5.391  0.0809  0.1342  0.0543
  722loPI   C1A10535  11.603  17.097   5.759 -0.0710  0.2583  0.1484
  722loPI   C2A10536  11.822  16.944   6.202  0.1772 -0.0241  0.2777
  722loPI   C3A10537  11.827  16.822   6.755  0.2847  0.2382 -0.0302
  722loPI   C4A10538  12.032  16.678   7.120 -0.5161 -0.1662  0.0483
  722loPI   C5A10539  11.917  16.330   7.393  0.0953  0.1410  0.0447
  722loPI   C6A10540  11.574  16.385   7.680 -0.2873  0.2374 -0.0322
  722loPI   C1B10541  11.176  17.668   5.779 -0.0820 -0.2078 -0.0799
  722loPI   C2B10542  11.009  17.740   6.231  0.0844 -0.0617 -0.1994
  722loPI   C3B10543  10.807  18.051   6.448 -0.0392  0.2125 -0.0896
  722loPI   C4B10544  11.074  18.157   6.779 -0.0986 -0.0469 -0.0551
  723loPI    C110545  18.434   1.454   4.759 -0.0190 -0.1117 -0.1408
  723loPI    C210546  18.202   1.711   4.558  0.0242 -0.0072 -0.0581
  723loPI    C310547  18.586   1.800   4.627 -0.0075 -0.0107  0.1298
  723loPI   PO410548  18.273   1.446   4.983  0.0936 -0.0914 -0.0040
  723loPI   GL110549  18.208   1.280   5.374  0.1977 -0.1271  0.0305
  723loPI   GL210550  18.154   1.600   5.531 -0.0594 -0.0219 -0.2100
  723loPI   C1A10551  18.058   1.148   5.813  0.1140  0.4012 -0.1837
  723loPI   C2A10552  17.999   1.088   6.268  0.0411  0.4380  0.0708
  723loPI   C3A10553  17.885   0.886   6.608 -0.1848  0.0308 -0.0884
  723loPI   C4A10554  17.914   0.699   6.901  0.1669  0.0324 -0.2296
  723loPI   C5A10555  17.780   0.318   6.928  0.1762  0.0606  0.2556
  723loPI   C6A10556  17.519   0.101   6.656  0.2949 -0.0310 -0.0251
  723loPI   C1B10557  18.331   1.555   6.001 -0.1830 -0.4132  0.2661
  723loPI   C2B10558  18.183   1.649   6.311  0.0582 -0.3230 -0.1540
  723loPI   C3B10559  18.187   1.308   6.702  0.0699  0.0578 -0.0580
  723loPI   C4B10560  18.113   1.234   7.156  0.0808  0.0218 -0.0380
  724loPI    C110561   5.204  13.511   4.816  0.0962 -0.0233  0.0766
  724loPI    C210562   5.438  13.244   4.632  0.1598  0.1010 -0.0250
  724loPI    C310563   5.223  13.503   4.416 -0.0619 -0.0031  0.0681
  724loPI   PO410564   5.323  13.620   5.022 -0.1747  0.1473  0.1463
  724loPI   GL110565   5.512  13.671   5.402 -0.1732  0.1050  0.1959
  724loPI   GL210566   5.782  13.425   5.475  0.2851 -0.1253  0.0453
  724loPI   C1A10567   5.378  13.554   5.765  0.0270  0.4082  0.1219
  724loPI   C2A10568   5.301  13.601   6.180  0.0528 -0.1027  0.1451
  724loPI   C3A10569   5.219  13.504   6.575 -0.0833  0.2042  0.1528
  724loPI   C4A10570   4.887  13.311   6.957 -0.0569  0.1102 -0.2699
  724loPI   C5A10571   4.501  13.241   7.159 -0.0396 -0.0965 -0.2610
  724loPI   C6A10572   4.162  13.145   7.450 -0.1070  0.2840  0.5493
  724loPI   C1B10573   5.921  13.575   5.792  0.3144 -0.2826 -0.3205
  724loPI   C2B10574   5.788  13.682   6.264 -0.2126 -0.0286  0.3070
  724loPI   C3B10575   5.560  13.925   6.583  0.0341 -0.0239  0.0627
  724loPI   C4B10576   5.682  14.120   6.887 -0.1145  0.0019  0.1992
  725loPI    C110577   0.507   6.497   5.210 -0.0024 -0.0350  0.0715
  725loPI    C210578   0.512   6.884   5.108 -0.0498 -0.0147  0.1454
  725loPI    C310579   0.511   6.602   4.824  0.1748  0.0369  0.0922
  725loPI   PO410580   0.361   6.512   5.531  0.0575 -0.0643  0.2181
  725loPI   GL110581   0.475   6.681   6.005  0.2400 -0.0206 -0.1452
  725loPI   GL210582   0.816   6.635   5.919  0.0583 -0.3746  0.2501
  725loPI   C1A10583   0.314   6.669   6.458  0.2165  0.1369 -0.1402
  725loPI   C2A10584   0.217   6.810   6.966  0.4146  0.2449  0.2227
  725loPI   C3A10585   0.431   6.712   7.275 -0.2348 -0.3220 -0.1134
  725loPI   C4A10586   0.742   6.633   7.530  0.1787 -0.0115  0.0739
  725loPI   C5A10587   0.935   6.569   8.012 -0.2539  0.1231  0.0482
  725loPI   C6A10588   1.203   6.855   8.355  0.2777  0.0471 -0.1855
  725loPI   C1B10589   1.019   7.035   6.080 -0.2980  0.0526  0.5076
  725loPI   C2B10590   1.044   7.453   6.370 -0.1179  0.1419  0.2783
  725loPI   C3B10591   0.835   7.701   6.576  0.1270 -0.2948 -0.1363
  725loPI   C4B10592   0.677   8.025   6.706 -0.2577 -0.0357  0.0158
  726loPI    C110593   6.586   7.442   5.238 -0.0693 -0.1111  0.3780
  726loPI    C210594   6.329   7.359   5.532 -0.2217 -0.0448  0.2649
  726loPI    C310595   6.203   7.555   5.207 -0.0637 -0.1531  0.1375
  726loPI   PO410596   6.831   7.444   5.414  0.0044 -0.1547 -0.0190
  726loPI   GL110597   6.738   7.242   5.783 -0.1291 -0.0064  0.0840
  726loPI   GL210598   6.936   6.957   5.801  0.1088  0.0094 -0.0347
  726loPI   C1A10599   6.872   7.500   6.137 -0.0376  0.0829 -0.1867
  726loPI   C2A10600   6.805   7.650   6.538 -0.0546 -0.1713  0.1359
  726loPI   C3A10601   6.911   7.799   6.963 -0.2103 -0.2016 -0.1921
  726loPI   C4A10602   6.843   8.164   7.331 -0.1770  0.0567  0.0070
  726loPI   C5A10603   7.002   8.333   7.615 -0.1463  0.2610 -0.0624
  726loPI   C6A10604   7.264   8.121   8.034 -0.2616 -0.2403 -0.0391
  726loPI   C1B10605   7.263   6.870   6.065 -0.0769  0.3450  0.2308
  726loPI   C2B10606   7.414   6.671   6.440 -0.2358 -0.0425  0.0357
  726loPI   C3B10607   7.444   6.399   6.800  0.0958 -0.1788 -0.0398
  726loPI   C4B10608   7.658   6.356   7.208  0.0985  0.0449 -0.0263
  727loPI    C110609   3.105  14.959   5.262  0.0329  0.1835  0.0079
  727loPI    C210610   3.227  14.932   4.882 -0.1608 -0.1459 -0.0349
  727loPI    C310611   2.989  15.233   4.994 -0.0012  0.0234 -0.1429
  727loPI   PO410612   3.328  14.700   5.369 -0.0285  0.0037 -0.1209
  727loPI   GL110613   3.301  14.502   5.722  0.1330 -0.0386 -0.0837
  727loPI   GL210614   3.088  14.238   5.866  0.4927 -0.2478  0.0484
  727loPI   C1A10615   3.524  14.568   6.021  0.3753 -0.0878  0.2608
  727loPI   C2A10616   3.640  14.583   6.488  0.0130 -0.1822 -0.0040
  727loPI   C3A10617   3.843  14.398   6.950  0.1849 -0.1945 -0.0420
  727loPI   C4A10618   3.984  14.608   7.370  0.0716 -0.3709  0.1719
  727loPI   C5A10619   4.236  14.955   7.603  0.2069  0.0873  0.2395
  727loPI   C6A10620   4.499  15.283   7.649  0.2436  0.1592  0.0458
  727loPI   C1B10621   3.215  14.284   6.307 -0.1474 -0.0696  0.0810
  727loPI   C2B10622   3.134  14.334   6.622  0.2370 -0.0107  0.0178
  727loPI   C3B10623   2.926  14.295   6.960  0.1976 -0.1166  0.1063
  727loPI   C4B10624   2.695  14.365   7.361 -0.1197  0.2956 -0.2240
  728loPI    C110625   3.919   8.506   5.232 -0.2278 -0.1413 -0.1543
  728loPI    C210626   3.947   8.897   5.308  0.0055 -0.2097  0.1296
  728loPI    C310627   3.601   8.707   5.368 -0.1373 -0.0295 -0.1060
  728loPI   PO410628   4.135   8.385   5.325  0.1190  0.0643 -0.1131
  728loPI   GL110629   4.130   8.203   5.698 -0.1507 -0.5256 -0.2350
  728loPI   GL210630   4.437   8.305   5.860 -0.0511 -0.0421  0.1621
  728loPI   C1A10631   4.025   8.423   6.167  0.0516 -0.0988 -0.0890
  728loPI   C2A10632   3.961   8.389   6.633  0.0720  0.1198  0.1233
  728loPI   C3A10633   3.703   8.350   6.963 -0.0123  0.0718  0.0827
  728loPI   C4A10634   3.387   8.510   6.990  0.1849 -0.1675  0.2023
  728loPI   C5A10635   3.061   8.681   7.049  0.1625 -0.1183  0.0454
  728loPI   C6A10636   2.678   8.754   7.335  0.3604  0.1639 -0.0862
  728loPI   C1B10637   4.529   8.351   6.320  0.1782 -0.1297  0.0432
  728loPI   C2B10638   4.400   8.149   6.730 -0.1955  0.4203  0.1935
  728loPI   C3B10639   4.430   8.035   7.128  0.0060  0.2014 -0.1038
  728loPI   C4B10640   4.381   7.905   7.574  0.1370  0.1097 -0.2255
  729loPI    C110641   4.467   9.540   4.802  0.0340  0.0902 -0.0154
  729loPI    C210642   4.104   9.460   4.654 -0.0431  0.2205  0.1021
  729loPI    C310643   4.430   9.373   4.440 -0.1375 -0.0472  0.0639
  729loPI   PO410644   4.431   9.745   5.056 -0.0160  0.1948  0.0577
  729loPI   GL110645   4.157   9.931   5.486 -0.0425  0.3270  0.3095
  729loPI   GL210646   4.276  10.160   5.523 -0.0164  0.0645 -0.2610
  729loPI   C1A10647   4.089  10.167   5.981  0.0590 -0.2134 -0.1591
  729loPI   C2A10648   3.994  10.226   6.408  0.0110 -0.1765  0.0696
  729loPI   C3A10649   4.010  10.230   6.795 -0.0255 -0.1090  0.1069
  729loPI   C4A10650   4.100  10.287   7.199  0.0849 -0.1976  0.0971
  729loPI   C5A10651   4.439  10.537   7.490  0.2748  0.4446 -0.0847
  729loPI   C6A10652   4.729  10.861   7.309  0.1188 -0.1670 -0.1036
  729loPI   C1B10653   4.041  10.599   5.568  0.0394 -0.1020  0.0980
  729loPI   C2B10654   3.966  10.947   5.814  0.1224 -0.1524  0.0051
  729loPI   C3B10655   3.850  11.078   6.270 -0.1811 -0.1078 -0.0795
  729loPI   C4B10656   3.928  11.158   6.686  0.1399 -0.1685  0.0467
  730loPI    C110657  16.760   4.391   4.967  0.1475 -0.0077 -0.1420
  730loPI    C210658  16.838   4.647   4.669 -0.1513 -0.0215 -0.2350
  730loPI    C310659  16.689   4.285   4.587  0.1043 -0.1615 -0.0915
  730loPI   PO410660  16.761   4.618   5.202  0.0351 -0.1039  0.4021
  730loPI   GL110661  16.907   4.993   5.324  0.3223  0.1057  0.1666
  730loPI   GL210662  17.186   4.983   5.390  0.0682 -0.2464  0.1635
  730loPI   C1A10663  16.666   5.060   5.752 -0.2686  0.0553 -0.0750
  730loPI   C2A10664  16.548   5.040   6.227  0.0662  0.0367  0.4203
  730loPI   C3A10665  16.800   4.808   6.558  0.1329 -0.0305  0.1614
  730loPI   C4A10666  16.695   4.716   6.968 -0.2316 -0.1577  0.2774
  730loPI   C5A10667  16.725   5.094   7.276  0.0383  0.4229  0.3086
  730loPI   C6A10668  16.655   5.287   7.653 -0.0200  0.2445  0.0532
  730loPI   C1B10669  17.328   5.111   5.757  0.2645  0.0009 -0.0588
  730loPI   C2B10670  17.589   5.136   6.063  0.2311  0.1931  0.2169
  730loPI   C3B10671  17.665   5.266   6.450  0.1629  0.2473 -0.3454
  730loPI   C4B10672  17.873   5.364   6.865  0.1662  0.1315  0.0627
  731loPI    C110673  12.034   9.461   5.097  0.0377 -0.1196  0.1840
  731loPI    C210674  11.982   9.168   4.829 -0.0419 -0.1682  0.2523
  731loPI    C310675  11.665   9.333   5.008  0.0006 -0.0161  0.1882
  731loPI   PO410676  12.248   9.309   5.327 -0.2255 -0.2359  0.0888
  731loPI   GL110677  12.054   9.268   5.714  0.3661 -0.0036 -0.0891
  731loPI   GL210678  11.757   9.124   5.743 -0.1317 -0.0853 -0.5743
  731loPI   C1A10679  11.979   9.472   6.146 -0.1611  0.1145  0.1106
  731loPI   C2A10680  11.862   9.513   6.610 -0.2390 -0.3444  0.3040
  731loPI   C3A10681  11.580   9.241   6.766 -0.0222 -0.2143  0.0943
  731loPI   C4A10682  11.228   9.162   6.993  0.3127 -0.5957 -0.2119
  731loPI   C5A10683  10.926   9.190   7.162 -0.2284  0.4246 -0.1178
  731loPI   C6A10684  10.599   9.491   7.152  0.2298  0.0948  0.4177
  731loPI   C1B10685  11.725   9.087   6.287  0.1832 -0.0497  0.2310
  731loPI   C2B10686  11.399   8.858   6.583 -0.2010  0.0736  0.1015
  731loPI   C3B10687  11.169   8.619   6.975 -0.2725 -0.1982 -0.3312
  731loPI   C4B10688  10.777   8.700   7.071 -0.0041 -0.1704  0.0732
  732loPI    C110689  15.767   1.660   4.958 -0.0270  0.0935 -0.2323
  732loPI    C210690  16.092   1.825   4.795  0.0331  0.0208 -0.1870
  732loPI    C310691  15.822   1.643   4.563  0.0647  0.0116 -0.2165
  732loPI   PO410692  15.885   1.410   5.099 -0.0727 -0.0173 -0.1552
  732loPI   GL110693  15.760   1.403   5.438 -0.0567  0.0950  0.5393
  732loPI   GL210694  15.425   1.349   5.472 -0.0705  0.4293 -0.0277
  732loPI   C1A10695  15.655   1.739   5.746 -0.1102  0.1274 -0.1598
  732loPI   C2A10696  15.552   1.760   6.247  0.1057 -0.0138  0.0314
  732loPI   C3A10697  15.461   1.983   6.649 -0.2484 -0.2069  0.0075
  732loPI   C4A10698  15.203   2.013   7.110 -0.0615 -0.0790  0.1380
  732loPI   C5A10699  14.717   1.807   7.331 -0.2341 -0.2220  0.2276
  732loPI   C6A10700  14.444   1.447   7.304 -0.3605  0.1106 -0.1593
  732loPI   C1B10701  15.644   1.263   5.874  0.1066  0.0949 -0.2015
  732loPI   C2B10702  15.578   1.249   6.311  0.1002  0.1662  0.3357
  732loPI   C3B10703  15.775   1.509   6.617  0.2215 -0.0665 -0.3429
  732loPI   C4B10704  15.752   1.580   7.072 -0.1130 -0.2488  0.0248
  733loPI    C110705  16.471   0.062   4.785 -0.0031  0.0431  0.0844
  733loPI    C210706  16.500   0.224   4.420 -0.0355  0.1145  0.1135
  733loPI    C310707  16.173   0.016   4.522  0.2491 -0.4741 -0.1269
  733loPI   PO410708  16.655   0.194   4.861  0.1602  0.1053  0.1557
  733loPI   GL110709  16.901   0.165   5.266  0.2305  0.2983 -0.0436
  733loPI   GL210710  16.499   0.036   5.290  0.0443 -0.0155 -0.1651
  733loPI   C1A10711  16.880  -0.137   5.576 -0.1255  0.0532 -0.1582
  733loPI   C2A10712  16.757  -0.248   6.024  0.2431 -0.6972  0.3435
  733loPI   C3A10713  16.783  -0.212   6.480 -0.2831 -0.0656 -0.2269
  733loPI   C4A10714  17.089  -0.015   6.873  0.2689 -0.5408 -0.0555
  733loPI   C5A10715  17.296   0.343   7.111  0.0915 -0.1472 -0.1397
  733loPI   C6A10716  17.214   0.651   7.378 -0.2755  0.1696 -0.0262
  733loPI   C1B10717  16.514   0.235   5.626 -0.2409  0.0980  0.0522
  733loPI   C2B10718  16.352   0.476   5.987  0.0939  0.0090  0.2983
  733loPI   C3B10719  16.156   0.683   6.386 -0.1674  0.1261  0.0720
  733loPI   C4B10720  16.036   0.935   6.520  0.1013  0.3751 -0.0418
  734loPI    C110721  10.106  18.614   5.257  0.0449 -0.2806  0.0911
  734loPI    C210722  10.228  18.527   4.886 -0.0107 -0.1773  0.0481
  734loPI    C310723  10.115  18.900   4.977  0.1564 -0.1652  0.2109
  734loPI   PO410724   9.993  18.388   5.282  0.1564  0.0819 -0.1297
  734loPI   GL110725  10.133  18.086   5.611 -0.0834  0.0264 -0.0272
  734loPI   GL210726   9.946  17.806   5.568  0.0817  0.2779 -0.1488
  734loPI   C1A10727  10.061  18.014   6.051 -0.1582 -0.2880  0.2162
  734loPI   C2A10728   9.978  17.917   6.497 -0.1037 -0.0674 -0.1099
  734loPI   C3A10729  10.005  18.050   6.854  0.1932 -0.1441  0.0482
  734loPI   C4A10730   9.894  18.295   7.109  0.2011  0.3719 -0.1896
  734loPI   C5A10731   9.805  18.665   7.095 -0.0262  0.0300  0.1932
  734loPI   C6A10732   9.902  19.035   6.781 -0.2025 -0.2957  0.2994
  734loPI   C1B10733  10.011  17.528   5.954 -0.1637 -0.2408  0.0842
  734loPI   C2B10734   9.940  17.238   6.285 -0.0727 -0.2454  0.1217
  734loPI   C3B10735   9.982  17.152   6.735  0.0783 -0.1114 -0.5698
  734loPI   C4B10736   9.949  16.886   7.072 -0.3953  0.2881  0.2745
  735loPI    C110737  14.381  13.464   4.967 -0.0435 -0.0939 -0.0308
  735loPI    C210738  14.613  13.243   5.206  0.0883  0.2226  0.1398
  735loPI    C310739  14.559  13.135   4.825  0.2795 -0.0138  0.1772
  735loPI   PO410740  14.104  13.479   5.079  0.3471 -0.3425  0.0901
  735loPI   GL110741  14.061  13.878   5.256  0.1556  0.2286  0.0337
  735loPI   GL210742  14.406  13.951   5.514  0.1858  0.4734  0.0052
  735loPI   C1A10743  13.926  14.149   5.657  0.0123 -0.1620 -0.0972
  735loPI   C2A10744  13.890  14.344   5.956  0.1498 -0.0034  0.0382
  735loPI   C3A10745  13.733  14.229   6.460 -0.0452  0.0088 -0.0606
  735loPI   C4A10746  13.891  14.131   6.807  0.1725  0.6082  0.1260
  735loPI   C5A10747  14.086  14.026   7.197  0.3369 -0.4766 -0.2003
  735loPI   C6A10748  14.391  13.733   7.459 -0.2399  0.1555 -0.0159
  735loPI   C1B10749  14.713  13.884   5.768  0.1620  0.2904 -0.0560
  735loPI   C2B10750  14.836  14.270   6.050  0.2088 -0.1307 -0.0803
  735loPI   C3B10751  14.877  14.396   6.400  0.5972  0.4668  0.2380
  735loPI   C4B10752  15.044  14.685   6.717 -0.0366 -0.0274 -0.1975
  736loPI    C110753  11.525   8.260   5.057  0.0734 -0.0248 -0.0673
  736loPI    C210754  11.749   8.212   4.728  0.0235  0.0429 -0.1113
  736loPI    C310755  11.377   8.357   4.698 -0.0252 -0.0658 -0.0380
  736loPI   PO410756  11.658   8.478   5.245  0.1311 -0.0534  0.0355
  736loPI   GL110757  12.041   8.364   5.428  0.1837  0.5124 -0.0811
  736loPI   GL210758  11.838   8.571   5.675 -0.0597  0.2288  0.0346
  736loPI   C1A10759  12.044   8.147   5.862  0.0755  0.3079  0.2287
  736loPI   C2A10760  11.948   7.970   6.354  0.0400  0.0621 -0.3720
  736loPI   C3A10761  11.913   7.856   6.740  0.0834 -0.1824  0.1699
  736loPI   C4A10762  11.852   8.049   7.100 -0.1314 -0.0193  0.0535
  736loPI   C5A10763  11.915   7.867   7.491 -0.0558  0.1031  0.0696
  736loPI   C6A10764  12.182   7.531   7.701 -0.0594 -0.2826  0.0944
  736loPI   C1B10765  11.771   8.603   6.073 -0.4134 -0.0277  0.3299
  736loPI   C2B10766  11.717   8.374   6.477 -0.1139  0.1437  0.2821
  736loPI   C3B10767  11.563   8.351   6.822  0.2579 -0.2730  0.0593
  736loPI   C4B10768  11.455   8.312   7.252  0.0306 -0.2834  0.0686
  737loPI    C110769   6.912   2.620   5.117  0.0414 -0.0608 -0.1386
  737loPI    C210770   6.957   2.297   4.886 -0.0076 -0.1105 -0.0789
  737loPI    C310771   6.714   2.594   4.771 -0.3670 -0.3251  0.1065
  737loPI   PO410772   7.111   2.535   5.316 -0.1398  0.1311  0.0404
  737loPI   GL110773   7.153   2.552   5.759  0.0045 -0.0102  0.2496
  737loPI   GL210774   7.181   2.903   5.756 -0.0405  0.1827 -0.2853
  737loPI   C1A10775   6.890   2.598   6.115  0.2535 -0.1195 -0.0480
  737loPI   C2A10776   6.843   2.831   6.439  0.2428  0.1389 -0.4190
  737loPI   C3A10777   6.967   2.770   6.816 -0.0700 -0.1992 -0.1792
  737loPI   C4A10778   6.974   2.901   7.227  0.0918 -0.0498 -0.0847
  737loPI   C5A10779   6.959   2.971   7.534 -0.0127  0.3313  0.0921
  737loPI   C6A10780   6.637   2.939   7.827 -0.0403 -0.1200  0.1353
  737loPI   C1B10781   7.295   2.914   6.188  0.2912  0.0245 -0.1580
  737loPI   C2B10782   7.447   2.955   6.729  0.0481 -0.1780  0.0150
  737loPI   C3B10783   7.433   2.988   7.197 -0.1801  0.0783 -0.0375
  737loPI   C4B10784   7.576   3.158   7.579  0.0276  0.1373  0.0014
  738loPI    C110785  15.654  13.220   4.789 -0.1292  0.0343  0.1007
  738loPI    C210786  15.373  13.501   4.835 -0.0602  0.1268 -0.0360
  738loPI    C310787  15.434  13.336   4.476  0.1118  0.1624 -0.0241
  738loPI   PO410788  15.568  13.078   5.072 -0.0199 -0.0923 -0.0509
  738loPI   GL110789  15.336  13.361   5.350  0.1172 -0.0915 -0.1415
  738loPI   GL210790  15.047  13.120   5.439 -0.0603 -0.1104 -0.2261
  738loPI   C1A10791  15.331  13.237   5.818 -0.0336  0.2303  0.1569
  738loPI   C2A10792  15.296  13.228   6.192 -0.1104 -0.3005 -0.2660
  738loPI   C3A10793  15.118  13.438   6.499  0.1297  0.0317  0.2896
  738loPI   C4A10794  14.948  13.584   6.938  0.0322 -0.1473 -0.2964
  738loPI   C5A10795  14.923  13.869   7.227 -0.1124  0.0663  0.0159
  738loPI   C6A10796  14.664  14.078   7.311  0.1387 -0.0011  0.0461
  738loPI   C1B10797  14.851  13.348   5.752  0.1779  0.0927 -0.0063
  738loPI   C2B10798  14.768  13.498   6.089 -0.0378  0.0427 -0.1462
  738loPI   C3B10799  14.332  13.588   6.305  0.1888  0.0679 -0.0815
  738loPI   C4B10800  13.946  13.675   6.582  0.0459 -0.1006  0.2038
  739loPI    C110801   0.675   9.792   5.503  0.0828 -0.0996  0.0353
  739loPI    C210802   0.722   9.826   5.107  0.1496 -0.2710  0.0273
  739loPI    C310803   0.824   9.486   5.292  0.1314 -0.1869  0.1942
  739loPI   PO410804   0.815   9.982   5.560 -0.0710 -0.0694 -0.4481
  739loPI   GL110805   0.648  10.336   5.698  0.0239 -0.0603  0.2753
  739loPI   GL210806   0.362  10.336   5.694  0.1263  0.0722 -0.1821
  739loPI   C1A10807   1.050  10.364   5.972 -0.2748 -0.0267  0.1204
  739loPI   C2A10808   0.955  10.354   6.463  0.2030 -0.0396 -0.2571
  739loPI   C3A10809   0.734  10.181   6.739 -0.1679 -0.2709  0.0070
  739loPI   C4A10810   0.585   9.961   7.018  0.1736 -0.2144 -0.3068
  739loPI   C5A10811   0.432   9.567   7.171 -0.1413  0.0089 -0.1348
  739loPI   C6A10812   0.377   9.431   7.548 -0.2065  0.1302 -0.2367
  739loPI   C1B10813   0.327  10.550   6.078 -0.3106 -0.1824 -0.0176
  739loPI   C2B10814   0.152  10.702   6.433  0.0733 -0.0621  0.0701
  739loPI   C3B10815  -0.079  10.502   6.738 -0.0372 -0.0461  0.3412
  739loPI   C4B10816  -0.332  10.333   6.986  0.1224 -0.2579  0.2675
  740loPI    C110817   3.723  16.055   4.978  0.1364  0.0242  0.2591
  740loPI    C210818   4.114  16.102   4.907  0.0945 -0.2374 -0.1781
  740loPI    C310819   3.850  16.150   4.610 -0.2221  0.0757  0.1446
  740loPI   PO410820   3.717  15.893   5.207 -0.0230  0.0110 -0.0143
  740loPI   GL110821   3.928  16.086   5.469  0.0829  0.0501 -0.0096
  740loPI   GL210822   3.693  16.366   5.434 -0.1556  0.0186  0.1975
  740loPI   C1A10823   3.755  15.877   5.855  0.3221 -0.1583  0.1154
  740loPI   C2A10824   3.775  15.856   6.280  0.0593  0.0806  0.1313
  740loPI   C3A10825   3.636  15.965   6.601 -0.0372  0.4222 -0.1509
  740loPI   C4A10826   3.158  15.894   6.791 -0.1339  0.2013  0.0894
  740loPI   C5A10827   2.830  15.743   6.764 -0.1537 -0.2368  0.1626
  740loPI   C6A10828   2.440  15.838   6.994 -0.3245 -0.2524  0.1494
  740loPI   C1B10829   3.750  16.441   5.862  0.0496  0.1935  0.0832
  740loPI   C2B10830   3.629  16.397   6.273 -0.0084  0.0765  0.0274
  740loPI   C3B10831   3.332  16.419   6.690 -0.1346 -0.1261  0.0883
  740loPI   C4B10832   2.995  16.478   6.976  0.1219 -0.2921  0.0741
  741loPI    C110833  11.388   7.702   5.180  0.1113  0.1241  0.0853
  741loPI    C210834  11.674   7.456   5.044 -0.0854 -0.0359 -0.0444
  741loPI    C310835  11.560   7.771   4.825  0.0908  0.1117  0.0729
  741loPI   PO410836  11.392   7.790   5.405  0.1364  0.2450  0.1074
  741loPI   GL110837  11.599   8.108   5.634 -0.2086  0.0272 -0.1729
  741loPI   GL210838  11.641   7.850   5.992  0.2929  0.0190 -0.0285
  741loPI   C1A10839  11.401   8.275   6.096 -0.2906 -0.0453  0.0858
  741loPI   C2A10840  11.188   8.309   6.496  0.0420 -0.0161 -0.1086
  741loPI   C3A10841  10.728   8.245   6.734 -0.0886 -0.0284 -0.1258
  741loPI   C4A10842  10.657   8.138   7.101 -0.2186 -0.2599  0.3656
  741loPI   C5A10843  10.418   7.957   7.385 -0.3153  0.2398 -0.1115
  741loPI   C6A10844  10.353   7.505   7.514 -0.0605 -0.4039  0.1661
  741loPI   C1B10845  11.479   7.872   6.442 -0.0443  0.4100 -0.3635
  741loPI   C2B10846  11.244   7.899   6.785  0.2808  0.2756 -0.0113
  741loPI   C3B10847  11.099   7.985   7.226 -0.2372 -0.0562 -0.1593
  741loPI   C4B10848  10.870   7.874   7.584 -0.0130  0.1730 -0.0073
  742loPI    C110849   6.644   3.337   5.015 -0.0318  0.1105 -0.1028
  742loPI    C210850   6.998   3.515   5.073 -0.0615  0.0991  0.1232
  742loPI    C310851   6.983   3.138   4.938  0.0122  0.1030  0.1035
  742loPI   PO410852   6.550   3.419   5.269  0.2028  0.1903  0.0401
  742loPI   GL110853   6.666   3.442   5.720  0.1235 -0.0505 -0.1684
  742loPI   GL210854   6.645   3.836   5.554  0.1788 -0.0206  0.2241
  742loPI   C1A10855   6.712   3.673   6.153 -0.0936  0.0200 -0.1821
  742loPI   C2A10856   6.844   3.715   6.463  0.0206 -0.1492  0.1578
  742loPI   C3A10857   6.883   3.834   6.858  0.0266 -0.1809  0.0622
  742loPI   C4A10858   6.876   3.905   7.350  0.1792  0.1316  0.1215
  742loPI   C5A10859   6.703   3.469   7.467 -0.2471  0.2948 -0.0163
  742loPI   C6A10860   6.896   3.383   7.834  0.1314 -0.0508 -0.0487
  742loPI   C1B10861   6.362   4.035   5.866 -0.1435 -0.0535  0.2397
  742loPI   C2B10862   6.352   4.149   6.314 -0.0947  0.1528 -0.1071
  742loPI   C3B10863   6.552   4.315   6.578  0.0004 -0.0253 -0.1023
  742loPI   C4B10864   6.855   4.714   6.559 -0.1359 -0.3032  0.2492
  743loPI    C110865   7.460  12.025   5.061  0.2173  0.0418  0.1376
  743loPI    C210866   7.392  11.631   5.043  0.0677  0.0778 -0.1532
  743loPI    C310867   7.534  11.824   4.723  0.0221  0.2822 -0.0522
  743loPI   PO410868   7.557  12.046   5.294  0.2314  0.2675  0.2774
  743loPI   GL110869   7.609  12.213   5.659 -0.0583  0.1609 -0.0389
  743loPI   GL210870   7.621  12.530   5.503  0.0518  0.0722 -0.0159
  743loPI   C1A10871   7.625  12.176   6.136 -0.2620 -0.0680 -0.1546
  743loPI   C2A10872   7.723  12.350   6.586 -0.1037 -0.3361  0.0353
  743loPI   C3A10873   7.966  12.508   6.998 -0.1366 -0.0782  0.1842
  743loPI   C4A10874   8.249  12.222   7.309  0.2281 -0.0691 -0.1112
  743loPI   C5A10875   8.558  11.968   7.364 -0.0608 -0.0165 -0.0393
  743loPI   C6A10876   8.799  11.833   7.663 -0.2679  0.0655 -0.2844
  743loPI   C1B10877   7.375  12.628   5.991  0.0460 -0.1087  0.3360
  743loPI   C2B10878   7.407  12.796   6.482  0.0012  0.5887 -0.3652
  743loPI   C3B10879   7.583  12.786   6.824  0.1092 -0.5836 -0.1592
  743loPI   C4B10880   7.481  12.882   7.207 -0.1610 -0.2303 -0.0480
  744loPI    C110881   4.031   2.873   4.714 -0.0244 -0.0618  0.1785
  744loPI    C210882   4.166   3.115   4.425 -0.0285 -0.0255  0.2068
  744loPI    C310883   3.775   3.035   4.452  0.0194 -0.3782 -0.0662
  744loPI   PO410884   4.024   3.026   4.986  0.1427 -0.1187 -0.0292
  744loPI   GL110885   4.120   3.002   5.381 -0.1650 -0.1336  0.2195
  744loPI   GL210886   3.934   3.005   5.664  0.1310 -0.3497  0.1276
  744loPI   C1A10887   4.444   3.024   5.786 -0.1144  0.0189 -0.2364
  744loPI   C2A10888   4.705   2.956   6.219 -0.0879 -0.0658  0.0652
  744loPI   C3A10889   4.983   2.878   6.566  0.2233  0.1514  0.1586
  744loPI   C4A10890   5.166   2.842   6.997 -0.2256 -0.2237 -0.1004
  744loPI   C5A10891   5.458   2.950   7.328 -0.3323 -0.0325  0.1187
  744loPI   C6A10892   5.472   3.270   7.720 -0.1207  0.0312 -0.1197
  744loPI   C1B10893   3.688   3.280   5.934 -0.0213  0.1014 -0.0288
  744loPI   C2B10894   3.601   3.489   6.260 -0.1440  0.2812  0.0708
  744loPI   C3B10895   3.286   3.542   6.597  0.2402 -0.0228  0.0843
  744loPI   C4B10896   3.133   3.821   6.976 -0.2737  0.0679  0.1144
  745loPI    C110897   8.293   4.866   5.291  0.0485 -0.0718  0.1807
  745loPI    C210898   8.219   4.557   5.048 -0.0619  0.1012 -0.0094
  745loPI    C310899   8.530   4.798   4.976 -0.1274  0.1853 -0.0109
  745loPI   PO410900   8.075   4.919   5.484 -0.1988  0.1377  0.2820
  745loPI   GL110901   7.962   4.823   5.782 -0.1540  0.2393  0.0994
  745loPI   GL210902   7.784   4.545   5.790  0.1946 -0.1302  0.1561
  745loPI   C1A10903   8.032   4.716   6.212 -0.1898 -0.1149  0.2565
  745loPI   C2A10904   7.789   4.659   6.517  0.2309 -0.2081  0.1276
  745loPI   C3A10905   7.543   4.599   6.814 -0.1021 -0.2052  0.0847
  745loPI   C4A10906   7.272   4.872   6.977  0.0101  0.1833 -0.1945
  745loPI   C5A10907   6.971   5.000   7.141 -0.0103  0.1220 -0.1349
  745loPI   C6A10908   6.576   4.916   7.318  0.2836  0.0815  0.1400
  745loPI   C1B10909   7.535   4.765   6.087  0.0481  0.2070 -0.2784
  745loPI   C2B10910   7.437   5.008   6.454  0.2550 -0.4033 -0.0124
  745loPI   C3B10911   7.457   5.318   6.741  0.1637 -0.0809  0.1469
  745loPI   C4B10912   7.237   5.392   7.070  0.1816  0.0982  0.2009
  746loPI    C110913  14.677  12.656   4.866  0.1070  0.0502  0.1442
  746loPI    C210914  15.047  12.525   4.788  0.1507  0.1571  0.1690
  746loPI    C310915  14.820  12.671   4.493  0.0230 -0.1673  0.1022
  746loPI   PO410916  14.743  12.774   5.153 -0.1165 -0.0006 -0.0199
  746loPI   GL110917  14.854  12.620   5.518  0.2169  0.0521 -0.1149
  746loPI   GL210918  14.729  12.348   5.697  0.1147 -0.0870 -0.0159
  746loPI   C1A10919  14.945  12.874   5.880 -0.0509 -0.0038 -0.3358
  746loPI   C2A10920  14.851  12.941   6.267 -0.1152 -0.0784  0.0224
  746loPI   C3A10921  14.962  12.938   6.604 -0.0673 -0.0745 -0.3003
  746loPI   C4A10922  15.048  12.644   6.867 -0.2147  0.3921  0.3198
  746loPI   C5A10923  15.093  12.299   7.122 -0.1156 -0.0482  0.1717
  746loPI   C6A10924  15.603  12.137   7.298 -0.3155 -0.0934  0.0147
  746loPI   C1B10925  14.825  12.427   6.066  0.2890 -0.0417  0.1572
  746loPI   C2B10926  15.013  12.133   6.438 -0.0835 -0.2815  0.1851
  746loPI   C3B10927  14.960  11.916   6.873  0.2411  0.5072 -0.2423
  746loPI   C4B10928  15.130  11.705   7.252 -0.2276 -0.0332  0.1244
  747loPI    C110929  17.706  15.571   4.351  0.0188  0.0998  0.0231
  747loPI    C210930  17.462  15.321   4.156  0.0610 -0.0292  0.1346
  747loPI    C310931  17.843  15.219   4.221  0.0917  0.0858  0.1374
  747loPI   PO410932  17.582  15.724   4.553 -0.1465  0.1826 -0.1066
  747loPI   GL110933  17.747  15.656   4.971 -0.1811 -0.3369 -0.1861
  747loPI   GL210934  17.909  15.384   5.089  0.2955  0.3535  0.2821
  747loPI   C1A10935  17.539  15.878   5.338  0.2247 -0.1759  0.0681
  747loPI   C2A10936  17.292  15.972   5.648 -0.2662  0.1871  0.1471
  747loPI   C3A10937  17.209  16.004   6.027 -0.1373  0.1676  0.1163
  747loPI   C4A10938  17.122  16.030   6.491 -0.2977 -0.0583 -0.0683
  747loPI   C5A10939  16.941  15.822   6.808 -0.0876  0.0912 -0.1379
  747loPI   C6A10940  16.600  15.773   7.044 -0.1365 -0.0252  0.0421
  747loPI   C1B10941  17.579  15.416   5.455 -0.0415 -0.2832  0.1176
  747loPI   C2B10942  17.557  15.577   5.823 -0.0872 -0.1649 -0.0680
  747loPI   C3B10943  17.531  15.578   6.187  0.2661 -0.5912  0.2256
  747loPI   C4B10944  17.510  15.744   6.682 -0.1230 -0.0221  0.0827
  748loPI    C110945   2.133   5.341   5.327 -0.1014 -0.1529  0.0138
  748loPI    C210946   1.891   5.225   5.030 -0.0647  0.1900 -0.1547
  748loPI    C310947   2.283   5.146   5.012 -0.1466 -0.3067  0.0867
  748loPI   PO410948   1.963   5.287   5.507 -0.2212  0.3498 -0.0459
  748loPI   GL110949   2.127   5.212   5.848  0.0105  0.1843  0.4495
  748loPI   GL210950   1.828   5.571   5.946 -0.1244  0.3609  0.1286
  748loPI   C1A10951   2.511   5.219   6.013  0.3458  0.2829 -0.0077
  748loPI   C2A10952   2.609   5.304   6.325  0.0841 -0.2269 -0.3373
  748loPI   C3A10953   2.437   5.485   6.746  0.1010  0.2540  0.0186
  748loPI   C4A10954   2.390   5.870   7.106  0.4286 -0.1466  0.0610
  748loPI   C5A10955   2.628   6.114   7.422 -0.2089 -0.1519  0.3050
  748loPI   C6A10956   2.658   6.481   7.726 -0.2871 -0.4087  0.2474
  748loPI   C1B10957   2.109   5.465   6.316 -0.0463  0.3149  0.3061
  748loPI   C2B10958   1.960   5.627   6.715 -0.1017 -0.0811 -0.0378
  748loPI   C3B10959   1.910   5.945   7.148  0.1643 -0.1097  0.4310
  748loPI   C4B10960   1.632   5.957   7.515  0.0815 -0.1605  0.0893
  749loPI    C110961   9.738   9.362   4.794  0.1230 -0.3081 -0.0391
  749loPI    C210962   9.897   9.567   4.490 -0.0644 -0.1929 -0.0613
  749loPI    C310963  10.012   9.190   4.559  0.0371 -0.1932 -0.2255
  749loPI   PO410964   9.764   9.574   5.020  0.1385  0.1321 -0.0556
  749loPI   GL110965   9.653   9.744   5.495  0.1113 -0.1147 -0.1719
  749loPI   GL210966   9.817  10.070   5.412 -0.4057  0.0903  0.0880
  749loPI   C1A10967   9.652   9.442   5.863  0.1870  0.3088  0.3220
  749loPI   C2A10968   9.706   9.317   6.345 -0.0414  0.0314  0.2430
  749loPI   C3A10969   9.541   9.491   6.751 -0.1609  0.1418  0.1356
  749loPI   C4A10970   9.370   9.230   6.996  0.0879 -0.0053  0.0156
  749loPI   C5A10971   9.040   9.225   7.377 -0.2870  0.0389 -0.0366
  749loPI   C6A10972   8.552   9.209   7.560  0.0424 -0.1108  0.2751
  749loPI   C1B10973   9.591  10.230   5.812 -0.0060 -0.0710 -0.2616
  749loPI   C2B10974   9.773  10.401   6.180  0.2028  0.1155 -0.2217
  749loPI   C3B10975   9.794  10.508   6.618 -0.1521  0.3047 -0.1047
  749loPI   C4B10976   9.644  10.592   7.051  0.2021  0.3012  0.1489
  750loPI    C110977  18.395  13.412   4.957 -0.1545  0.0513 -0.2555
  750loPI    C210978  18.574  13.103   4.778  0.2408  0.1293 -0.0073
  750loPI    C310979  18.523  13.447   4.580  0.0740  0.0049 -0.1839
  750loPI   PO410980  18.449  13.442   5.185  0.1138 -0.2270  0.3955
  750loPI   GL110981  18.081  13.573   5.408  0.2652 -0.3989  0.0805
  750loPI   GL210982  18.306  13.580   5.634 -0.2614  0.2849 -0.0623
  750loPI   C1A10983  17.933  13.792   5.855  0.2776 -0.1909 -0.0471
  750loPI   C2A10984  17.754  13.775   6.253 -0.0970  0.0942 -0.0366
  750loPI   C3A10985  17.809  13.916   6.601 -0.0466 -0.1072 -0.0344
  750loPI   C4A10986  18.019  13.893   7.131 -0.0919 -0.1206 -0.1598
  750loPI   C5A10987  18.176  14.297   7.380  0.0198 -0.2354 -0.0998
  750loPI   C6A10988  18.617  14.255   7.328 -0.0043  0.1073 -0.1354
  750loPI   C1B10989  18.340  13.618   6.086 -0.1853  0.1879  0.0343
  750loPI   C2B10990  18.361  13.871   6.437 -0.0240  0.0125  0.2230
  750loPI   C3B10991  18.192  14.233   6.695  0.0372  0.0728  0.0158
  750loPI   C4B10992  17.942  14.395   6.990  0.1808 -0.0497  0.3079
  751loPI    C110993   7.461   2.414   4.832  0.1699 -0.1374 -0.1248
  751loPI    C210994   7.233   2.740   4.795  0.5177  0.1183 -0.0725
  751loPI    C310995   7.465   2.624   4.491  0.1376 -0.2877 -0.2186
  751loPI   PO410996   7.602   2.485   5.110 -0.0908  0.1285 -0.0391
  751loPI   GL110997   7.629   2.628   5.553 -0.1087  0.1089 -0.1208
  751loPI   GL210998   7.691   2.324   5.704 -0.1045 -0.0027 -0.0118
  751loPI   C1A10999   7.699   2.795   5.896 -0.0633  0.2497 -0.0258
  751loPI   C2A11000   7.752   2.791   6.343 -0.2505 -0.1846 -0.0523
  751loPI   C3A11001   7.959   3.019   6.801  0.1886 -0.0702  0.1734
  751loPI   C4A11002   7.925   2.979   7.314  0.1505  0.3835 -0.2768
  751loPI   C5A11003   8.063   3.252   7.556  0.0390 -0.0612 -0.1901
  751loPI   C6A11004   7.906   2.998   7.969 -0.0788  0.0876 -0.2357
  751loPI   C1B11005   7.484   2.328   6.102 -0.3854 -0.1157 -0.1352
  751loPI   C2B11006   7.372   2.528   6.531 -0.2075  0.2342 -0.0672
  751loPI   C3B11007   7.335   2.537   6.946  0.2082  0.3918 -0.1348
  751loPI   C4B11008   7.314   2.557   7.428 -0.1658  0.2390 -0.2885
  752loPI    C111009   2.027   8.422   4.675  0.1639  0.3458  0.1223
  752loPI    C211010   1.755   8.695   4.568  0.2087  0.2752 -0.1818
  752loPI    C311011   2.122   8.706   4.409  0.2250  0.0658 -0.1615
  752loPI   PO411012   1.956   8.407   4.963  0.1244  0.3594 -0.2036
  752loPI   GL111013   2.241   8.378   5.359  0.1653  0.1227 -0.1032
  752loPI   GL211014   2.218   8.694   5.363 -0.5314 -0.0249 -0.1029
  752loPI   C1A11015   1.934   8.268   5.701 -0.1209  0.0666 -0.0733
  752loPI   C2A11016   1.856   8.186   6.111  0.1569  0.2860  0.1364
  752loPI   C3A11017   1.946   8.011   6.572  0.1837 -0.0077  0.2676
  752loPI   C4A11018   2.120   8.031   7.042  0.0220 -0.0708 -0.1332
  752loPI   C5A11019   2.315   7.746   7.422 -0.1070  0.0090  0.0931
  752loPI   C6A11020   2.564   7.478   7.608 -0.1928 -0.0912 -0.1795
  752loPI   C1B11021   2.056   8.854   5.785 -0.0374  0.1986  0.0455
  752loPI   C2B11022   2.264   9.165   6.087  0.1877 -0.3492 -0.1590
  752loPI   C3B11023   2.385   9.530   6.345  0.2927 -0.0830 -0.1821
  752loPI   C4B11024   2.334   9.628   6.804  0.1340 -0.1577 -0.1478
  753loPI    C111025  12.390  12.744   4.911  0.0628  0.0493  0.2640
  753loPI    C211026  12.021  12.596   4.953 -0.0057  0.0550 -0.2554
  753loPI    C311027  12.325  12.353   4.859  0.1073  0.0669  0.0680
  753loPI   PO411028  12.423  12.857   5.205 -0.2264 -0.2292 -0.0473
  753loPI   GL111029  12.677  12.804   5.632 -0.1066 -0.0800 -0.1724
  753loPI   GL211030  12.434  13.070   5.615  0.1393 -0.0170 -0.4615
  753loPI   C1A11031  12.432  12.502   5.699 -0.0518  0.3865 -0.0806
  753loPI   C2A11032  12.049  12.273   5.868 -0.0576 -0.1183  0.1914
  753loPI   C3A11033  11.795  12.150   6.163 -0.0888 -0.0487  0.0799
  753loPI   C4A11034  11.736  12.086   6.610 -0.3126 -0.1867  0.0157
  753loPI   C5A11035  11.807  12.232   6.873 -0.0727 -0.1317 -0.0868
  753loPI   C6A11036  12.051  12.191   7.204 -0.1606 -0.1063 -0.2801
  753loPI   C1B11037  12.353  13.064   6.071 -0.1195  0.1213 -0.2198
  753loPI   C2B11038  12.312  13.087   6.578  0.0355 -0.0183 -0.0796
  753loPI   C3B11039  12.385  13.130   7.085  0.2106 -0.1472  0.0433
  753loPI   C4B11040  12.301  12.976   7.546 -0.3279 -0.1902 -0.4392
  754loPI    C111041  12.920  18.934   5.080  0.3265  0.1151  0.0063
  754loPI    C211042  12.890  19.047   4.697 -0.4951 -0.2108 -0.0470
  754loPI    C311043  12.741  19.280   4.986  0.0860  0.0145  0.0851
  754loPI   PO411044  12.801  18.674   5.027 -0.2240 -0.1175 -0.0576
  754loPI   GL111045  12.646  18.491   5.369  0.0616  0.2979  0.0439
  754loPI   GL211046  12.925  18.450   5.432 -0.1985 -0.2618  0.3932
  754loPI   C1A11047  12.723  18.648   5.841 -0.2459  0.1831 -0.0675
  754loPI   C2A11048  12.705  18.688   6.362  0.3615  0.0079  0.2178
  754loPI   C3A11049  12.590  18.560   6.774  0.0245 -0.0103  0.2332
  754loPI   C4A11050  12.273  18.459   7.014 -0.4101  0.0231 -0.2349
  754loPI   C5A11051  12.256  18.111   7.231  0.1438 -0.2319  0.0010
  754loPI   C6A11052  12.287  17.649   7.128  0.0423  0.2113 -0.0298
  754loPI   C1B11053  12.786  18.144   5.736  0.0239 -0.0927 -0.3337
  754loPI   C2B11054  12.844  18.285   6.119  0.0202 -0.0749  0.1256
  754loPI   C3B11055  12.742  18.115   6.450  0.2342 -0.1988  0.1065
  754loPI   C4B11056  12.555  17.998   6.804 -0.3489 -0.0834 -0.1047
  755loPI    C111057   4.662  15.659   4.584  0.0488 -0.0377 -0.0033
  755loPI    C211058   4.693  15.625   4.187 -0.0491 -0.0851 -0.0070
  755loPI    C311059   4.796  15.967   4.367 -0.0360 -0.0522 -0.0766
  755loPI   PO411060   4.432  15.746   4.721  0.0859  0.0022  0.1701
  755loPI   GL111061   4.387  15.672   5.147  0.2016 -0.1028  0.1454
  755loPI   GL211062   4.529  15.513   5.389  0.0668  0.1347 -0.0225
  755loPI   C1A11063   4.353  15.876   5.652  0.3352 -0.0382 -0.3052
  755loPI   C2A11064   4.240  15.789   6.134  0.4354 -0.1758  0.1866
  755loPI   C3A11065   4.160  15.710   6.527  0.1994 -0.0549  0.2453
  755loPI   C4A11066   4.023  15.738   6.834  0.0365 -0.0616  0.0124
  755loPI   C5A11067   3.918  15.236   7.047 -0.1051 -0.2400 -0.1213
  755loPI   C6A11068   3.655  14.972   7.105  0.0934 -0.0998  0.0156
  755loPI   C1B11069   4.344  15.394   5.809  0.0645  0.0459 -0.1150
  755loPI   C2B11070   4.286  15.232   6.190  0.1018 -0.1190  0.0932
  755loPI   C3B11071   4.308  15.262   6.714 -0.0931 -0.2231  0.4326
  755loPI   C4B11072   4.439  15.164   7.150  0.5081 -0.3486 -0.1646
  756loPI    C111073  10.686  18.840   5.004  0.1510  0.0701 -0.0093
  756loPI    C211074  10.704  18.569   4.711 -0.1328  0.0864 -0.0441
  756loPI    C311075  10.569  18.938   4.635 -0.1941  0.0949  0.1037
  756loPI   PO411076  10.563  18.820   5.212  0.0656  0.0943  0.0235
  756loPI   GL111077  10.430  18.626   5.608  0.1602  0.1135 -0.1782
  756loPI   GL211078  10.513  18.377   5.609 -0.1632  0.0614  0.3897
  756loPI   C1A11079  10.264  18.833   5.945  0.2804 -0.0472  0.3415
  756loPI   C2A11080  10.236  18.984   6.429 -0.1343 -0.2063 -0.2706
  756loPI   C3A11081  10.242  18.692   6.731  0.1739  0.1066  0.0646
  756loPI   C4A11082  10.316  18.571   7.134  0.0386 -0.0734 -0.1591
  756loPI   C5A11083  10.595  18.721   7.505  0.2646 -0.0041 -0.0680
  756loPI   C6A11084  10.762  19.124   7.750  0.1445 -0.3812 -0.0666
  756loPI   C1B11085  10.452  18.346   6.006  0.2189  0.0636 -0.2692
  756loPI   C2B11086  10.345  18.210   6.433  0.1832 -0.2510  0.0265
  756loPI   C3B11087  10.533  18.098   6.825  0.1883 -0.4748  0.0655
  756loPI   C4B11088  10.720  18.308   7.226 -0.2012  0.1284  0.0124
  757loPI    C111089   9.101   2.759   5.310  0.1002 -0.1620  0.1631
  757loPI    C211090   8.800   2.617   5.088 -0.0278 -0.0139  0.2399
  757loPI    C311091   9.114   2.791   4.912 -0.2176  0.2757  0.1809
  757loPI   PO411092   9.164   2.556   5.475  0.3310  0.0377  0.0358
  757loPI   GL111093   9.511   2.585   5.748 -0.2224 -0.2612 -0.0740
  757loPI   GL211094   9.613   2.838   5.894  0.0680  0.2109  0.1505
  757loPI   C1A11095   9.415   2.253   6.044 -0.0476  0.1930  0.1061
  757loPI   C2A11096   9.384   1.985   6.416  0.2138  0.0532 -0.3420
  757loPI   C3A11097   9.308   1.820   6.706 -0.0054  0.0622  0.2586
  757loPI   C4A11098   9.150   1.814   7.141 -0.1940  0.0070  0.1113
  757loPI   C5A11099   8.930   1.460   7.344 -0.0842  0.0106 -0.0224
  757loPI   C6A11100   8.601   1.251   7.233  0.2159  0.0041 -0.1226
  757loPI   C1B11101   9.771   2.986   6.394 -0.1801  0.1130 -0.0051
  757loPI   C2B11102   9.667   3.054   6.825  0.0741 -0.1256 -0.1616
  757loPI   C3B11103   9.661   2.880   7.175  0.1590 -0.0009 -0.0311
  757loPI   C4B11104   9.449   2.646   7.476  0.3221  0.3782 -0.3243
  758loPI    C111105  15.240  15.008   4.731  0.2308 -0.0691 -0.0561
  758loPI    C211106  15.011  15.329   4.662 -0.0785 -0.2388  0.1577
  758loPI    C311107  15.229  15.172   4.366 -0.0921  0.0376 -0.0022
  758loPI   PO411108  15.353  15.089   5.004  0.0542  0.3418 -0.1497
  758loPI   GL111109  15.075  15.146   5.494 -0.0091  0.1488 -0.3531
  758loPI   GL211110  15.245  15.292   5.443 -0.2235  0.0643  0.0010
  758loPI   C1A11111  15.359  15.169   5.900  0.1968  0.0752  0.0978
  758loPI   C2A11112  15.613  15.230   6.291 -0.1715  0.1830 -0.0410
  758loPI   C3A11113  15.693  15.583   6.652  0.3051 -0.1835 -0.0738
  758loPI   C4A11114  15.733  16.097   6.658 -0.0511 -0.3253  0.1533
  758loPI   C5A11115  15.843  16.380   6.767  0.3866  0.2713  0.1361
  758loPI   C6A11116  15.811  16.783   6.887  0.0174 -0.0447  0.2293
  758loPI   C1B11117  15.388  15.626   5.523 -0.0319  0.0147  0.0560
  758loPI   C2B11118  15.206  15.988   5.626  0.1170  0.2608  0.2683
  758loPI   C3B11119  15.039  16.270   6.020  0.1580  0.0726 -0.1030
  758loPI   C4B11120  14.772  16.157   6.378  0.2248 -0.0805  0.0413
  759loPI    C111121   5.246   9.781   5.274  0.0834 -0.2174 -0.1491
  759loPI    C211122   4.919   9.615   5.116 -0.0281 -0.1095 -0.0343
  759loPI    C311123   5.225   9.716   4.880 -0.0689 -0.2287 -0.1398
  759loPI   PO411124   5.255   9.537   5.593 -0.0929  0.2123  0.1654
  759loPI   GL111125   5.109   9.353   5.771 -0.3611 -0.0723 -0.0505
  759loPI   GL211126   4.961   9.086   5.672  0.0686  0.2856 -0.0943
  759loPI   C1A11127   5.050   9.480   6.216 -0.1749  0.0638 -0.0662
  759loPI   C2A11128   5.260   9.536   6.576  0.1563 -0.2292  0.0981
  759loPI   C3A11129   5.456   9.756   6.836  0.1296 -0.1519 -0.0643
  759loPI   C4A11130   5.576  10.171   7.051 -0.0817  0.0588  0.0908
  759loPI   C5A11131   5.553  10.484   7.436  0.1247  0.2137  0.0215
  759loPI   C6A11132   5.600  10.499   7.905 -0.1309 -0.1420  0.0678
  759loPI   C1B11133   5.110   8.962   6.082  0.1229  0.3676 -0.0697
  759loPI   C2B11134   5.095   8.977   6.527 -0.3548 -0.4918 -0.0255
  759loPI   C3B11135   4.828   8.997   6.921 -0.0520  0.1740 -0.1921
  759loPI   C4B11136   4.791   9.131   7.386  0.2026 -0.3080  0.2191
  760loPI    C111137  15.446  16.844   4.712 -0.1597  0.0174  0.0412
  760loPI    C211138  15.678  16.641   4.457 -0.0084  0.1041  0.1087
  760loPI    C311139  15.453  16.944   4.325 -0.2093 -0.0838  0.0138
  760loPI   PO411140  15.653  16.845   4.960 -0.2362  0.1420 -0.2141
  760loPI   GL111141  15.692  16.799   5.374 -0.0939 -0.1121  0.0197
  760loPI   GL211142  15.619  17.060   5.421 -0.1125  0.4445  0.1227
  760loPI   C1A11143  16.067  16.951   5.645  0.1178  0.3067  0.1564
  760loPI   C2A11144  16.390  17.033   5.995 -0.0735  0.1951  0.0462
  760loPI   C3A11145  16.198  17.023   6.574 -0.1368 -0.1066 -0.3885
  760loPI   C4A11146  16.097  17.270   6.967 -0.0300 -0.0582  0.2723
  760loPI   C5A11147  15.700  17.335   7.062 -0.0332  0.1334  0.1493
  760loPI   C6A11148  15.404  17.775   7.137  0.1071  0.0200  0.0795
  760loPI   C1B11149  15.792  17.377   5.668  0.2033 -0.1764 -0.1981
  760loPI   C2B11150  15.995  17.755   5.794 -0.3629 -0.4087 -0.2596
  760loPI   C3B11151  15.934  18.194   5.809  0.0672  0.0279  0.1171
  760loPI   C4B11152  15.885  18.636   5.846 -0.1742  0.4146 -0.0060
  761loPI    C111153   5.462   3.217   4.870  0.1188 -0.1138 -0.1853
  761loPI    C211154   5.357   2.853   4.996 -0.0074  0.0180  0.0997
  761loPI    C311155   5.077   3.129   4.928  0.0860  0.0565 -0.1400
  761loPI   PO411156   5.620   3.414   5.050  0.1403  0.0728 -0.0192
  761loPI   GL111157   5.692   3.618   5.453  0.1256  0.0343 -0.2461
  761loPI   GL211158   5.947   3.409   5.492  0.0863 -0.1672 -0.1207
  761loPI   C1A11159   5.620   3.339   5.850  0.2379 -0.2104  0.0045
  761loPI   C2A11160   5.681   3.249   6.249 -0.0322 -0.0472 -0.1577
  761loPI   C3A11161   6.044   3.141   6.526 -0.3240  0.1195 -0.1612
  761loPI   C4A11162   6.102   2.858   6.803  0.0219 -0.0803  0.1403
  761loPI   C5A11163   5.984   2.907   7.152 -0.0501  0.0138 -0.1748
  761loPI   C6A11164   5.964   3.141   7.483  0.0558  0.0934  0.0075
  761loPI   C1B11165   6.169   3.570   5.879 -0.3156 -0.2294 -0.0050
  761loPI   C2B11166   6.054   3.649   6.272  0.2862  0.0694 -0.0437
  761loPI   C3B11167   5.876   3.546   6.748 -0.3935 -0.1369 -0.1164
  761loPI   C4B11168   6.135   3.374   7.064 -0.1132 -0.0007  0.0406
  762loPI    C111169  10.016  17.381   4.953  0.2746 -0.1020 -0.0084
  762loPI    C211170   9.960  17.641   4.654 -0.2149  0.2198  0.3473
  762loPI    C311171   9.799  17.275   4.634  0.5180 -0.0997 -0.1774
  762loPI   PO411172  10.052  17.505   5.152 -0.1820  0.1230  0.1206
  762loPI   GL111173  10.174  17.332   5.532 -0.0475 -0.3344 -0.0532
  762loPI   GL211174  10.439  17.569   5.528  0.3934 -0.1091  0.2494
  762loPI   C1A11175  10.334  17.164   5.969 -0.0137  0.0881  0.1720
  762loPI   C2A11176  10.458  17.185   6.398 -0.0238  0.0686 -0.0534
  762loPI   C3A11177  10.490  17.175   6.852  0.0247 -0.4000  0.0654
  762loPI   C4A11178  10.495  17.632   7.072 -0.0957 -0.2007  0.0107
  762loPI   C5A11179  10.939  17.823   7.225 -0.1233  0.1923 -0.1501
  762loPI   C6A11180  11.250  18.004   7.175  0.0560  0.0797 -0.3266
  762loPI   C1B11181  10.772  17.273   5.686  0.0141 -0.1426 -0.0268
  762loPI   C2B11182  10.874  17.229   6.097 -0.0119 -0.1509  0.3509
  762loPI   C3B11183  10.951  17.307   6.537 -0.0556  0.0410 -0.0229
  762loPI   C4B11184  10.967  17.422   6.955  0.0861  0.0086  0.0061
  763loPI    C111185   5.540   3.939   4.980 -0.0208 -0.4067  0.3929
  763loPI    C211186   5.803   3.971   4.680  0.0972  0.1419  0.5439
  763loPI    C311187   5.482   3.735   4.641 -0.0582  0.4437 -0.1407
  763loPI   PO411188   5.704   4.123   5.234  0.1112 -0.1343 -0.2027
  763loPI   GL111189   5.785   4.135   5.549 -0.2749 -0.5985  0.2722
  763loPI   GL211190   6.012   4.309   5.667  0.1299 -0.2571 -0.0893
  763loPI   C1A11191   5.839   3.889   5.904  0.0187  0.1786  0.3093
  763loPI   C2A11192   5.768   4.040   6.367 -0.1693  0.3345  0.2296
  763loPI   C3A11193   5.752   4.094   6.765  0.3387 -0.0066 -0.0606
  763loPI   C4A11194   5.873   3.919   7.060  0.0854 -0.1260  0.2442
  763loPI   C5A11195   6.001   3.715   7.464  0.0051 -0.1328  0.1773
  763loPI   C6A11196   5.911   3.503   7.872 -0.0849 -0.4606  0.0636
  763loPI   C1B11197   5.897   4.448   6.124 -0.1219 -0.1815  0.0520
  763loPI   C2B11198   6.028   4.485   6.557 -0.1351 -0.1389  0.1499
  763loPI   C3B11199   6.169   4.308   6.940 -0.2781 -0.0513  0.2670
  763loPI   C4B11200   6.420   3.923   7.177  0.0276 -0.4346  0.2280
  764loPI    C111201  10.813  17.368   4.803 -0.0189  0.1245 -0.1286
  764loPI    C211202  10.832  17.173   4.454  0.1509  0.2991 -0.2184
  764loPI    C311203  10.476  17.258   4.616  0.0746 -0.1298 -0.1512
  764loPI   PO411204  11.003  17.240   4.937  0.0509  0.4697 -0.0527
  764loPI   GL111205  10.951  17.041   5.287 -0.0604  0.0808  0.0360
  764loPI   GL211206  10.740  16.815   5.446  0.0699  0.1494 -0.0260
  764loPI   C1A11207  11.164  16.874   5.667 -0.2443  0.1241 -0.1245
  764loPI   C2A11208  11.271  16.953   6.109 -0.0714  0.1338 -0.2414
  764loPI   C3A11209  11.395  16.794   6.477  0.1745 -0.1495 -0.3779
  764loPI   C4A11210  11.286  16.921   6.952 -0.2375 -0.0354 -0.1808
  764loPI   C5A11211  11.088  17.084   7.352 -0.1467 -0.4229 -0.3592
  764loPI   C6A11212  11.267  17.175   7.732 -0.1971  0.3874  0.2309
  764loPI   C1B11213  10.675  16.785   5.918 -0.4345 -0.0517  0.6241
  764loPI   C2B11214  10.798  16.866   6.417 -0.2179  0.1264  0.0433
  764loPI   C3B11215  10.669  16.702   6.778  0.1322  0.1235 -0.0879
  764loPI   C4B11216  10.736  16.762   7.181  0.0911  0.1761  0.0292
  765loPI    C111217   3.936  12.698   4.881  0.0535  0.1213  0.0053
  765loPI    C211218   3.922  13.097   4.864 -0.1460  0.1035 -0.3847
  765loPI    C311219   3.665  12.897   5.098  0.0729  0.2064 -0.0483
  765loPI   PO411220   4.144  12.616   4.973 -0.2125 -0.0039 -0.1333
  765loPI   GL111221   4.074  12.373   5.379 -0.1405 -0.1876 -0.2086
  765loPI   GL211222   4.262  12.318   5.359  0.0540 -0.3438 -0.1226
  765loPI   C1A11223   3.911  12.263   5.819 -0.0486 -0.1645  0.1040
  765loPI   C2A11224   3.541  12.284   6.119 -0.1285  0.2523  0.0869
  765loPI   C3A11225   3.466  12.401   6.554 -0.2133  0.1942 -0.3028
  765loPI   C4A11226   3.516  12.495   6.955 -0.0841  0.2953  0.1385
  765loPI   C5A11227   3.523  12.146   7.302  0.1334  0.1475 -0.1086
  765loPI   C6A11228   3.562  11.579   7.449  0.1416  0.0164  0.0082
  765loPI   C1B11229   4.380  12.053   5.715  0.3228  0.0173  0.1095
  765loPI   C2B11230   4.459  12.114   6.164 -0.1925  0.3792 -0.0790
  765loPI   C3B11231   4.380  11.898   6.470 -0.1183 -0.3075  0.1187
  765loPI   C4B11232   4.035  11.652   6.544 -0.2323  0.4745  0.2882
  766loPI    C111233  16.119  16.897   4.594 -0.2872 -0.2164  0.0140
  766loPI    C211234  16.239  17.276   4.554 -0.0116 -0.3033 -0.0093
  766loPI    C311235  15.851  17.193   4.604 -0.0502 -0.0028  0.2239
  766loPI   PO411236  16.299  16.827   4.839  0.0280 -0.1105  0.1026
  766loPI   GL111237  16.150  16.691   5.238 -0.4224  0.0810  0.1256
  766loPI   GL211238  15.994  16.378   5.188  0.1332  0.0084 -0.0280
  766loPI   C1A11239  16.387  16.503   5.526 -0.4112 -0.0433 -0.1098
  766loPI   C2A11240  16.473  16.517   5.869  0.3029  0.0065 -0.0874
  766loPI   C3A11241  16.426  16.598   6.283 -0.1299  0.2129 -0.0576
  766loPI   C4A11242  16.337  16.550   6.754  0.0779  0.2210  0.1419
  766loPI   C5A11243  16.157  16.455   7.168  0.0066 -0.0487  0.1839
  766loPI   C6A11244  15.761  16.500   7.331  0.0224  0.0605  0.0468
  766loPI   C1B11245  15.940  16.444   5.636 -0.0896 -0.2200 -0.0076
  766loPI   C2B11246  15.994  16.562   6.073  0.0199 -0.0343  0.2702
  766loPI   C3B11247  15.791  16.632   6.378 -0.0655  0.0973 -0.0244
  766loPI   C4B11248  15.406  16.847   6.313 -0.3352 -0.0391 -0.1482
  767loPI    C111249  12.866   6.850   5.041 -0.0069  0.1439  0.2107
  767loPI    C211250  12.711   7.209   4.958 -0.0198  0.0927  0.0093
  767loPI    C311251  12.965   7.037   4.701  0.0548 -0.0035  0.1469
  767loPI   PO411252  12.876   6.865   5.328 -0.2911 -0.0149  0.2004
  767loPI   GL111253  12.758   6.883   5.753  0.1884 -0.2066 -0.0020
  767loPI   GL211254  12.535   6.589   5.757 -0.0811 -0.0075 -0.1474
  767loPI   C1A11255  12.846   7.111   6.169 -0.1136 -0.0320 -0.2203
  767loPI   C2A11256  12.601   7.131   6.481  0.1122 -0.2136  0.1766
  767loPI   C3A11257  12.779   7.281   6.797  0.1849  0.0585  0.2313
  767loPI   C4A11258  12.812   7.525   7.222 -0.2863 -0.0410 -0.4918
  767loPI   C5A11259  12.795   7.725   7.564 -0.3448 -0.3315 -0.3335
  767loPI   C6A11260  13.067   7.967   7.794 -0.1724 -0.2466 -0.0713
  767loPI   C1B11261  12.386   6.453   6.044  0.0075  0.1999 -0.4329
  767loPI   C2B11262  12.266   6.338   6.386  0.1225  0.4681  0.0925
  767loPI   C3B11263  12.407   6.312   6.845  0.1775 -0.1909 -0.0386
  767loPI   C4B11264  12.739   6.180   7.218  0.1946  0.0349 -0.1863
  768loPI    C111265  18.536  18.268   4.929 -0.0256  0.0469 -0.1848
  768loPI    C211266  18.500  17.875   4.993 -0.0260  0.0732 -0.0201
  768loPI    C311267  18.474  18.020   4.621 -0.0271 -0.0821 -0.0814
  768loPI   PO411268  18.802  18.356   5.085  0.1361  0.0086  0.2237
  768loPI   GL111269  18.749  18.454   5.506  0.1016 -0.0636 -0.0066
  768loPI   GL211270  18.662  18.691   5.489  0.2404  0.0382  0.0176
  768loPI   C1A11271  18.595  18.436   5.942 -0.1789 -0.1695  0.2338
  768loPI   C2A11272  18.204  18.536   6.165 -0.3286 -0.4137 -0.2249
  768loPI   C3A11273  18.068  18.676   6.554  0.0191  0.3198 -0.0243
  768loPI   C4A11274  18.088  18.930   6.918  0.2375  0.0788  0.3286
  768loPI   C5A11275  18.046  19.162   7.321 -0.0013 -0.1435 -0.1600
  768loPI   C6A11276  18.218  19.499   7.594 -0.2385 -0.0804  0.1937
  768loPI   C1B11277  18.247  18.701   5.666 -0.4933 -0.0380 -0.0918
  768loPI   C2B11278  17.912  18.958   5.831 -0.0628 -0.0066  0.1328
  768loPI   C3B11279  17.695  19.009   6.161 -0.0914  0.1898  0.0724
  768loPI   C4B11280  17.248  18.897   6.189 -0.0544  0.1191 -0.1340
  769loPI    C111281  15.777  10.924   5.229  0.0633 -0.1348 -0.0190
  769loPI    C211282  15.623  10.813   4.877  0.0912 -0.1818 -0.0165
  769loPI    C311283  16.013  10.897   4.907  0.0773 -0.1190 -0.0100
  769loPI   PO411284  15.501  11.002   5.411 -0.0968 -0.0400  0.1705
  769loPI   GL111285  15.269  10.833   5.735 -0.3138 -0.2589  0.0930
  769loPI   GL211286  14.871  10.834   5.872  0.0678  0.3010 -0.1518
  769loPI   C1A11287  15.490  10.686   6.060  0.0529  0.1377 -0.4510
  769loPI   C2A11288  15.480  10.628   6.514  0.2297  0.1222 -0.0175
  769loPI   C3A11289  15.553  10.414   6.824 -0.0762  0.2464 -0.0931
  769loPI   C4A11290  15.553  10.242   7.241 -0.0029 -0.0897 -0.2212
  769loPI   C5A11291  15.509  10.102   7.691 -0.1501 -0.0957 -0.0836
  769loPI   C6A11292  15.697  10.225   8.047 -0.2449  0.0637 -0.2098
  769loPI   C1B11293  15.049  10.658   6.286 -0.3720  0.0306  0.1174
  769loPI   C2B11294  15.051  10.786   6.687 -0.0086 -0.0201 -0.1522
  769loPI   C3B11295  15.266  10.895   7.101  0.0557  0.0750  0.0906
  769loPI   C4B11296  15.223  11.160   7.356  0.3527 -0.1153 -0.2844
  770loPI    C111297  18.820   0.982   4.613 -0.1092 -0.0423  0.0251
  770loPI    C211298  18.743   1.316   4.408 -0.0164 -0.0312  0.0083
  770loPI    C311299  19.061   1.092   4.314 -0.0418 -0.0898  0.0617
  770loPI   PO411300  18.819   1.064   4.854  0.2228 -0.0563  0.0133
  770loPI   GL111301  18.642   1.104   5.205  0.5609 -0.2183 -0.2383
  770loPI   GL211302  18.559   0.721   5.155  0.0373 -0.0154 -0.2203
  770loPI   C1A11303  18.488   0.897   5.656 -0.0067  0.1031 -0.1646
  770loPI   C2A11304  18.304   0.743   6.042 -0.0927  0.0380  0.0209
  770loPI   C3A11305  17.855   0.625   6.188  0.1907 -0.1651  0.4558
  770loPI   C4A11306  17.539   0.567   6.553  0.1012 -0.0339  0.1792
  770loPI   C5A11307  17.166   0.496   6.693  0.1989 -0.2266 -0.0354
  770loPI   C6A11308  16.783   0.398   7.035 -0.1260 -0.1266 -0.0481
  770loPI   C1B11309  18.111   0.708   5.294  0.0433  0.1341 -0.0487
  770loPI   C2B11310  18.153   0.433   5.708 -0.0471  0.0867  0.2925
  770loPI   C3B11311  18.226   0.243   6.142  0.1741 -0.0049 -0.3454
  770loPI   C4B11312  18.130   0.325   6.544  0.5606 -0.1104 -0.2399
  771loPI    C111313   9.402   1.900   4.480  0.2051 -0.2591 -0.0970
  771loPI    C211314   9.127   2.110   4.279  0.2547 -0.0963  0.0038
  771loPI    C311315   9.191   1.726   4.188  0.1519 -0.0729 -0.1708
  771loPI   PO411316   9.265   1.879   4.713 -0.1204  0.1425 -0.0810
  771loPI   GL111317   9.454   1.781   5.144 -0.0292  0.0509  0.0362
  771loPI   GL211318   9.250   1.900   5.343  0.4137  0.0609 -0.1121
  771loPI   C1A11319   9.620   1.741   5.731  0.2057 -0.2196  0.0402
  771loPI   C2A11320   9.451   1.574   6.209  0.2645 -0.2431  0.0205
  771loPI   C3A11321   9.441   1.350   6.656 -0.1160  0.0079  0.3387
  771loPI   C4A11322   9.426   1.337   7.074  0.1128  0.0351 -0.2198
  771loPI   C5A11323   9.297   1.082   7.524  0.2009  0.3552 -0.0236
  771loPI   C6A11324   9.092   0.758   7.502  0.0200  0.1749 -0.1577
  771loPI   C1B11325   9.238   1.536   5.618 -0.0769  0.1424 -0.0937
  771loPI   C2B11326   9.038   1.390   5.947 -0.3000 -0.1693 -0.1709
  771loPI   C3B11327   8.994   1.376   6.387  0.0174  0.0963  0.3733
  771loPI   C4B11328   8.914   1.259   6.823  0.4102 -0.0374 -0.1899
  772loPI    C111329   1.358   4.000   5.144 -0.1844  0.0741  0.1725
  772loPI    C211330   0.999   4.078   4.987 -0.0253  0.0221 -0.2288
  772loPI    C311331   1.292   4.348   4.958  0.0735 -0.0846 -0.2297
  772loPI   PO411332   1.363   3.915   5.394  0.1733 -0.1131  0.2529
  772loPI   GL111333   1.369   4.092   5.798 -0.1278 -0.1275 -0.0985
  772loPI   GL211334   1.487   4.335   5.898  0.0421 -0.0784  0.2504
  772loPI   C1A11335   1.684   3.887   5.983  0.0816  0.2619  0.2345
  772loPI   C2A11336   1.807   3.593   6.377  0.0907  0.1489 -0.0199
  772loPI   C3A11337   1.632   3.618   6.809 -0.0897 -0.0896 -0.1673
  772loPI   C4A11338   1.853   3.463   7.243 -0.2154 -0.0433  0.0125
  772loPI   C5A11339   2.082   3.635   7.537  0.1220  0.2656 -0.2375
  772loPI   C6A11340   2.227   3.489   8.040 -0.0717 -0.1104 -0.1253
  772loPI   C1B11341   1.395   4.106   6.328 -0.3699  0.0529  0.0416
  772loPI   C2B11342   1.390   4.070   6.763  0.1460 -0.1516 -0.2272
  772loPI   C3B11343   1.237   3.802   7.056 -0.1025 -0.0796 -0.2127
  772loPI   C4B11344   1.274   3.410   7.092 -0.2269  0.0835 -0.1551
  773loPI    C111345   5.575  12.714   5.151 -0.0456  0.0440  0.1115
  773loPI    C211346   5.572  12.404   4.899  0.1202 -0.0177  0.1836
  773loPI    C311347   5.703  12.761   4.775 -0.1326  0.0419  0.0815
  773loPI   PO411348   5.679  12.563   5.310 -0.1144  0.2007 -0.1352
  773loPI   GL111349   5.571  12.382   5.712 -0.1583 -0.1195  0.0239
  773loPI   GL211350   5.763  12.098   5.674 -0.1487  0.0368 -0.4059
  773loPI   C1A11351   5.372  12.463   6.147  0.0096  0.1584 -0.1204
  773loPI   C2A11352   5.266  12.423   6.649 -0.0269 -0.0009  0.1486
  773loPI   C3A11353   5.345  12.508   7.069  0.1726 -0.2161 -0.1415
  773loPI   C4A11354   5.199  12.438   7.477  0.1335  0.3150  0.2306
  773loPI   C5A11355   5.057  12.362   7.923 -0.1915 -0.0586  0.4728
  773loPI   C6A11356   5.155  12.337   8.393 -0.1238  0.1744  0.0306
  773loPI   C1B11357   5.915  12.225   6.063  0.0260 -0.0348 -0.0304
  773loPI   C2B11358   5.812  12.137   6.466 -0.2701 -0.2561 -0.1851
  773loPI   C3B11359   5.739  12.182   6.901  0.2120 -0.0606  0.0333
  773loPI   C4B11360   5.559  12.086   7.237  0.1421  0.1569 -0.0151
  774loPI    C111361  16.310   6.967   5.048  0.0555 -0.0166 -0.0105
  774loPI    C211362  16.395   7.351   5.119 -0.1516  0.0584 -0.1589
  774loPI    C311363  16.393   7.212   4.744  0.1139 -0.1357 -0.0911
  774loPI   PO411364  16.189   6.917   5.214  0.1179  0.0712 -0.3685
  774loPI   GL111365  16.185   6.665   5.490 -0.0872 -0.1592  0.1743
  774loPI   GL211366  16.347   6.345   5.350 -0.0587  0.0343 -0.1719
  774loPI   C1A11367  16.183   6.799   5.916  0.0561 -0.2278 -0.2045
  774loPI   C2A11368  16.095   6.892   6.293  0.2134  0.1010 -0.2227
  774loPI   C3A11369  15.774   6.742   6.598  0.0608 -0.0062 -0.0468
  774loPI   C4A11370  15.695   6.655   7.024 -0.2350  0.1501 -0.0969
  774loPI   C5A11371  15.762   6.823   7.351  0.3040 -0.2025 -0.3327
  774loPI   C6A11372  16.058   6.947   7.627  0.3323  0.0691  0.2387
  774loPI   C1B11373  16.275   6.094   5.540 -0.0485  0.0361  0.0704
  774loPI   C2B11374  16.179   5.903   5.923 -0.2630  0.2664  0.1842
  774loPI   C3B11375  16.161   5.465   6.051 -0.2246 -0.0112  0.0156
  774loPI   C4B11376  16.173   5.086   5.880 -0.1888  0.0403 -0.1829
  775loPI    C111377  11.608  12.346   5.062  0.1355 -0.2080 -0.3548
  775loPI    C211378  11.237  12.414   4.929  0.0106 -0.4189 -0.1222
  775loPI    C311379  11.550  12.478   4.689 -0.1539  0.0643 -0.2182
  775loPI   PO411380  11.623  12.345   5.318  0.3212 -0.2084  0.4668
  775loPI   GL111381  11.670  12.507   5.656 -0.0856  0.1927 -0.0394
  775loPI   GL211382  11.449  12.651   5.652 -0.1989  0.2464 -0.0938
  775loPI   C1A11383  11.344  12.270   6.055 -0.1339  0.3005  0.1693
  775loPI   C2A11384  11.244  12.519   6.461  0.0046  0.2371 -0.0130
  775loPI   C3A11385  11.407  12.653   6.886 -0.0940 -0.2476 -0.0290
  775loPI   C4A11386  11.383  12.728   7.334 -0.1478  0.5147 -0.2645
  775loPI   C5A11387  11.056  12.824   7.630  0.2085 -0.2723 -0.0591
  775loPI   C6A11388  10.950  12.647   8.053  0.0382  0.1960  0.0143
  775loPI   C1B11389  11.610  12.735   6.087 -0.0701 -0.2516  0.3263
  775loPI   C2B11390  11.756  12.662   6.519 -0.0919 -0.3759 -0.0016
  775loPI   C3B11391  12.013  12.700   6.763  0.3066 -0.0597  0.0185
  775loPI   C4B11392  12.037  12.718   7.219  0.1314 -0.2362 -0.0618
  776loPI    C111393   7.878   6.292   4.852 -0.4368 -0.0112 -0.0194
  776loPI    C211394   7.764   5.923   4.748  0.1103 -0.1582 -0.1273
  776loPI    C311395   7.882   6.182   4.467 -0.0362  0.0181 -0.0280
  776loPI   PO411396   8.000   6.345   5.013  0.0344  0.1198  0.0887
  776loPI   GL111397   8.119   6.534   5.385 -0.2676 -0.3578  0.1575
  776loPI   GL211398   8.490   6.642   5.396  0.3233  0.2155  0.0803
  776loPI   C1A11399   7.860   6.494   5.719 -0.1599 -0.0464  0.0223
  776loPI   C2A11400   7.638   6.403   6.110  0.0270  0.0142 -0.3679
  776loPI   C3A11401   7.484   6.169   6.391  0.0044 -0.3639  0.0233
  776loPI   C4A11402   7.602   5.910   6.741 -0.0637 -0.2518 -0.0413
  776loPI   C5A11403   7.600   5.777   7.167  0.0938 -0.3161 -0.0075
  776loPI   C6A11404   7.540   5.503   7.592  0.1403  0.1026 -0.2755
  776loPI   C1B11405   8.678   6.683   5.837  0.1382 -0.3589 -0.2164
  776loPI   C2B11406   8.914   6.876   6.081  0.0795  0.3032  0.4010
  776loPI   C3B11407   8.825   6.920   6.478 -0.2686 -0.2538 -0.2189
  776loPI   C4B11408   9.085   7.056   6.889 -0.1243  0.4928  0.1993
  777loPI    C111409   9.924   7.396   5.511  0.5735  0.0169  0.1026
  777loPI    C211410   9.992   7.286   5.133 -0.0287 -0.1523  0.0339
  777loPI    C311411   9.918   7.669   5.219 -0.1219 -0.1494 -0.0567
  777loPI   PO411412  10.000   7.108   5.582 -0.0732  0.0687 -0.3553
  777loPI   GL111413  10.172   7.063   5.889 -0.0511 -0.2215 -0.2019
  777loPI   GL211414  10.294   7.358   5.912  0.1273 -0.0314  0.1530
  777loPI   C1A11415  10.113   7.134   6.341  0.1800 -0.0434 -0.3701
  777loPI   C2A11416   9.951   7.085   6.798 -0.0156 -0.0853  0.2606
  777loPI   C3A11417   9.929   6.879   7.215 -0.0413  0.2430  0.0968
  777loPI   C4A11418   9.886   6.778   7.529  0.0046  0.1464  0.2374
  777loPI   C5A11419   9.984   7.090   7.748  0.1283 -0.1261 -0.1890
  777loPI   C6A11420  10.066   7.475   8.123  0.1867  0.2834 -0.2416
  777loPI   C1B11421  10.347   7.609   6.288 -0.1671 -0.0700 -0.0634
  777loPI   C2B11422  10.179   7.735   6.706  0.0709 -0.1942 -0.0590
  777loPI   C3B11423  10.010   7.682   7.081 -0.1605  0.1082  0.1967
  777loPI   C4B11424   9.856   7.350   7.371 -0.1929  0.1633 -0.0300
  778loPI    C111425   2.562  14.960   4.992  0.1551 -0.3530  0.0458
  778loPI    C211426   2.594  15.226   4.695 -0.1206 -0.1919  0.1562
  778loPI    C311427   2.654  14.837   4.623 -0.0249 -0.1362 -0.0739
  778loPI   PO411428   2.594  14.993   5.226  0.1223 -0.0378  0.0521
  778loPI   GL111429   2.669  15.211   5.526  0.1934 -0.0854  0.4603
  778loPI   GL211430   2.890  15.005   5.691 -0.0986 -0.0734 -0.1696
  778loPI   C1A11431   2.412  15.294   5.897 -0.2160  0.1402 -0.0901
  778loPI   C2A11432   2.253  15.048   6.320 -0.0713  0.1144 -0.2146
  778loPI   C3A11433   1.999  14.750   6.352 -0.2479  0.2879  0.2488
  778loPI   C4A11434   1.848  14.714   6.723 -0.1491 -0.2012  0.0256
  778loPI   C5A11435   1.762  14.832   7.080  0.2028  0.2100  0.1137
  778loPI   C6A11436   1.720  15.090   7.359 -0.1046  0.3515 -0.0020
  778loPI   C1B11437   2.796  15.110   6.125  0.0672  0.0115 -0.1995
  778loPI   C2B11438   2.898  15.327   6.394  0.3695  0.2106 -0.1735
  778loPI   C3B11439   2.953  15.212   6.860 -0.2035  0.1920  0.0227
  778loPI   C4B11440   3.234  15.189   7.092 -0.2414  0.1391  0.2838
  779loPI    C111441  18.670  11.603   5.200 -0.0614  0.0093  0.1950
  779loPI    C211442  18.598  11.763   4.840 -0.2305 -0.0512  0.2012
  779loPI    C311443  18.870  11.473   4.879 -0.0490  0.1121  0.1606
  779loPI   PO411444  18.697  11.800   5.365  0.0485  0.2076  0.0574
  779loPI   GL111445  18.485  12.004   5.588 -0.1809  0.0686  0.1045
  779loPI   GL211446  18.393  12.248   5.709  0.3287  0.1873  0.0520
  779loPI   C1A11447  18.530  11.926   6.071 -0.1975  0.1039  0.1584
  779loPI   C2A11448  18.543  11.890   6.508  0.0786  0.3294  0.0184
  779loPI   C3A11449  18.526  11.638   6.860 -0.0701 -0.0455  0.1323
  779loPI   C4A11450  18.583  11.619   7.189  0.1503  0.3377 -0.3308
  779loPI   C5A11451  18.677  11.831   7.514  0.0523  0.1940 -0.0224
  779loPI   C6A11452  18.901  12.146   7.499  0.2980 -0.1382  0.3707
  779loPI   C1B11453  18.190  12.255   6.191  0.0935  0.0365  0.1041
  779loPI   C2B11454  18.271  12.263   6.665  0.1800  0.1765  0.1310
  779loPI   C3B11455  18.020  12.207   7.093 -0.0792  0.0900  0.0867
  779loPI   C4B11456  17.853  12.393   7.501 -0.1365  0.1984 -0.4524
  780loPI    C111457   2.403   6.191   5.200  0.1201  0.5724  0.1000
  780loPI    C211458   2.654   6.009   4.947 -0.0468  0.0365  0.3059
  780loPI    C311459   2.438   6.322   4.823  0.0334 -0.0797 -0.1482
  780loPI   PO411460   2.359   6.074   5.411 -0.1600 -0.1167 -0.0419
  780loPI   GL111461   2.434   6.126   5.807  0.2311 -0.2849  0.2745
  780loPI   GL211462   2.613   6.262   6.098 -0.1612 -0.1247  0.3232
  780loPI   C1A11463   2.143   5.981   6.122  0.2410 -0.1098 -0.0262
  780loPI   C2A11464   1.828   6.255   6.378 -0.4184  0.2431 -0.2599
  780loPI   C3A11465   1.651   6.693   6.371  0.3757 -0.2801 -0.0558
  780loPI   C4A11466   1.290   6.905   6.465  0.0791 -0.1830 -0.1729
  780loPI   C5A11467   1.232   7.141   6.788 -0.0251  0.3327 -0.3462
  780loPI   C6A11468   0.993   7.463   6.957  0.0062  0.1308  0.1399
  780loPI   C1B11469   2.717   6.604   6.411 -0.0265  0.0602 -0.2202
  780loPI   C2B11470   3.048   6.607   6.734 -0.1089  0.1921  0.4559
  780loPI   C3B11471   3.220   6.842   7.053  0.1451 -0.3200 -0.0537
  780loPI   C4B11472   3.318   7.036   7.487 -0.1939 -0.0956 -0.0007
  781loPI    C111473  13.603  12.992   5.014 -0.0748  0.2540 -0.2039
  781loPI    C211474  13.762  12.640   5.120 -0.2867  0.2525  0.1249
  781loPI    C311475  13.790  12.767   4.741  0.0799  0.0369  0.0754
  781loPI   PO411476  13.719  13.166   5.145  0.0857 -0.0264 -0.1698
  781loPI   GL111477  13.884  13.160   5.497 -0.4217  0.2830  0.2850
  781loPI   GL211478  13.948  12.861   5.518  0.0868 -0.2139  0.3583
  781loPI   C1A11479  14.012  13.272   5.830  0.0032  0.0980 -0.2081
  781loPI   C2A11480  13.784  13.298   6.177 -0.1324 -0.0840  0.1449
  781loPI   C3A11481  13.696  13.250   6.660  0.0323 -0.2219  0.0988
  781loPI   C4A11482  13.466  13.391   6.973 -0.0821 -0.0435  0.0147
  781loPI   C5A11483  13.244  13.093   7.091 -0.1421  0.0597 -0.0891
  781loPI   C6A11484  12.865  12.896   7.191 -0.1348 -0.0198 -0.2096
  781loPI   C1B11485  13.675  12.784   5.874  0.1264 -0.4113  0.1116
  781loPI   C2B11486  13.278  12.794   6.037 -0.1393 -0.3532  0.1013
  781loPI   C3B11487  12.964  12.478   6.138 -0.0901  0.1984 -0.1746
  781loPI   C4B11488  12.640  12.120   6.002  0.1359  0.1937 -0.1649
  782loPI    C111489   6.218  12.024   4.850  0.0395 -0.0200 -0.0239
  782loPI    C211490   5.967  12.271   4.662 -0.0766 -0.1294 -0.0140
  782loPI    C311491   6.265  12.097   4.460  0.1632  0.2162  0.0335
  782loPI   PO411492   6.318  12.194   5.099 -0.1397 -0.0904 -0.1498
  782loPI   GL111493   6.152  12.410   5.524 -0.0806 -0.1880 -0.1525
  782loPI   GL211494   5.974  12.611   5.759 -0.2283  0.0589 -0.3400
  782loPI   C1A11495   6.415  12.237   5.868 -0.0551  0.2057 -0.0042
  782loPI   C2A11496   6.530  12.314   6.336 -0.0440 -0.2270  0.1501
  782loPI   C3A11497   6.849  12.631   6.527 -0.2606  0.1039 -0.2981
  782loPI   C4A11498   7.006  12.772   6.857 -0.2816 -0.0844 -0.2257
  782loPI   C5A11499   6.948  12.804   7.315 -0.1547  0.2831 -0.4201
  782loPI   C6A11500   7.026  12.619   7.641 -0.0101  0.0459 -0.1258
  782loPI   C1B11501   5.766  12.772   6.080  0.0225  0.1796  0.2031
  782loPI   C2B11502   5.659  12.695   6.513 -0.2323 -0.1489 -0.1276
  782loPI   C3B11503   5.732  12.825   6.900 -0.0615 -0.2076 -0.2815
  782loPI   C4B11504   5.735  12.639   7.300 -0.1933 -0.2106 -0.0276
  783loPI    C111505  18.744   2.606   5.033  0.1670  0.0790 -0.4085
  783loPI    C211506  18.544   2.948   5.093 -0.1532 -0.1852  0.0988
  783loPI    C311507  18.849   2.849   5.333  0.0753 -0.1624 -0.1770
  783loPI   PO411508  18.513   2.385   5.084  0.3488 -0.2145 -0.2447
  783loPI   GL111509  18.260   2.314   5.381 -0.1471  0.4352 -0.3333
  783loPI   GL211510  18.220   2.578   5.437  0.0861 -0.0990  0.1357
  783loPI   C1A11511  18.103   2.040   5.744  0.1082 -0.2545  0.1464
  783loPI   C2A11512  17.985   2.054   6.272 -0.2518  0.0900  0.2933
  783loPI   C3A11513  18.075   1.916   6.717 -0.1667  0.0365 -0.1651
  783loPI   C4A11514  18.155   1.991   7.132 -0.4597 -0.0748 -0.1717
  783loPI   C5A11515  18.067   2.270   7.382 -0.2464  0.1590  0.1068
  783loPI   C6A11516  18.045   2.718   7.318 -0.2177 -0.0981  0.1599
  783loPI   C1B11517  18.380   2.926   5.543 -0.1901  0.0590  0.0387
  783loPI   C2B11518  18.396   3.206   5.962  0.1535 -0.0055  0.1413
  783loPI   C3B11519  18.546   3.181   6.363 -0.0811  0.5855  0.1540
  783loPI   C4B11520  18.864   3.285   6.803  0.0739 -0.0256  0.2398
  784loPI    C111521   7.910  11.073   5.096 -0.0393  0.1040 -0.0667
  784loPI    C211522   7.706  10.824   4.858  0.0805 -0.1720  0.1139
  784loPI    C311523   8.098  10.771   4.913  0.1738  0.2543 -0.0989
  784loPI   PO411524   7.654  11.253   5.228 -0.1490 -0.1564  0.2898
  784loPI   GL111525   7.696  11.585   5.524  0.2070 -0.2287 -0.2948
  784loPI   GL211526   7.383  11.778   5.712 -0.1288 -0.0274  0.3117
  784loPI   C1A11527   7.904  11.759   5.808  0.1088  0.0890  0.1316
  784loPI   C2A11528   8.019  11.699   6.234  0.2739  0.2183 -0.2247
  784loPI   C3A11529   8.007  11.513   6.656 -0.2439  0.1670 -0.1044
  784loPI   C4A11530   8.105  11.408   7.074 -0.3166 -0.1764  0.0119
  784loPI   C5A11531   8.035  11.432   7.537  0.1333  0.0895  0.2095
  784loPI   C6A11532   8.276  11.726   7.663 -0.1957 -0.0553  0.0706
  784loPI   C1B11533   7.226  11.844   6.172 -0.0014  0.0771  0.2936
  784loPI   C2B11534   7.221  11.802   6.633  0.0604  0.0074 -0.0655
  784loPI   C3B11535   7.069  11.652   6.961 -0.1462 -0.0782 -0.0360
  784loPI   C4B11536   6.827  11.513   7.368  0.2031 -0.1260 -0.0427
  785loPI    C111537   3.590   4.212   5.402 -0.1007  0.0568  0.1710
  785loPI    C211538   3.530   3.851   5.241  0.3437  0.0033  0.1138
  785loPI    C311539   3.610   4.164   5.005 -0.1504  0.1680  0.1548
  785loPI   PO411540   3.393   4.224   5.666  0.1625  0.1800  0.0359
  785loPI   GL111541   3.472   4.215   6.047 -0.0057  0.0993 -0.3131
  785loPI   GL211542   3.636   4.598   5.986  0.2538  0.1838 -0.1751
  785loPI   C1A11543   3.645   3.945   6.322  0.3250  0.0206 -0.0717
  785loPI   C2A11544   3.659   3.871   6.782 -0.4194 -0.1375 -0.2081
  785loPI   C3A11545   3.614   4.193   7.107  0.0909  0.1065 -0.0416
  785loPI   C4A11546   3.568   4.126   7.517 -0.1799  0.2840  0.1580
  785loPI   C5A11547   3.712   3.779   7.770  0.1246 -0.1443 -0.3568
  785loPI   C6A11548   3.691   3.368   7.987  0.1594  0.2436 -0.1180
  785loPI   C1B11549   3.255   4.658   6.255 -0.3602  0.0136 -0.2080
  785loPI   C2B11550   3.094   4.737   6.618  0.1204  0.0585  0.3235
  785loPI   C3B11551   3.101   4.851   6.965 -0.0629 -0.0266 -0.1195
  785loPI   C4B11552   3.174   5.074   7.310 -0.0948  0.1425  0.1663
  786loPI    C111553  14.984  10.554   5.328  0.1745 -0.0587 -0.0562
  786loPI    C211554  14.796  10.630   4.983  0.1817  0.0922 -0.0274
  786loPI    C311555  15.156  10.790   5.055  0.1069  0.1971  0.1189
  786loPI   PO411556  14.684  10.477   5.466 -0.0739  0.2141 -0.4692
  786loPI   GL111557  14.558  10.354   5.884  0.1898 -0.2546 -0.1671
  786loPI   GL211558  14.322  10.173   5.836  0.0434  0.1295 -0.1522
  786loPI   C1A11559  14.808  10.072   6.076  0.0672 -0.3205 -0.0131
  786loPI   C2A11560  14.745   9.930   6.547  0.0599 -0.0821  0.0076
  786loPI   C3A11561  14.901   9.976   6.925 -0.1148 -0.0998 -0.1756
  786loPI   C4A11562  14.860   9.939   7.357 -0.0805  0.1875 -0.1814
  786loPI   C5A11563  15.107   9.687   7.717 -0.2149 -0.0487 -0.1066
  786loPI   C6A11564  15.572   9.570   7.704  0.1664  0.3227  0.1279
  786loPI   C1B11565  13.958  10.135   6.026 -0.3642 -0.1413  0.0151
  786loPI   C2B11566  13.793  10.050   6.468  0.2558 -0.2120 -0.1020
  786loPI   C3B11567  13.800  10.082   6.911  0.1135 -0.0234 -0.2967
  786loPI   C4B11568  13.499   9.897   7.200 -0.0047  0.1176  0.0652
  787loPI    C111569  16.536  13.462   5.191  0.1294 -0.1099 -0.0148
  787loPI    C211570  16.725  13.268   5.485  0.0649 -0.0967  0.0352
  787loPI    C311571  16.680  13.094   5.128  0.1338 -0.1169  0.0362
  787loPI   PO411572  16.247  13.550   5.292  0.0333  0.2428  0.1724
  787loPI   GL111573  16.107  13.334   5.636  0.1104  0.2009 -0.2914
  787loPI   GL211574  15.765  13.330   5.574 -0.0060  0.0040  0.0960
  787loPI   C1A11575  16.475  13.196   5.920 -0.1053  0.2202 -0.1724
  787loPI   C2A11576  16.469  13.162   6.282 -0.2193  0.4755 -0.2752
  787loPI   C3A11577  16.572  13.051   6.659  0.2078  0.2480  0.1333
  787loPI   C4A11578  16.708  12.965   7.060 -0.3580 -0.0008  0.1825
  787loPI   C5A11579  16.844  12.893   7.466  0.1452 -0.1416 -0.6358
  787loPI   C6A11580  16.996  12.631   7.849  0.1554 -0.0510 -0.1786
  787loPI   C1B11581  15.616  13.664   5.899  0.2506  0.1581  0.2934
  787loPI   C2B11582  15.659  13.740   6.386  0.0269  0.0141  0.0497
  787loPI   C3B11583  15.464  13.749   6.824 -0.1439  0.1534  0.3324
  787loPI   C4B11584  15.347  13.549   7.251 -0.2002  0.0574 -0.2724
  788loPI    C111585   7.537   8.468   4.907 -0.0493 -0.0291 -0.1745
  788loPI    C211586   7.355   8.117   4.964 -0.2874  0.0609 -0.3641
  788loPI    C311587   7.219   8.370   4.686  0.0561  0.1831 -0.4256
  788loPI   PO411588   7.621   8.494   5.169 -0.1774  0.1396  0.0184
  788loPI   GL111589   7.696   8.435   5.653 -0.0130 -0.3764  0.5260
  788loPI   GL211590   7.868   8.709   5.780 -0.0751  0.0676  0.3486
  788loPI   C1A11591   7.758   8.383   6.165  0.0249  0.0649 -0.1101
  788loPI   C2A11592   7.900   8.367   6.656  0.2487 -0.2202  0.2232
  788loPI   C3A11593   8.179   8.608   6.955 -0.0962  0.0969  0.1572
  788loPI   C4A11594   8.272   8.670   7.328  0.1270 -0.1379  0.0974
  788loPI   C5A11595   8.605   8.611   7.644  0.0186 -0.1441  0.0088
  788loPI   C6A11596   8.914   8.882   7.700 -0.0973 -0.0803 -0.0857
  788loPI   C1B11597   8.015   8.848   6.073  0.2713 -0.0396 -0.1119
  788loPI   C2B11598   8.078   8.799   6.488 -0.0351  0.3026 -0.0522
  788loPI   C3B11599   7.833   9.011   6.799 -0.3173 -0.0947  0.0695
  788loPI   C4B11600   7.504   9.161   7.120  0.0539  0.1878  0.0534
  789loPI    C111601   9.902   4.997   5.045  0.0594  0.1986  0.0252
  789loPI    C211602  10.116   5.300   4.895  0.0311  0.1039 -0.2101
  789loPI    C311603  10.054   4.971   4.676  0.0478 -0.0667  0.0375
  789loPI   PO411604   9.946   4.951   5.255  0.2126 -0.0920 -0.1230
  789loPI   GL111605  10.309   5.179   5.419  0.3212 -0.1931 -0.0563
  789loPI   GL211606  10.622   5.203   5.339 -0.1798  0.0203  0.2308
  789loPI   C1A11607  10.415   5.068   5.847 -0.3567 -0.1077  0.0502
  789loPI   C2A11608  10.488   5.045   6.246  0.4905  0.0037  0.3136
  789loPI   C3A11609  10.557   5.159   6.593 -0.0609 -0.2140 -0.0929
  789loPI   C4A11610  10.746   5.027   6.985 -0.1691 -0.1684 -0.0743
  789loPI   C5A11611  11.217   4.893   7.086 -0.2789 -0.1295  0.1428
  789loPI   C6A11612  11.635   4.901   7.310  0.1738 -0.2340  0.0567
  789loPI   C1B11613  10.804   5.384   5.643  0.1930 -0.0012 -0.0984
  789loPI   C2B11614  10.805   5.419   6.120  0.1249  0.0647  0.2137
  789loPI   C3B11615  10.986   5.387   6.613  0.0294  0.1737  0.0880
  789loPI   C4B11616  11.340   5.342   6.945  0.1223  0.1799  0.0234
  790loPI    C111617   9.153   4.294   4.869 -0.0461 -0.0079  0.1408
  790loPI    C211618   9.245   3.954   4.680  0.1483  0.1349 -0.0260
  790loPI    C311619   9.235   4.299   4.477  0.0159  0.2392  0.1549
  790loPI   PO411620   9.282   4.260   5.108  0.2269 -0.1405 -0.0813
  790loPI   GL111621   9.327   4.265   5.511  0.3601  0.0809  0.0771
  790loPI   GL211622   9.236   4.597   5.591  0.1585  0.4119  0.0599
  790loPI   C1A11623   9.386   4.069   5.924  0.1744  0.1020 -0.2132
  790loPI   C2A11624   9.426   3.793   6.141  0.2838 -0.0866 -0.0003
  790loPI   C3A11625   9.328   3.785   6.564 -0.0632 -0.0921  0.0705
  790loPI   C4A11626   9.383   3.559   6.810 -0.1942 -0.1617  0.1803
  790loPI   C5A11627   9.407   3.316   7.191  0.0130 -0.4029  0.3123
  790loPI   C6A11628   9.440   3.097   7.602  0.3982 -0.0912  0.2771
  790loPI   C1B11629   9.482   4.587   6.043 -0.1044  0.1248  0.1617
  790loPI   C2B11630   9.622   4.729   6.475  0.2233  0.1670 -0.0105
  790loPI   C3B11631   9.380   4.972   6.697 -0.0212 -0.0278  0.1456
  790loPI   C4B11632   9.367   5.025   7.045 -0.0263  0.2520 -0.1983
  791loPI    C111633   6.105   9.066   5.343  0.1049 -0.0072 -0.0941
  791loPI    C211634   5.994   8.920   4.987  0.1367 -0.0526 -0.0855
  791loPI    C311635   6.055   9.312   5.032 -0.2055 -0.0011 -0.0424
  791loPI   PO411636   5.986   8.999   5.474  0.4699 -0.0394  0.0176
  791loPI   GL111637   5.826   8.692   5.740 -0.0512 -0.3488 -0.1529
  791loPI   GL211638   6.056   8.826   5.947 -0.2563  0.1226  0.1272
  791loPI   C1A11639   5.517   8.639   6.016  0.1046 -0.1272 -0.1311
  791loPI   C2A11640   5.496   8.694   6.511  0.1192 -0.0962 -0.1804
  791loPI   C3A11641   5.681   8.927   6.988 -0.0139 -0.1912  0.0235
  791loPI   C4A11642   5.622   8.623   7.335 -0.0952 -0.1932  0.0869
  791loPI   C5A11643   5.413   8.252   7.533 -0.2388 -0.0548  0.2137
  791loPI   C6A11644   5.506   7.918   7.489  0.1759  0.5076  0.2099
  791loPI   C1B11645   5.989   8.587   6.246  0.1902 -0.1672  0.1653
  791loPI   C2B11646   6.011   8.633   6.657  0.2239  0.0180  0.0585
  791loPI   C3B11647   6.050   8.354   7.096  0.0674 -0.2218 -0.2204
  791loPI   C4B11648   5.935   8.174   7.464  0.2731 -0.1371 -0.2642
  792loPI    C111649  10.070   0.676   4.708 -0.0388 -0.0803  0.1589
  792loPI    C211650  10.171   0.291   4.663 -0.0416 -0.0606 -0.0230
  792loPI    C311651   9.791   0.406   4.612 -0.0720 -0.0599  0.1980
  792loPI   PO411652  10.169   0.735   4.898 -0.0975  0.3364  0.3865
  792loPI   GL111653  10.064   0.839   5.256  0.2589 -0.0588  0.0299
  792loPI   GL211654  10.332   0.745   5.366  0.0864 -0.3518  0.2144
  792loPI   C1A11655   9.992   0.921   5.795  0.1043  0.0344  0.1783
  792loPI   C2A11656  10.261   0.936   6.154 -0.3509 -0.1672  0.3219
  792loPI   C3A11657  10.301   0.972   6.538  0.3895 -0.1101 -0.0341
  792loPI   C4A11658  10.387   1.005   6.920 -0.1187 -0.1363 -0.0188
  792loPI   C5A11659  10.623   1.136   7.250 -0.1014  0.1808 -0.1318
  792loPI   C6A11660  10.925   1.427   7.606 -0.0273 -0.0356  0.0202
  792loPI   C1B11661  10.583   0.785   5.766  0.0048  0.0891 -0.0640
  792loPI   C2B11662  10.763   0.848   6.165 -0.3328 -0.1523  0.1534
  792loPI   C3B11663  10.784   0.957   6.509  0.0012  0.0301 -0.1320
  792loPI   C4B11664  11.065   1.061   6.937  0.0841 -0.3504 -0.3006
  793loPI    C111665  16.349   3.429   4.912 -0.2484 -0.1383 -0.0657
  793loPI    C211666  16.623   3.161   4.798 -0.0917  0.0946 -0.2494
  793loPI    C311667  16.446   3.393   4.525 -0.2327  0.1727 -0.0933
  793loPI   PO411668  16.279   3.349   5.085 -0.1417  0.1242  0.1940
  793loPI   GL111669  16.188   3.490   5.493  0.0560  0.2545  0.0504
  793loPI   GL211670  16.485   3.697   5.438 -0.0442 -0.1916 -0.2177
  793loPI   C1A11671  16.363   3.425   5.879 -0.0724  0.1904 -0.2782
  793loPI   C2A11672  16.465   3.436   6.286 -0.2072  0.1892 -0.0727
  793loPI   C3A11673  16.569   3.610   6.757  0.0954 -0.2185 -0.0822
  793loPI   C4A11674  16.694   3.912   7.073 -0.1655 -0.0274 -0.0263
  793loPI   C5A11675  16.794   4.283   7.352 -0.0091  0.3136 -0.0492
  793loPI   C6A11676  16.587   4.675   7.444  0.4929  0.0879 -0.3318
  793loPI   C1B11677  16.771   3.701   5.662  0.2014 -0.1790 -0.0842
  793loPI   C2B11678  16.904   3.420   5.974 -0.0473  0.0743  0.1875
  793loPI   C3B11679  16.938   3.441   6.422 -0.1389 -0.3310 -0.1965
  793loPI   C4B11680  17.077   3.794   6.722 -0.1623  0.3134  0.1204
  794loPI    C111681   3.966   0.687   5.518  0.0370 -0.1441  0.0532
  794loPI    C211682   3.716   0.803   5.229  0.2775 -0.0729 -0.1299
  794loPI    C311683   3.756   0.414   5.314 -0.2474 -0.0587  0.2274
  794loPI   PO411684   3.902   0.896   5.722  0.1354  0.0547 -0.0300
  794loPI   GL111685   3.847   0.970   6.210 -0.0938  0.1679  0.1590
  794loPI   GL211686   3.825   1.254   6.310 -0.3582  0.3560  0.0710
  794loPI   C1A11687   3.654   0.608   6.436  0.0979  0.2525 -0.3626
  794loPI   C2A11688   3.337   0.560   6.747  0.0969  0.0729  0.0418
  794loPI   C3A11689   3.099   0.389   6.996 -0.0468 -0.2653 -0.0762
  794loPI   C4A11690   2.886   0.310   7.352 -0.1878 -0.1234  0.2911
  794loPI   C5A11691   2.618   0.233   7.636 -0.0723  0.1046  0.1151
  794loPI   C6A11692   2.423   0.015   7.833 -0.1453 -0.1072 -0.0474
  794loPI   C1B11693   3.929   0.993   6.728 -0.0085 -0.0226 -0.3405
  794loPI   C2B11694   3.730   0.963   7.088  0.0085  0.0648  0.1060
  794loPI   C3B11695   3.559   1.276   7.509 -0.0943 -0.1831  0.2172
  794loPI   C4B11696   3.123   1.381   7.490 -0.0028  0.1046  0.0367
  795loPI    C111697  17.160   4.049   4.941 -0.0594  0.2190 -0.1758
  795loPI    C211698  17.254   4.327   4.669  0.3601  0.0500 -0.2121
  795loPI    C311699  17.198   3.948   4.556 -0.0026  0.0761 -0.1333
  795loPI   PO411700  17.247   4.178   5.167  0.1230 -0.1918 -0.1948
  795loPI   GL111701  17.378   4.464   5.493 -0.0920  0.2281 -0.5289
  795loPI   GL211702  17.023   4.463   5.591 -0.1044 -0.1079  0.0567
  795loPI   C1A11703  17.345   4.429   5.975 -0.0061 -0.1052  0.0311
  795loPI   C2A11704  17.247   4.576   6.372 -0.0384 -0.0766  0.0312
  795loPI   C3A11705  17.194   4.639   6.827 -0.0875  0.2965  0.2624
  795loPI   C4A11706  17.133   4.663   7.250 -0.2215  0.0744 -0.2773
  795loPI   C5A11707  16.991   4.704   7.703  0.1871  0.1513  0.0525
  795loPI   C6A11708  17.091   5.042   7.831  0.2348 -0.0956  0.2056
  795loPI   C1B11709  16.910   4.689   5.994 -0.1373 -0.1730 -0.2363
  795loPI   C2B11710  17.007   5.068   6.147 -0.0114  0.1323 -0.3456
  795loPI   C3B11711  17.207   5.134   6.552  0.0216  0.1652 -0.0043
  795loPI   C4B11712  17.389   5.190   6.998  0.2953  0.0452 -0.6029
  796loPI    C111713  13.883   6.434   5.230 -0.3035  0.0730  0.1858
  796loPI    C211714  13.721   6.355   4.873 -0.1255 -0.0787  0.1368
  796loPI    C311715  14.067   6.184   4.978 -0.0255  0.1951  0.2632
  796loPI   PO411716  13.714   6.500   5.403  0.2908  0.0581  0.0287
  796loPI   GL111717  13.530   6.158   5.692 -0.1001  0.0273  0.1629
  796loPI   GL211718  13.349   5.948   5.820  0.3225  0.1712 -0.3468
  796loPI   C1A11719  13.365   6.419   6.013 -0.0515 -0.0552  0.1163
  796loPI   C2A11720  13.081   6.559   6.282 -0.1871 -0.0938 -0.2299
  796loPI   C3A11721  12.714   6.628   6.558 -0.1910 -0.0194 -0.1355
  796loPI   C4A11722  12.524   6.849   6.907  0.1061  0.4142  0.0792
  796loPI   C5A11723  12.444   7.161   7.172 -0.2692 -0.1662 -0.0424
  796loPI   C6A11724  12.261   7.086   7.527 -0.0183  0.3014  0.1004
  796loPI   C1B11725  13.525   5.631   6.183 -0.0180 -0.2459  0.2281
  796loPI   C2B11726  13.695   5.399   6.520  0.1463  0.4535  0.0120
  796loPI   C3B11727  13.786   5.179   6.753  0.1709  0.2151 -0.0313
  796loPI   C4B11728  14.070   4.961   6.892 -0.2275  0.2723 -0.0192
  797loPI    C111729  18.710   0.261   5.027  0.2504  0.2911  0.0329
  797loPI    C211730  18.617   0.520   4.737 -0.2838 -0.1028 -0.1626
  797loPI    C311731  18.628   0.128   4.659 -0.1033 -0.1900  0.2747
  797loPI   PO411732  18.909   0.321   5.156 -0.2970 -0.0850 -0.0805
  797loPI   GL111733  19.027   0.505   5.623  0.1049 -0.0622 -0.0244
  797loPI   GL211734  18.695   0.457   5.545  0.0456 -0.2616 -0.0763
  797loPI   C1A11735  18.861   0.422   5.989  0.0060 -0.1663 -0.2494
  797loPI   C2A11736  18.647   0.463   6.417 -0.1215 -0.0305  0.2702
  797loPI   C3A11737  18.806   0.622   6.749  0.0775 -0.1891  0.3343
  797loPI   C4A11738  18.863   0.651   7.244  0.2975 -0.1609  0.0638
  797loPI   C5A11739  19.192   0.605   7.548  0.2413  0.2430 -0.6896
  797loPI   C6A11740  19.501   0.692   7.794  0.4194 -0.2202 -0.3118
  797loPI   C1B11741  18.537   0.129   5.747 -0.4040  0.0679  0.0861
  797loPI   C2B11742  18.643  -0.039   6.054 -0.3827 -0.0067  0.1260
  797loPI   C3B11743  18.537  -0.105   6.337 -0.1690 -0.1612  0.0052
  797loPI   C4B11744  18.565   0.075   6.711  0.2865  0.1533 -0.0704
  798loPI    C111745   0.982   0.420   5.048  0.0974  0.0562  0.0403
  798loPI    C211746   0.646   0.531   4.862  0.0146 -0.2127  0.0243
  798loPI    C311747   0.831   0.193   4.755  0.2495 -0.1051  0.0849
  798loPI   PO411748   0.979   0.485   5.298 -0.1808  0.2667 -0.1625
  798loPI   GL111749   0.910   0.358   5.660 -0.1712 -0.0514  0.1516
  798loPI   GL211750   0.644   0.546   5.696 -0.0055 -0.0471 -0.1485
  798loPI   C1A11751   0.884   0.059   6.135  0.3863  0.1364  0.0758
  798loPI   C2A11752   0.615  -0.059   6.606 -0.1637  0.2880 -0.2361
  798loPI   C3A11753   0.414  -0.197   6.987 -0.0347 -0.2199  0.2446
  798loPI   C4A11754   0.373  -0.034   7.350 -0.1668 -0.1259 -0.0320
  798loPI   C5A11755   0.407   0.171   7.769 -0.0768 -0.3814 -0.1776
  798loPI   C6A11756   0.627   0.326   8.116 -0.1545 -0.2611 -0.0726
  798loPI   C1B11757   0.358   0.629   6.066 -0.1297  0.0475 -0.0492
  798loPI   C2B11758   0.287   0.773   6.475  0.0893 -0.2398 -0.1484
  798loPI   C3B11759   0.298   0.784   6.957 -0.1462 -0.2013 -0.2094
  798loPI   C4B11760   0.513   0.972   7.366 -0.0008  0.0777  0.3137
  799loPI    C111761  13.211  17.414   4.458  0.0518 -0.0849  0.0573
  799loPI    C211762  13.262  17.417   4.061 -0.0689  0.0938  0.0424
  799loPI    C311763  13.297  17.756   4.270 -0.1718  0.0313  0.1629
  799loPI   PO411764  12.985  17.359   4.583 -0.2939 -0.1215  0.1127
  799loPI   GL111765  12.924  17.445   5.087  0.0854 -0.2900 -0.1334
  799loPI   GL211766  12.657  17.296   5.225  0.0914 -0.2757 -0.0025
  799loPI   C1A11767  12.978  17.647   5.595 -0.0313  0.0692 -0.1794
  799loPI   C2A11768  13.000  17.780   6.026 -0.0064 -0.0002 -0.2902
  799loPI   C3A11769  13.006  17.663   6.422 -0.0533  0.0681  0.0245
  799loPI   C4A11770  13.069  17.800   6.711  0.2752 -0.1317  0.0397
  799loPI   C5A11771  13.176  17.864   7.068 -0.0042  0.1324  0.0778
  799loPI   C6A11772  13.309  18.153   7.250 -0.0073 -0.0745 -0.0176
  799loPI   C1B11773  12.476  17.255   5.614  0.0560 -0.1443  0.3415
  799loPI   C2B11774  12.133  17.405   5.777  0.0558  0.0477 -0.2231
  799loPI   C3B11775  11.944  17.450   6.236 -0.0986 -0.0767  0.2363
  799loPI   C4B11776  11.902  17.752   6.348  0.4259 -0.1233 -0.0497
  800loPI    C111777  14.075   7.238   5.011  0.2576 -0.1750 -0.0997
  800loPI    C211778  14.322   7.348   4.717  0.0218  0.2708 -0.1394
  800loPI    C311779  13.927   7.340   4.654  0.0008 -0.1394  0.0144
  800loPI   PO411780  14.087   7.389   5.252  0.2046 -0.1732  0.1770
  800loPI   GL111781  14.167   7.335   5.635  0.3729 -0.0677  0.0101
  800loPI   GL211782  14.466   7.531   5.628  0.4422  0.0959  0.1945
  800loPI   C1A11783  14.307   7.352   6.106 -0.0201 -0.1718  0.1656
  800loPI   C2A11784  14.427   7.453   6.453  0.1709 -0.3258  0.0264
  800loPI   C3A11785  14.587   7.563   6.846  0.2092  0.1754  0.2138
  800loPI   C4A11786  14.948   7.846   6.961  0.0867 -0.1318 -0.0110
  800loPI   C5A11787  15.366   7.920   6.930 -0.0729  0.0867 -0.2610
  800loPI   C6A11788  15.667   8.184   7.004 -0.2257  0.1037 -0.2716
  800loPI   C1B11789  14.541   7.792   6.043  0.1911 -0.0689  0.0538
  800loPI   C2B11790  14.862   7.970   6.017 -0.0025 -0.0754  0.2076
  800loPI   C3B11791  15.267   8.311   6.139 -0.0819 -0.0515 -0.1208
  800loPI   C4B11792  15.248   8.640   6.268 -0.0935 -0.0262  0.1822
  801loPI    C111793   5.015  17.675   5.305 -0.0064  0.0973  0.1147
  801loPI    C211794   5.016  18.028   5.117  0.1807 -0.0294 -0.1286
  801loPI    C311795   4.741  17.752   5.025  0.1421 -0.0129 -0.0636
  801loPI   PO411796   5.195  17.761   5.484 -0.2098 -0.3481 -0.1187
  801loPI   GL111797   5.329  17.981   5.873 -0.0524 -0.2267  0.0875
  801loPI   GL211798   5.641  17.951   6.032  0.1074 -0.0067  0.3186
  801loPI   C1A11799   5.152  18.214   6.184  0.0424  0.0851 -0.1052
  801loPI   C2A11800   5.253  18.267   6.722  0.1218 -0.1387 -0.0970
  801loPI   C3A11801   5.059  18.575   7.049  0.1023 -0.0899  0.4289
  801loPI   C4A11802   4.984  18.839   7.353 -0.1687  0.2434 -0.2814
  801loPI   C5A11803   5.366  18.852   7.661  0.0916  0.0335  0.0882
  801loPI   C6A11804   5.773  18.803   7.782  0.1162  0.0838 -0.0444
  801loPI   C1B11805   5.616  17.884   6.415  0.1261  0.3715  0.0364
  801loPI   C2B11806   5.751  17.721   6.820  0.2330 -0.3005 -0.2621
  801loPI   C3B11807   5.834  17.623   7.285 -0.3492  0.2520  0.1613
  801loPI   C4B11808   5.561  17.313   7.418  0.0350 -0.0922  0.0179
  802loPI    C111809   3.717  11.240   4.809  0.0374 -0.1398 -0.1413
  802loPI    C211810   3.741  11.438   4.463  0.2888  0.3078  0.1227
  802loPI    C311811   4.041  11.199   4.578  0.0934 -0.0449 -0.0800
  802loPI   PO411812   3.544  11.345   4.946 -0.1882 -0.0710  0.0685
  802loPI   GL111813   3.519  11.634   5.192 -0.2635 -0.4259 -0.1044
  802loPI   GL211814   3.474  11.939   5.158 -0.2016 -0.0194  0.0751
  802loPI   C1A11815   3.575  11.471   5.589 -0.0621  0.2088 -0.0718
  802loPI   C2A11816   3.610  11.572   6.049 -0.1412 -0.0529 -0.1661
  802loPI   C3A11817   3.543  11.828   6.444  0.0925 -0.0356  0.0702
  802loPI   C4A11818   3.463  11.872   6.815  0.0546  0.0932 -0.0117
  802loPI   C5A11819   3.193  11.743   7.067 -0.0143  0.0461 -0.0791
  802loPI   C6A11820   3.017  11.686   7.412 -0.1679  0.1272 -0.3514
  802loPI   C1B11821   3.493  11.961   5.675 -0.1028  0.0138 -0.0945
  802loPI   C2B11822   3.128  11.892   6.040  0.2208 -0.0472 -0.0809
  802loPI   C3B11823   3.075  12.123   6.423 -0.0162  0.0685 -0.0763
  802loPI   C4B11824   3.069  12.179   6.847  0.1914  0.2972 -0.0080
  803loPI    C111825   4.990  12.631   5.209  0.0653 -0.0465 -0.0337
  803loPI    C211826   4.613  12.666   5.336  0.0258  0.1439 -0.1981
  803loPI    C311827   4.689  12.614   4.947  0.1644 -0.0292 -0.1494
  803loPI   PO411828   5.107  12.739   5.347  0.2045  0.1642  0.0006
  803loPI   GL111829   5.100  12.735   5.733  0.0361  0.3304 -0.2649
  803loPI   GL211830   5.086  13.131   5.730 -0.1574  0.2887 -0.0401
  803loPI   C1A11831   4.913  12.692   6.110  0.3430  0.2306 -0.1887
  803loPI   C2A11832   4.623  12.548   6.515  0.3314 -0.0274 -0.2725
  803loPI   C3A11833   4.409  12.264   6.846 -0.1512 -0.1263  0.0490
  803loPI   C4A11834   4.334  11.779   6.968  0.0713  0.0125  0.2447
  803loPI   C5A11835   4.540  11.400   7.250 -0.3927 -0.1296 -0.0836
  803loPI   C6A11836   4.607  11.310   7.661  0.3341  0.0038  0.3250
  803loPI   C1B11837   5.332  13.032   6.079 -0.1385 -0.2625  0.4430
  803loPI   C2B11838   5.576  13.171   6.377 -0.2824 -0.0509 -0.3252
  803loPI   C3B11839   5.717  13.395   6.688 -0.0732  0.4714  0.2748
  803loPI   C4B11840   6.085  13.666   6.869  0.0703 -0.2769  0.0991
  804loPI    C111841   6.359   1.436   5.499 -0.0041  0.4873 -0.1929
  804loPI    C211842   6.328   1.227   5.159  0.1461 -0.0838  0.1307
  804loPI    C311843   6.639   1.472   5.216  0.0726  0.0861 -0.1736
  804loPI   PO411844   6.074   1.555   5.534 -0.0910 -0.4146 -0.2022
  804loPI   GL111845   5.764   1.818   5.727 -0.0522 -0.0345 -0.2451
  804loPI   GL211846   5.803   2.087   5.686  0.2389  0.2109  0.5377
  804loPI   C1A11847   5.729   1.657   6.103  0.1494  0.0819  0.1775
  804loPI   C2A11848   5.524   1.634   6.441  0.5068 -0.0525  0.1611
  804loPI   C3A11849   5.670   1.480   6.848  0.3420  0.0199 -0.1861
  804loPI   C4A11850   5.603   1.523   7.302  0.3609  0.0318  0.1304
  804loPI   C5A11851   5.675   1.638   7.618 -0.1114  0.0293 -0.1891
  804loPI   C6A11852   5.684   1.756   8.093 -0.1397  0.2197  0.1319
  804loPI   C1B11853   5.622   2.391   5.923 -0.0747  0.1834  0.1472
  804loPI   C2B11854   5.856   2.855   5.945 -0.3130  0.0470 -0.0954
  804loPI   C3B11855   6.161   3.107   5.966  0.3964 -0.0273 -0.1047
  804loPI   C4B11856   6.556   3.142   6.147 -0.1963 -0.0688  0.0463
  805loPI    C111857   0.576   2.254   4.695  0.1162 -0.0793 -0.0900
  805loPI    C211858   0.765   2.580   4.829 -0.0115 -0.1259  0.2121
  805loPI    C311859   0.921   2.369   4.527  0.0169  0.2744 -0.0616
  805loPI   PO411860   0.599   2.109   4.979 -0.0390  0.1696  0.3762
  805loPI   GL111861   0.764   2.018   5.377 -0.0881  0.1481  0.3258
  805loPI   GL211862   0.664   1.764   5.547  0.1931 -0.0846 -0.2267
  805loPI   C1A11863   0.562   2.257   5.727  0.1337  0.1133  0.1540
  805loPI   C2A11864   0.538   2.222   6.222  0.1180  0.0407  0.0627
  805loPI   C3A11865   0.482   2.179   6.715  0.0582  0.0401  0.2496
  805loPI   C4A11866   0.393   2.152   7.090  0.3127  0.0595 -0.0406
  805loPI   C5A11867   0.767   1.813   7.299  0.4054 -0.0226  0.0168
  805loPI   C6A11868   1.192   1.953   7.210  0.0730  0.1813 -0.1092
  805loPI   C1B11869   0.757   1.815   6.005  0.1158 -0.1312  0.0038
  805loPI   C2B11870   0.529   1.734   6.430 -0.0384  0.1506 -0.0453
  805loPI   C3B11871   0.520   1.608   6.788 -0.2712 -0.0046  0.1832
  805loPI   C4B11872   0.717   1.370   7.049 -0.2966  0.2424 -0.1492
  806loPI    C111873  18.722   7.492   4.951 -0.0679  0.0135 -0.1074
  806loPI    C211874  18.635   7.856   4.810 -0.0000  0.0773  0.0139
  806loPI    C311875  18.462   7.533   4.649 -0.0711  0.1637 -0.0851
  806loPI   PO411876  18.790   7.413   5.199 -0.1999  0.1772 -0.1370
  806loPI   GL111877  18.734   7.452   5.612 -0.0177  0.1641 -0.2000
  806loPI   GL211878  18.964   7.558   5.669  0.0398 -0.0582  0.1844
  806loPI   C1A11879  18.645   7.420   6.055  0.0252  0.0921  0.1491
  806loPI   C2A11880  18.686   7.511   6.402  0.0494  0.3374 -0.0363
  806loPI   C3A11881  18.610   7.731   6.852  0.0513 -0.1408 -0.0872
  806loPI   C4A11882  18.605   8.076   7.102 -0.2191 -0.0549  0.1159
  806loPI   C5A11883  18.588   8.397   7.445 -0.1353  0.0342  0.3510
  806loPI   C6A11884  18.803   8.770   7.663 -0.1658 -0.0517 -0.1825
  806loPI   C1B11885  19.132   7.570   6.026 -0.1235 -0.1142 -0.0701
  806loPI   C2B11886  19.549   7.356   6.181  0.1348 -0.0616 -0.0575
  806loPI   C3B11887  19.621   7.034   6.408  0.0143 -0.0119  0.1286
  806loPI   C4B11888  19.760   6.611   6.440 -0.1219  0.1080 -0.0893
  807loPI    C111889  12.319   5.484   4.955 -0.0331  0.0275  0.0509
  807loPI    C211890  12.636   5.656   5.126 -0.0896  0.3661 -0.1740
  807loPI    C311891  12.613   5.257   5.103  0.1399  0.3276  0.1756
  807loPI   PO411892  12.138   5.645   5.060  0.1340  0.0216  0.0404
  807loPI   GL111893  12.101   5.900   5.390  0.4081 -0.2441  0.0367
  807loPI   GL211894  12.436   6.003   5.514  0.2111 -0.3727 -0.0164
  807loPI   C1A11895  11.635   6.030   5.463  0.1941 -0.0673  0.0687
  807loPI   C2A11896  11.472   6.310   5.723  0.2353  0.1082  0.2369
  807loPI   C3A11897  11.285   6.499   6.105  0.4052  0.0421  0.0808
  807loPI   C4A11898  11.332   6.360   6.582  0.0585  0.1001 -0.1592
  807loPI   C5A11899  11.264   6.087   6.966  0.0452 -0.0031  0.0963
  807loPI   C6A11900  11.202   5.952   7.326  0.0244 -0.1614  0.0921
  807loPI   C1B11901  12.402   5.834   5.984 -0.0652 -0.1219 -0.2695
  807loPI   C2B11902  12.589   5.956   6.420 -0.2761  0.1389  0.0349
  807loPI   C3B11903  12.628   5.722   6.821  0.2131  0.3084 -0.4656
  807loPI   C4B11904  12.831   5.378   7.022 -0.1876  0.2183  0.0915
  808loPI    C111905  17.680   4.590   4.886 -0.1932  0.1852  0.0609
  808loPI    C211906  17.943   4.669   4.595 -0.1739  0.0089  0.0295
  808loPI    C311907  17.552   4.723   4.532 -0.1579  0.1156  0.0217
  808loPI   PO411908  17.706   4.357   4.920  0.0616 -0.0399  0.1039
  808loPI   GL111909  17.796   4.292   5.322  0.2938  0.1227  0.4839
  808loPI   GL211910  17.646   3.989   5.265 -0.2080  0.4549  0.0118
  808loPI   C1A11911  18.155   4.222   5.644 -0.0025  0.1428 -0.0965
  808loPI   C2A11912  18.274   4.270   6.055 -0.0851 -0.0788 -0.2501
  808loPI   C3A11913  18.345   4.583   6.370  0.1053 -0.1256  0.0402
  808loPI   C4A11914  18.286   4.577   6.827  0.1772 -0.1172 -0.3116
  808loPI   C5A11915  17.968   4.514   7.037 -0.0584  0.0584 -0.3503
  808loPI   C6A11916  17.599   4.519   7.207  0.3574  0.0559 -0.1580
  808loPI   C1B11917  17.677   4.050   5.770  0.2386  0.1252  0.3591
  808loPI   C2B11918  17.910   3.814   6.022  0.2760 -0.0566 -0.0996
  808loPI   C3B11919  17.938   3.748   6.437  0.0780  0.1812 -0.1224
  808loPI   C4B11920  17.993   3.350   6.702 -0.0712  0.2851  0.0498
  809loPI    C111921   2.313  17.651   5.041  0.1381  0.0656 -0.0198
  809loPI    C211922   2.655  17.787   4.883  0.1661 -0.1791 -0.1759
  809loPI    C311923   2.602  17.394   4.937  0.0753 -0.1145  0.2401
  809loPI   PO411924   2.314  17.696   5.394  0.0392  0.0520  0.0603
  809loPI   GL111925   2.035  17.606   5.769  0.2128  0.2716 -0.1939
  809loPI   GL211926   1.734  17.735   5.716  0.2875 -0.2013 -0.1712
  809loPI   C1A11927   1.996  17.413   6.157 -0.1497 -0.1694  0.0211
  809loPI   C2A11928   2.111  17.447   6.635 -0.2198  0.1115 -0.1645
  809loPI   C3A11929   1.943  17.400   6.922 -0.0507  0.2499 -0.1784
  809loPI   C4A11930   1.917  17.411   7.340 -0.0495  0.0002 -0.1266
  809loPI   C5A11931   2.203  17.746   7.693 -0.0687  0.2771  0.3386
  809loPI   C6A11932   2.222  17.852   8.052  0.1535 -0.0429  0.0573
  809loPI   C1B11933   1.414  17.778   5.994 -0.1997  0.0811  0.4508
  809loPI   C2B11934   1.115  17.964   6.119  0.3761 -0.2252 -0.0887
  809loPI   C3B11935   0.922  18.389   6.423 -0.1712 -0.1921 -0.0675
  809loPI   C4B11936   0.934  18.569   6.935 -0.0788  0.3274  0.0620
  810loPI    C111937  13.106  13.287   4.894  0.0110  0.0035  0.0678
  810loPI    C211938  13.162  13.675   4.818  0.1122 -0.0499 -0.1378
  810loPI    C311939  12.847  13.485   4.662 -0.0209 -0.0163  0.0864
  810loPI   PO411940  13.177  13.267   5.139 -0.1723 -0.1002  0.3255
  810loPI   GL111941  12.860  13.276   5.425  0.1774  0.2971  0.1205
  810loPI   GL211942  12.911  13.623   5.243  0.3389  0.0546  0.1697
  810loPI   C1A11943  12.930  13.413   5.762 -0.1257  0.1782  0.0199
  810loPI   C2A11944  12.845  13.109   6.068 -0.1660 -0.0477  0.3586
  810loPI   C3A11945  12.760  12.812   6.396  0.0271 -0.3740  0.1707
  810loPI   C4A11946  12.569  12.644   6.878 -0.1734  0.0909  0.2450
  810loPI   C5A11947  12.486  12.555   7.338 -0.1820  0.0800  0.1571
  810loPI   C6A11948  12.536  12.177   7.588 -0.1248 -0.0022  0.1688
  810loPI   C1B11949  13.109  13.871   5.657 -0.3963  0.1933  0.0125
  810loPI   C2B11950  12.976  13.926   6.063  0.2172 -0.5144  0.0184
  810loPI   C3B11951  12.780  14.000   6.425  0.1156 -0.1162 -0.1742
  810loPI   C4B11952  12.833  14.295   6.810 -0.3709 -0.0754 -0.3103
  811loPI    C111953   2.634   4.367   5.200  0.0903  0.2717 -0.1470
  811loPI    C211954   2.319   4.264   4.977  0.0704 -0.0886  0.0409
  811loPI    C311955   2.439   4.645   4.988 -0.3666  0.0572 -0.0208
  811loPI   PO411956   2.596   4.271   5.501  0.4179  0.1762 -0.1302
  811loPI   GL111957   2.878   4.048   5.759  0.2041  0.2861  0.1796
  811loPI   GL211958   2.877   3.718   5.606 -0.2617 -0.0771  0.2049
  811loPI   C1A11959   2.740   4.317   6.135 -0.0048  0.2857 -0.0174
  811loPI   C2A11960   2.372   4.365   6.292 -0.3161  0.1230 -0.2570
  811loPI   C3A11961   2.329   4.488   6.683 -0.0975 -0.1048  0.1511
  811loPI   C4A11962   2.213   4.572   7.119 -0.1561 -0.0378  0.0189
  811loPI   C5A11963   2.063   4.867   7.487 -0.0067  0.0160 -0.0685
  811loPI   C6A11964   2.248   5.223   7.806 -0.1216 -0.0933  0.1049
  811loPI   C1B11965   2.720   3.677   6.025  0.1741  0.1363 -0.3748
  811loPI   C2B11966   2.792   3.657   6.435  0.2807  0.1827 -0.1979
  811loPI   C3B11967   2.815   3.498   6.839  0.1769  0.2322  0.3305
  811loPI   C4B11968   2.647   3.086   6.986  0.2431  0.1424 -0.0026
  812loPI    C111969  14.362  16.181   5.025 -0.0437 -0.1223  0.2106
  812loPI    C211970  14.199  15.982   4.718  0.0485 -0.0953  0.1436
  812loPI    C311971  14.552  16.164   4.673  0.0676 -0.1009  0.2696
  812loPI   PO411972  14.106  16.397   5.104 -0.2997 -0.2846 -0.3124
  812loPI   GL111973  13.883  16.587   5.420 -0.1675 -0.0430 -0.0974
  812loPI   GL211974  13.629  16.454   5.616  0.1082  0.0446  0.1187
  812loPI   C1A11975  14.020  16.852   5.769 -0.1225  0.2268 -0.0897
  812loPI   C2A11976  14.102  16.691   6.116 -0.1260 -0.2339  0.0176
  812loPI   C3A11977  14.126  16.729   6.454 -0.0664 -0.0132 -0.1277
  812loPI   C4A11978  14.495  16.610   6.625  0.0179  0.0721 -0.1111
  812loPI   C5A11979  14.705  16.494   6.821  0.1266  0.1749 -0.3121
  812loPI   C6A11980  14.995  16.265   6.985 -0.3259 -0.1938  0.0075
  812loPI   C1B11981  13.505  16.645   6.056 -0.0441  0.0593  0.1474
  812loPI   C2B11982  13.545  16.751   6.530  0.0227  0.3730 -0.1414
  812loPI   C3B11983  13.443  16.816   7.089 -0.4612  0.0568  0.0955
  812loPI   C4B11984  13.264  16.835   7.493  0.1983 -0.2658 -0.0652
  813loPI    C111985  12.353  10.139   5.260 -0.0468 -0.0457  0.1719
  813loPI    C211986  12.401  10.080   4.868 -0.1712  0.0056  0.1483
  813loPI    C311987  12.061   9.969   5.046 -0.0495 -0.1718  0.2743
  813loPI   PO411988  12.469  10.364   5.331 -0.1407  0.0185  0.1428
  813loPI   GL111989  12.643  10.441   5.717 -0.0408 -0.1047 -0.1197
  813loPI   GL211990  12.507  10.746   5.869 -0.2095  0.0968 -0.4127
  813loPI   C1A11991  12.531  10.330   6.225  0.0960 -0.1656 -0.0111
  813loPI   C2A11992  12.358  10.389   6.609 -0.0174 -0.1650 -0.1549
  813loPI   C3A11993  12.169  10.281   6.987  0.1559 -0.0954 -0.0929
  813loPI   C4A11994  11.816  10.310   7.221  0.1662 -0.0302 -0.0577
  813loPI   C5A11995  11.599  10.085   7.618  0.2134 -0.1125  0.1358
  813loPI   C6A11996  11.525   9.718   7.758  0.4763  0.0780 -0.0685
  813loPI   C1B11997  12.430  10.797   6.339 -0.0935 -0.0301 -0.1914
  813loPI   C2B11998  12.343  10.892   6.833  0.3043 -0.0975  0.2282
  813loPI   C3B11999  12.514  11.019   7.263 -0.0118 -0.0421  0.0769
  813loPI   C4B12000  12.676  11.315   7.597  0.1270 -0.1697 -0.2025
  814loPI    C112001  14.336  18.793   4.688 -0.1706  0.0318  0.0237
  814loPI    C212002  13.969  18.779   4.530 -0.0685 -0.0917 -0.2084
  814loPI    C312003  14.273  18.598   4.345  0.0163 -0.4273  0.2409
  814loPI   PO412004  14.194  18.731   4.971  0.3433  0.0769  0.0689
  814loPI   GL112005  13.944  18.756   5.264  0.0060 -0.3639 -0.0627
  814loPI   GL212006  14.174  18.541   5.422  0.2144 -0.0091 -0.0343
  814loPI   C1A12007  13.645  19.026   5.562 -0.0145  0.0988 -0.0669
  814loPI   C2A12008  13.541  19.171   5.979 -0.0627 -0.1853 -0.0048
  814loPI   C3A12009  13.496  19.004   6.431 -0.3334  0.2426  0.1546
  814loPI   C4A12010  13.716  18.705   6.598  0.0842  0.2219  0.0804
  814loPI   C5A12011  13.976  18.501   6.635  0.0276  0.1042  0.0692
  814loPI   C6A12012  13.983  18.073   6.730 -0.0355  0.3988 -0.0201
  814loPI   C1B12013  14.247  18.238   5.768  0.2020  0.0167  0.1380
  814loPI   C2B12014  14.264  18.318   6.197  0.0037  0.0448 -0.0322
  814loPI   C3B12015  14.466  18.144   6.722  0.1146  0.0798 -0.0320
  814loPI   C4B12016  14.455  18.018   7.203  0.1072  0.0031 -0.0678
  815loPI    C112017   6.870  10.223   5.240 -0.1009 -0.3675  0.0758
  815loPI    C212018   6.527  10.330   5.417 -0.0942  0.0181 -0.1320
  815loPI    C312019   6.528  10.216   5.033 -0.0225 -0.2247 -0.0616
  815loPI   PO412020   7.082  10.312   5.354  0.0915  0.1211  0.0925
  815loPI   GL112021   7.250  10.396   5.660  0.2032 -0.0603  0.0993
  815loPI   GL212022   7.151  10.051   5.818 -0.0974  0.0032  0.1452
  815loPI   C1A12023   7.276  10.476   6.078 -0.1840 -0.0765  0.3126
  815loPI   C2A12024   7.258  10.344   6.456 -0.1210  0.0795 -0.4350
  815loPI   C3A12025   7.265  10.233   6.791  0.2557  0.0379 -0.2940
  815loPI   C4A12026   7.156  10.018   7.252 -0.1389 -0.1838  0.2818
  815loPI   C5A12027   7.267  10.031   7.632  0.0510 -0.0876 -0.2456
  815loPI   C6A12028   7.605   9.815   7.848 -0.0233 -0.0702 -0.0681
  815loPI   C1B12029   7.403   9.943   6.114 -0.3197  0.0772  0.1339
  815loPI   C2B12030   7.641  10.003   6.485 -0.2474 -0.2293 -0.2432
  815loPI   C3B12031   7.752  10.041   7.008 -0.2243 -0.1717  0.5086
  815loPI   C4B12032   7.957   9.868   7.308  0.0959 -0.0421  0.0163
  816loPI    C112033   9.259  18.309   4.844 -0.0124 -0.2988 -0.0734
  816loPI    C212034   9.653  18.244   4.815  0.0645  0.0818  0.0518
  816loPI    C312035   9.451  18.394   4.503  0.0750  0.1592  0.0821
  816loPI   PO412036   9.204  18.418   5.081  0.1499 -0.0777  0.1209
  816loPI   GL112037   9.017  18.573   5.530  0.0538  0.2037 -0.0905
  816loPI   GL212038   8.781  18.443   5.700  0.0362 -0.0532  0.0404
  816loPI   C1A12039   9.178  18.384   5.963  0.1891  0.4081 -0.1595
  816loPI   C2A12040   9.140  18.418   6.404 -0.2926  0.2064 -0.1692
  816loPI   C3A12041   8.978  18.547   6.779  0.0961  0.1253 -0.2175
  816loPI   C4A12042   8.854  18.712   7.285 -0.2323  0.0554 -0.1056
  816loPI   C5A12043   9.008  18.596   7.706 -0.2750 -0.1065 -0.0431
  816loPI   C6A12044   8.814  18.391   8.007 -0.3631 -0.2452  0.1341
  816loPI   C1B12045   8.803  18.742   6.102  0.2350 -0.0070 -0.2705
  816loPI   C2B12046   8.579  18.728   6.503 -0.0816  0.0039  0.0085
  816loPI   C3B12047   8.473  18.760   6.965  0.2297 -0.0378  0.0734
  816loPI   C4B12048   8.400  18.863   7.386  0.0554 -0.1212  0.1945
  817loPI    C112049  15.717  10.182   5.022 -0.0771 -0.1267  0.2772
  817loPI    C212050  15.393  10.335   4.844 -0.0319 -0.1115  0.2076
  817loPI    C312051  15.547   9.989   4.716  0.2239  0.0856 -0.0309
  817loPI   PO412052  15.879  10.427   5.096  0.4136  0.2804  0.2718
  817loPI   GL112053  16.174  10.618   5.374  0.0212 -0.1900 -0.1425
  817loPI   GL212054  15.984  10.445   5.561 -0.3692 -0.0926 -0.1241
  817loPI   C1A12055  16.398  10.657   5.860  0.0306  0.0117 -0.1139
  817loPI   C2A12056  16.285  10.656   6.285 -0.2260 -0.2901  0.0942
  817loPI   C3A12057  16.242  10.771   6.717 -0.0594  0.0814 -0.1458
  817loPI   C4A12058  16.456  10.710   6.997  0.0219 -0.2578  0.0885
  817loPI   C5A12059  16.486  10.788   7.459  0.0288 -0.1119 -0.0575
  817loPI   C6A12060  16.464  10.669   7.893 -0.3285  0.3465 -0.1340
  817loPI   C1B12061  15.957  10.406   6.032 -0.1814  0.0142  0.4427
  817loPI   C2B12062  15.933  10.336   6.480  0.1723 -0.1438  0.4908
  817loPI   C3B12063  15.952  10.193   6.929  0.2644  0.0595  0.5045
  817loPI   C4B12064  16.017   9.835   7.315 -0.0395 -0.0263  0.0515
  818loPI    C112065   5.933   6.995   5.337  0.2726  0.1945  0.0064
  818loPI    C212066   5.779   7.079   5.697 -0.0342  0.0523 -0.0883
  818loPI    C312067   5.774   7.355   5.407  0.1566  0.1458 -0.0044
  818loPI   PO412068   6.161   6.880   5.426  0.1241 -0.1681  0.0601
  818loPI   GL112069   6.323   7.009   5.805  0.3441 -0.2031 -0.0216
  818loPI   GL212070   6.451   6.763   5.867  0.1670  0.2377  0.1073
  818loPI   C1A12071   6.290   7.115   6.180 -0.0024 -0.2038 -0.3310
  818loPI   C2A12072   6.472   7.305   6.551  0.1220 -0.3579  0.1446
  818loPI   C3A12073   6.628   7.400   7.013 -0.0350 -0.0046 -0.1992
  818loPI   C4A12074   6.839   7.634   7.454  0.0468 -0.1673 -0.1466
  818loPI   C5A12075   6.900   7.878   7.768  0.0421  0.1001  0.2048
  818loPI   C6A12076   6.759   8.187   8.050 -0.0079 -0.0390  0.0664
  818loPI   C1B12077   6.667   6.739   6.186  0.1301  0.0272  0.0175
  818loPI   C2B12078   6.965   6.930   6.460 -0.2978 -0.1255  0.0074
  818loPI   C3B12079   7.219   6.867   6.895  0.0090 -0.0950  0.0793
  818loPI   C4B12080   7.253   6.704   7.235 -0.0293 -0.0079  0.1646
  819loPI    C112081  12.330   8.806   5.072 -0.1695  0.2028  0.0321
  819loPI    C212082  12.027   8.589   4.927  0.0128 -0.1326  0.1440
  819loPI    C312083  12.302   8.739   4.679 -0.0868 -0.0694  0.0711
  819loPI   PO412084  12.383   8.720   5.336  0.0663  0.1667 -0.0768
  819loPI   GL112085  12.346   8.885   5.733 -0.0627 -0.1695 -0.0066
  819loPI   GL212086  12.276   8.558   5.817 -0.0740 -0.2178  0.1162
  819loPI   C1A12087  12.206   8.917   6.189  0.1657 -0.2885 -0.1591
  819loPI   C2A12088  12.008   8.841   6.601  0.0956  0.2065 -0.2545
  819loPI   C3A12089  11.826   8.744   6.911 -0.0304  0.0784 -0.1137
  819loPI   C4A12090  11.591   8.851   7.294 -0.0956 -0.2436 -0.1146
  819loPI   C5A12091  11.250   8.931   7.460  0.1198  0.0135 -0.1827
  819loPI   C6A12092  10.880   9.016   7.672  0.0150 -0.2076 -0.2110
  819loPI   C1B12093  12.187   8.409   6.308 -0.0673 -0.0244  0.0816
  819loPI   C2B12094  12.105   8.335   6.774 -0.0639  0.0247  0.0364
  819loPI   C3B12095  12.340   8.179   7.077 -0.0546 -0.0387 -0.2232
  819loPI   C4B12096  12.423   7.972   7.397 -0.0350  0.1846 -0.0302
  820loPI    C112097   9.138  17.403   5.207 -0.0055 -0.0414  0.0569
  820loPI    C212098   9.351  17.333   4.876  0.2754  0.3556  0.1468
  820loPI    C312099   9.300  17.042   5.146  0.0285  0.0225 -0.2471
  820loPI   PO412100   9.243  17.576   5.396 -0.0483  0.0104  0.4412
  820loPI   GL112101   9.142  17.843   5.786 -0.1510  0.0787  0.0812
  820loPI   GL212102   9.502  17.684   5.801  0.0488  0.0689 -0.0088
  820loPI   C1A12103   9.184  17.797   6.122  0.1699 -0.0701 -0.1563
  820loPI   C2A12104   9.070  17.913   6.559 -0.1484 -0.1765 -0.1254
  820loPI   C3A12105   9.053  18.072   6.873  0.1642  0.0549  0.2360
  820loPI   C4A12106   8.952  18.229   7.253 -0.2453  0.1338 -0.2934
  820loPI   C5A12107   9.095  18.142   7.641  0.1990  0.0656 -0.0564
  820loPI   C6A12108   8.996  17.733   7.903  0.1712 -0.0907 -0.0681
  820loPI   C1B12109   9.609  17.592   6.229  0.0826 -0.1287  0.0261
  820loPI   C2B12110   9.581  17.595   6.667 -0.2268  0.3357 -0.0594
  820loPI   C3B12111   9.493  17.881   7.106 -0.1789  0.0695 -0.1422
  820loPI   C4B12112   9.399  17.822   7.515 -0.0972 -0.3053 -0.2303
  821loPI    C112113   5.875  13.207   4.864  0.0875  0.0725 -0.2242
  821loPI    C212114   5.805  13.600   4.894  0.2029  0.0884 -0.1561
  821loPI    C312115   6.088  13.466   4.645 -0.0647  0.0244 -0.4329
  821loPI   PO412116   5.915  13.070   5.125  0.1153  0.0895 -0.0191
  821loPI   GL112117   6.270  13.030   5.395 -0.1107 -0.0792  0.0039
  821loPI   GL212118   6.607  13.002   5.394 -0.0233 -0.1653  0.2713
  821loPI   C1A12119   6.127  13.132   5.739  0.1912 -0.0653 -0.1817
  821loPI   C2A12120   6.006  13.189   6.138 -0.0744 -0.3925  0.0682
  821loPI   C3A12121   6.219  13.334   6.482  0.0164  0.0687  0.1865
  821loPI   C4A12122   6.098  13.137   6.847  0.2819 -0.0291 -0.0593
  821loPI   C5A12123   6.165  12.897   7.300 -0.2151  0.2592  0.1810
  821loPI   C6A12124   6.097  12.641   7.704 -0.2343  0.1270 -0.0505
  821loPI   C1B12125   6.481  12.728   5.678  0.0153  0.1488 -0.0770
  821loPI   C2B12126   6.286  12.765   6.105 -0.0429 -0.0887  0.1126
  821loPI   C3B12127   6.139  12.738   6.516  0.1328 -0.1217 -0.0044
  821loPI   C4B12128   6.374  12.590   6.755 -0.1464 -0.4093  0.0028
  822loPI    C112129   0.257   5.388   5.086 -0.0674  0.0716 -0.3138
  822loPI    C212130   0.525   5.515   5.354 -0.1618  0.0142 -0.1912
  822loPI    C312131   0.580   5.591   4.966  0.2097 -0.2953 -0.2059
  822loPI   PO412132   0.024   5.491   5.159 -0.1342  0.0065 -0.4968
  822loPI   GL112133   0.092   5.716   5.490  0.0777 -0.0387  0.1789
  822loPI   GL212134   0.085   5.424   5.638  0.2121 -0.0275 -0.0292
  822loPI   C1A12135   0.295   5.736   5.954  0.3669  0.1722 -0.2418
  822loPI   C2A12136   0.419   5.727   6.328 -0.1582  0.1136 -0.2228
  822loPI   C3A12137   0.458   5.741   6.785 -0.3030  0.3292  0.0531
  822loPI   C4A12138   0.503   5.996   7.111 -0.1762  0.1441  0.1805
  822loPI   C5A12139   0.424   6.241   7.416 -0.1333 -0.2801 -0.0016
  822loPI   C6A12140   0.289   6.491   7.722  0.2908  0.0085 -0.2976
  822loPI   C1B12141   0.037   5.296   6.028  0.0413  0.2527 -0.3963
  822loPI   C2B12142   0.159   5.325   6.446 -0.0728  0.0553 -0.1717
  822loPI   C3B12143   0.079   5.349   6.916  0.0386  0.1049 -0.0883
  822loPI   C4B12144   0.231   5.119   7.291 -0.1129  0.1462 -0.1531
  823loPI    C112145  12.406  16.816   4.782  0.1867  0.1330  0.2272
  823loPI    C212146  12.288  16.955   4.425 -0.0443  0.2223  0.3364
  823loPI    C312147  12.667  16.840   4.480 -0.0360  0.0951  0.0286
  823loPI   PO412148  12.223  16.987   5.006  0.1489  0.0937 -0.1860
  823loPI   GL112149  12.017  17.147   5.406  0.0899 -0.1693  0.0031
  823loPI   GL212150  11.808  16.876   5.379 -0.2740  0.0930 -0.1975
  823loPI   C1A12151  12.141  16.923   5.807  0.0287  0.1246  0.0808
  823loPI   C2A12152  12.273  17.098   6.225  0.1164  0.3271  0.0603
  823loPI   C3A12153  12.336  16.958   6.545 -0.2529  0.0596 -0.0785
  823loPI   C4A12154  12.434  16.680   6.824  0.1428 -0.0808 -0.0246
  823loPI   C5A12155  12.352  16.308   7.054  0.0221 -0.0732  0.1575
  823loPI   C6A12156  12.430  15.860   6.973  0.2611 -0.0081 -0.5073
  823loPI   C1B12157  11.714  16.648   5.798 -0.0905 -0.2367 -0.4326
  823loPI   C2B12158  11.610  16.408   6.187  0.0916  0.0434 -0.3241
  823loPI   C3B12159  11.492  16.220   6.543 -0.2311 -0.0351  0.2307
  823loPI   C4B12160  11.562  16.457   7.014 -0.3753  0.0266  0.1674
  824loPI    C112161   6.176   0.598   5.454 -0.1032 -0.2358 -0.1959
  824loPI    C212162   6.468   0.863   5.522 -0.0344 -0.3728  0.0565
  824loPI    C312163   6.392   0.740   5.149  0.0036 -0.0805 -0.0500
  824loPI   PO412164   6.273   0.354   5.614  0.1380  0.1608  0.2004
  824loPI   GL112165   6.131   0.320   6.022 -0.0696  0.0465  0.0953
  824loPI   GL212166   6.215   0.640   6.006  0.0994 -0.2083 -0.0546
  824loPI   C1A12167   6.186   0.458   6.473  0.3599  0.3207 -0.0177
  824loPI   C2A12168   6.210   0.403   6.827  0.0025 -0.1075  0.0784
  824loPI   C3A12169   6.234   0.461   7.264  0.0357  0.2341  0.1412
  824loPI   C4A12170   6.319   0.385   7.719  0.1687  0.0410  0.1246
  824loPI   C5A12171   6.700   0.326   7.866  0.4816 -0.2330 -0.0133
  824loPI   C6A12172   7.022   0.398   8.184 -0.1679  0.1382 -0.1774
  824loPI   C1B12173   5.981   0.863   6.322  0.0931  0.0534 -0.4329
  824loPI   C2B12174   5.771   1.035   6.724  0.4443 -0.1241 -0.0471
  824loPI   C3B12175   5.393   0.999   7.061  0.0799 -0.0418 -0.0872
  824loPI   C4B12176   5.401   1.000   7.534 -0.2348 -0.0839  0.1413
  825loPI    C112177  15.654  14.032   4.859 -0.1773 -0.0895  0.0517
  825loPI    C212178  15.706  13.773   4.558 -0.0742  0.1568 -0.1458
  825loPI    C312179  15.508  14.115   4.496  0.2431  0.3681 -0.0240
  825loPI   PO412180  15.874  14.035   5.000 -0.1982  0.1886 -0.1448
  825loPI   GL112181  16.011  14.138   5.430 -0.1004  0.4568 -0.0525
  825loPI   GL212182  15.887  13.872   5.599 -0.0172 -0.2394  0.0177
  825loPI   C1A12183  15.906  14.578   5.615  0.2312 -0.0935  0.1127
  825loPI   C2A12184  16.050  14.553   6.042 -0.2526  0.0401 -0.3106
  825loPI   C3A12185  16.238  14.531   6.380 -0.0111 -0.0450  0.1844
  825loPI   C4A12186  16.417  14.394   6.727 -0.1871 -0.0327  0.0934
  825loPI   C5A12187  16.344  13.983   7.002  0.1952 -0.0168 -0.0508
  825loPI   C6A12188  16.437  13.575   7.063  0.1341  0.1399  0.1073
  825loPI   C1B12189  15.883  14.052   6.061 -0.2150  0.1093 -0.0650
  825loPI   C2B12190  15.825  14.269   6.440  0.2995 -0.0874 -0.1825
  825loPI   C3B12191  15.948  14.143   6.793  0.1424  0.1538  0.2047
  825loPI   C4B12192  15.705  13.989   7.172 -0.2170  0.2200  0.1232
  826loPI    C112193   7.093   8.442   5.244  0.0934 -0.0539  0.1152
  826loPI    C212194   6.843   8.379   5.550  0.1686  0.0719  0.2033
  826loPI    C312195   6.720   8.314   5.175  0.0977 -0.1493  0.2632
  826loPI   PO412196   7.242   8.689   5.402  0.0391 -0.0661 -0.0129
  826loPI   GL112197   7.046   9.038   5.716 -0.1895  0.3631 -0.0336
  826loPI   GL212198   7.222   8.766   5.863 -0.2030  0.0157  0.0583
  826loPI   C1A12199   6.898   9.106   6.120 -0.3175  0.2914 -0.3217
  826loPI   C2A12200   6.968   8.852   6.363 -0.0427  0.2270 -0.0697
  826loPI   C3A12201   6.986   8.528   6.438  0.0686 -0.0410  0.2057
  826loPI   C4A12202   7.024   8.406   6.925 -0.0108  0.0685 -0.0090
  826loPI   C5A12203   7.220   8.690   7.304 -0.1334 -0.1058 -0.1720
  826loPI   C6A12204   7.229   9.057   7.555  0.0231  0.2017 -0.2329
  826loPI   C1B12205   7.124   8.370   5.925 -0.0975  0.3426  0.4115
  826loPI   C2B12206   6.734   8.132   6.205  0.1319  0.1238 -0.0553
  826loPI   C3B12207   6.707   8.101   6.562  0.2611 -0.1588  0.0304
  826loPI   C4B12208   6.559   8.300   6.998  0.0916  0.2162  0.0677
  827loPI    C112209   5.292  16.823   5.109 -0.1007 -0.1768  0.1838
  827loPI    C212210   4.985  16.834   4.853 -0.1184  0.0779  0.2139
  827loPI    C312211   5.317  17.045   4.778  0.0888 -0.2686  0.1350
  827loPI   PO412212   5.226  16.848   5.269  0.0009 -0.0515  0.0670
  827loPI   GL112213   5.111  16.729   5.610  0.2743  0.0429  0.1026
  827loPI   GL212214   5.162  16.987   5.821 -0.0229  0.1790  0.1204
  827loPI   C1A12215   5.068  16.529   6.040  0.0214  0.1975  0.0326
  827loPI   C2A12216   4.999  16.486   6.469 -0.1017 -0.0231 -0.0352
  827loPI   C3A12217   4.868  16.430   6.809 -0.2252  0.1300 -0.3641
  827loPI   C4A12218   4.813  16.163   7.149  0.0516 -0.0437 -0.0500
  827loPI   C5A12219   4.959  15.995   7.492 -0.1548  0.2785  0.4180
  827loPI   C6A12220   5.095  16.008   7.903  0.0563  0.1627  0.0742
  827loPI   C1B12221   4.987  17.039   6.186  0.1947  0.3393 -0.0666
  827loPI   C2B12222   4.814  17.228   6.427  0.1026 -0.2731 -0.0348
  827loPI   C3B12223   4.650  17.366   6.806 -0.0211  0.2536  0.2487
  827loPI   C4B12224   4.815  17.465   7.250  0.1667  0.0009  0.1884
  828loPI    C112225  16.652  14.127   4.603 -0.2154  0.2826 -0.3179
  828loPI    C212226  16.918  14.017   4.325 -0.0565  0.2277 -0.1462
  828loPI    C312227  16.532  13.919   4.283  0.0323 -0.1361 -0.1454
  828loPI   PO412228  16.690  14.443   4.634 -0.1022  0.0559 -0.3641
  828loPI   GL112229  16.914  14.695   4.818 -0.2540 -0.5122 -0.3212
  828loPI   GL212230  17.127  14.851   4.892 -0.0337 -0.2291 -0.2252
  828loPI   C1A12231  16.789  14.703   5.206 -0.0696  0.1298  0.3975
  828loPI   C2A12232  16.824  14.670   5.566  0.1788 -0.0284  0.0714
  828loPI   C3A12233  16.983  14.866   5.882  0.1025  0.0470 -0.3629
  828loPI   C4A12234  17.141  14.969   6.289 -0.3496 -0.0045 -0.2351
  828loPI   C5A12235  17.146  14.990   6.695  0.3182 -0.0362 -0.1333
  828loPI   C6A12236  17.268  15.361   6.950  0.0046  0.1945 -0.1509
  828loPI   C1B12237  17.227  14.933   5.294 -0.3307  0.0550 -0.2782
  828loPI   C2B12238  17.165  15.312   5.682 -0.0092 -0.1522 -0.0166
  828loPI   C3B12239  17.114  15.409   6.024  0.1951  0.2159  0.1558
  828loPI   C4B12240  17.023  15.475   6.484  0.2398 -0.1749  0.0963
  829loPI    C112241  14.403  10.029   5.350  0.0850 -0.0718 -0.0050
  829loPI    C212242  14.338   9.939   4.965 -0.0635 -0.0500  0.0146
  829loPI    C312243  14.699  10.064   5.083 -0.0457  0.0437 -0.1367
  829loPI   PO412244  14.278   9.796   5.478  0.0262 -0.2481 -0.1204
  829loPI   GL112245  14.391   9.660   5.852  0.0216  0.0577  0.1714
  829loPI   GL212246  14.073   9.579   5.942 -0.2045  0.0002  0.1247
  829loPI   C1A12247  14.388   9.873   6.265  0.4266  0.2234 -0.2388
  829loPI   C2A12248  14.356  10.201   6.611  0.1584  0.1350  0.1275
  829loPI   C3A12249  14.719  10.414   6.768 -0.2329  0.0913 -0.0949
  829loPI   C4A12250  14.751  10.691   7.220  0.0047  0.2812  0.2929
  829loPI   C5A12251  14.755  10.997   7.640  0.2471  0.1117  0.0980
  829loPI   C6A12252  14.905  11.228   7.924  0.3089  0.2212 -0.1931
  829loPI   C1B12253  13.958   9.559   6.376  0.2057  0.0047 -0.0584
  829loPI   C2B12254  13.949   9.616   6.772  0.2701  0.0116 -0.1650
  829loPI   C3B12255  13.944   9.583   7.231 -0.1438 -0.1033  0.0204
  829loPI   C4B12256  14.011   9.110   7.356 -0.1720 -0.2284  0.1278
  830loPI    C112257  10.411  16.654   4.921  0.1877 -0.3005 -0.2188
  830loPI    C212258  10.777  16.801   4.853  0.0464  0.1605 -0.0224
  830loPI    C312259  10.534  16.718   4.546  0.3445 -0.2434 -0.1587
  830loPI   PO412260  10.439  16.527   5.169 -0.0373 -0.3262 -0.0913
  830loPI   GL112261  10.438  16.333   5.456 -0.0344  0.1881 -0.2629
  830loPI   GL212262  10.364  16.388   5.791  0.3099 -0.0585  0.1299
  830loPI   C1A12263  10.891  16.375   5.707  0.1953  0.0185  0.2331
  830loPI   C2A12264  11.093  16.431   6.084 -0.0600  0.1125  0.3414
  830loPI   C3A12265  11.024  16.439   6.471 -0.2242  0.1390  0.0006
  830loPI   C4A12266  11.087  16.348   6.892  0.0147  0.1214  0.1155
  830loPI   C5A12267  11.289  16.088   7.158 -0.0009  0.1009  0.4188
  830loPI   C6A12268  11.321  15.626   7.136 -0.1773 -0.1871  0.0224
  830loPI   C1B12269  10.510  16.396   6.148 -0.0280 -0.1918  0.0343
  830loPI   C2B12270  10.473  16.316   6.549  0.0544 -0.4244  0.0920
  830loPI   C3B12271  10.571  16.191   6.923  0.1006  0.1486  0.1045
  830loPI   C4B12272  10.696  16.319   7.338  0.1582  0.0353  0.1269
  831loPI    C112273   6.129  14.401   4.840 -0.0393 -0.0630  0.1382
  831loPI    C212274   6.187  14.759   4.673 -0.1862 -0.2846 -0.4106
  831loPI    C312275   6.496  14.560   4.830 -0.1346  0.1559  0.0734
  831loPI   PO412276   5.962  14.399   5.118 -0.0945  0.2408  0.3552
  831loPI   GL112277   5.877  14.512   5.555  0.1052  0.3358 -0.0989
  831loPI   GL212278   6.173  14.498   5.564 -0.0886 -0.0517  0.0499
  831loPI   C1A12279   5.622  14.609   5.887 -0.0523 -0.1843 -0.1571
  831loPI   C2A12280   5.683  14.655   6.389  0.1845  0.2327 -0.0073
  831loPI   C3A12281   5.624  14.627   6.832 -0.1191 -0.2343 -0.0375
  831loPI   C4A12282   5.606  14.524   7.217  0.0814  0.1111  0.0657
  831loPI   C5A12283   5.394  14.632   7.615  0.3663  0.3102  0.0196
  831loPI   C6A12284   5.579  14.620   8.051  0.2964  0.4475  0.1007
  831loPI   C1B12285   6.092  14.669   6.061  0.0687  0.2790 -0.1352
  831loPI   C2B12286   6.146  14.688   6.595 -0.3929 -0.0713 -0.2664
  831loPI   C3B12287   6.095  14.838   6.964  0.1533 -0.0329 -0.0634
  831loPI   C4B12288   5.978  14.920   7.340 -0.0125 -0.1407 -0.2317
  832loPI    C112289   2.564  18.644   5.226  0.0234  0.1692  0.0816
  832loPI    C212290   2.686  18.974   5.035 -0.0662  0.0432 -0.1984
  832loPI    C312291   2.955  18.719   5.185  0.0036  0.2012 -0.0507
  832loPI   PO412292   2.398  18.662   5.415 -0.0685 -0.2104  0.0146
  832loPI   GL112293   2.323  18.950   5.706 -0.0940 -0.0178 -0.1666
  832loPI   GL212294   2.427  18.727   5.920 -0.0464 -0.2278  0.0724
  832loPI   C1A12295   2.154  19.180   6.121  0.0908  0.1305 -0.2618
  832loPI   C2A12296   2.118  19.239   6.541 -0.0443 -0.3262  0.1061
  832loPI   C3A12297   2.240  19.608   6.823  0.0507  0.0779  0.2814
  832loPI   C4A12298   2.193  19.755   7.213  0.1595  0.1499  0.0213
  832loPI   C5A12299   1.790  19.731   7.450 -0.1915 -0.1831 -0.2264
  832loPI   C6A12300   1.493  19.587   7.662 -0.3299  0.2357  0.2645
  832loPI   C1B12301   2.271  18.605   6.300  0.0278  0.2317 -0.5704
  832loPI   C2B12302   2.007  18.371   6.562  0.2861 -0.2723  0.1424
  832loPI   C3B12303   1.741  18.211   6.822 -0.1287  0.1965  0.2296
  832loPI   C4B12304   1.629  18.250   7.205  0.0761  0.2166  0.1218
  833loPI    C112305  17.114   2.685   4.713 -0.0520 -0.0527 -0.0084
  833loPI    C212306  16.924   2.368   4.561 -0.1605 -0.0303  0.0793
  833loPI    C312307  17.094   2.635   4.317 -0.1032 -0.1346  0.0042
  833loPI   PO412308  17.197   2.547   4.965  0.0015  0.3305  0.1112
  833loPI   GL112309  17.067   2.499   5.405 -0.1133 -0.0109 -0.1355
  833loPI   GL212310  16.916   2.782   5.541  0.2763  0.0459 -0.2417
  833loPI   C1A12311  17.257   2.522   5.899 -0.2389  0.0302 -0.0290
  833loPI   C2A12312  17.323   2.484   6.294 -0.2143 -0.0214 -0.1342
  833loPI   C3A12313  17.368   2.519   6.717  0.0334 -0.1636  0.0055
  833loPI   C4A12314  17.122   2.722   7.076  0.1642  0.1517 -0.3003
  833loPI   C5A12315  16.676   2.721   7.247 -0.0354  0.3111 -0.1597
  833loPI   C6A12316  16.506   3.074   7.332 -0.0784 -0.1676 -0.0754
  833loPI   C1B12317  17.054   2.954   6.029  0.1028  0.0557  0.1528
  833loPI   C2B12318  17.125   2.907   6.436  0.3979  0.1129 -0.0698
  833loPI   C3B12319  17.278   3.110   6.722 -0.1330 -0.0550  0.0445
  833loPI   C4B12320  17.414   3.353   7.124  0.1601 -0.0580  0.1036
  834loPI    C112321   9.484  10.389   4.997  0.1098  0.0277 -0.0172
  834loPI    C212322   9.412  10.279   4.619 -0.2241 -0.1636  0.0974
  834loPI    C312323   9.312  10.646   4.743 -0.0932 -0.0928 -0.0044
  834loPI   PO412324   9.442  10.178   5.116  0.0885 -0.2782  0.2413
  834loPI   GL112325   9.225  10.070   5.425 -0.1614  0.0469 -0.0964
  834loPI   GL212326   9.104   9.814   5.588  0.1819 -0.1037  0.0914
  834loPI   C1A12327   9.099  10.239   5.894 -0.0141 -0.0166 -0.3344
  834loPI   C2A12328   8.839  10.047   6.134 -0.0292  0.2036 -0.1182
  834loPI   C3A12329   8.639  10.015   6.527 -0.2475  0.0488  0.3111
  834loPI   C4A12330   8.641   9.919   6.970 -0.1012  0.0583  0.1190
  834loPI   C5A12331   8.504  10.186   7.340  0.0516  0.0871 -0.1167
  834loPI   C6A12332   8.190  10.225   7.670 -0.1429 -0.2630 -0.0198
  834loPI   C1B12333   9.284   9.804   6.032  0.1955 -0.1736 -0.0976
  834loPI   C2B12334   9.369  10.160   6.282 -0.0381 -0.2747  0.0182
  834loPI   C3B12335   9.324  10.580   6.442  0.1175  0.1305 -0.0737
  834loPI   C4B12336   9.094  10.952   6.414  0.2495 -0.0570  0.4140
  835loPI    C112337   1.149   4.777   5.181 -0.0165 -0.0325 -0.0728
  835loPI    C212338   1.466   4.814   4.940  0.1651 -0.0690  0.1566
  835loPI    C312339   1.096   4.838   4.789  0.2751  0.1336 -0.0890
  835loPI   PO412340   1.249   4.839   5.423  0.1737  0.0134  0.2663
  835loPI   GL112341   1.133   4.734   5.832  0.0068  0.1866 -0.0954
  835loPI   GL212342   0.943   5.102   5.830  0.2005 -0.1159  0.0549
  835loPI   C1A12343   1.147   4.535   6.263 -0.0213  0.1024 -0.0883
  835loPI   C2A12344   1.166   4.465   6.629  0.0032  0.0959 -0.0996
  835loPI   C3A12345   1.245   4.565   7.075 -0.2706 -0.0445 -0.1044
  835loPI   C4A12346   0.990   4.445   7.450 -0.2681  0.3659 -0.1631
  835loPI   C5A12347   0.846   4.356   7.875 -0.0584 -0.0073 -0.1919
  835loPI   C6A12348   0.954   4.078   8.302 -0.0130 -0.0390 -0.3137
  835loPI   C1B12349   1.132   5.052   6.221  0.2051  0.0453  0.3150
  835loPI   C2B12350   0.990   4.915   6.722  0.2498 -0.1080  0.0923
  835loPI   C3B12351   0.714   4.836   7.158 -0.4198 -0.2249  0.1913
  835loPI   C4B12352   0.591   4.679   7.550 -0.4335  0.2058 -0.3438
  836loPI    C112353   8.120   3.947   5.285 -0.2097  0.1526 -0.0474
  836loPI    C212354   8.128   3.712   4.962 -0.3052  0.0956 -0.0086
  836loPI    C312355   8.087   4.108   4.920 -0.2230  0.0978 -0.0704
  836loPI   PO412356   8.351   3.959   5.385 -0.0478 -0.0709 -0.2238
  836loPI   GL112357   8.569   4.014   5.777 -0.3976  0.0679  0.2997
  836loPI   GL212358   8.814   4.340   5.716 -0.3331 -0.1708  0.2350
  836loPI   C1A12359   8.384   3.829   6.192  0.2583  0.1488 -0.1190
  836loPI   C2A12360   8.113   3.525   6.589  0.0256 -0.1360 -0.0015
  836loPI   C3A12361   8.152   3.411   7.072  0.0967  0.0797  0.0269
  836loPI   C4A12362   8.511   3.488   7.365 -0.1049 -0.0426  0.2833
  836loPI   C5A12363   8.537   3.614   7.775  0.0334 -0.0560  0.0159
  836loPI   C6A12364   8.157   3.761   7.834 -0.1067  0.0010  0.0806
  836loPI   C1B12365   8.976   4.317   6.036 -0.2262 -0.1128 -0.2347
  836loPI   C2B12366   9.278   4.283   6.380  0.2864  0.1699 -0.2940
  836loPI   C3B12367   9.287   4.382   6.696 -0.1616  0.0907 -0.1743
  836loPI   C4B12368   9.479   4.486   7.018 -0.3191 -0.1420  0.1070
  837loPI    C112369   6.454   4.744   4.851  0.0261 -0.2005 -0.2601
  837loPI    C212370   6.601   4.372   4.838 -0.0329 -0.2221 -0.3144
  837loPI    C312371   6.400   4.519   4.525  0.1681 -0.0707 -0.3748
  837loPI   PO412372   6.335   4.714   5.052 -0.3214 -0.1947  0.2749
  837loPI   GL112373   6.306   4.696   5.484  0.1736 -0.2254 -0.2332
  837loPI   GL212374   6.053   4.791   5.719  0.0596  0.0148 -0.0437
  837loPI   C1A12375   6.453   5.062   5.772 -0.1276  0.1107 -0.3657
  837loPI   C2A12376   6.421   5.291   6.111  0.0939 -0.4933 -0.0417
  837loPI   C3A12377   6.283   5.479   6.502 -0.0995 -0.1094  0.1856
  837loPI   C4A12378   6.162   5.708   6.872 -0.0217 -0.0256  0.1135
  837loPI   C5A12379   6.456   5.910   7.212  0.2779  0.0827 -0.1654
  837loPI   C6A12380   6.693   6.146   7.545  0.3175 -0.0631 -0.0820
  837loPI   C1B12381   6.049   4.982   6.132  0.1602 -0.0182  0.2944
  837loPI   C2B12382   6.028   5.067   6.532 -0.2085 -0.0378  0.3776
  837loPI   C3B12383   5.858   5.240   6.855  0.0287  0.1661 -0.0227
  837loPI   C4B12384   5.654   5.434   7.270  0.0083  0.2575 -0.1032
  838loPI    C112385  15.935   8.339   5.079 -0.0415  0.1008 -0.2002
  838loPI    C212386  16.233   8.270   4.821 -0.0568 -0.0186 -0.1865
  838loPI    C312387  15.894   8.438   4.693  0.0894  0.3015 -0.1641
  838loPI   PO412388  16.026   8.569   5.317 -0.0208  0.0554 -0.1097
  838loPI   GL112389  16.101   8.652   5.689 -0.1314 -0.2009 -0.0261
  838loPI   GL212390  16.384   8.489   5.742  0.1109 -0.2097 -0.0309
  838loPI   C1A12391  16.226   9.024   5.998  0.0900 -0.1876  0.0506
  838loPI   C2A12392  16.212   8.938   6.476  0.0108  0.1679  0.1237
  838loPI   C3A12393  16.014   9.147   6.818 -0.2327 -0.1703  0.0247
  838loPI   C4A12394  16.259   9.079   7.184  0.4182 -0.2798 -0.1347
  838loPI   C5A12395  16.237   8.885   7.615 -0.3087 -0.1013  0.2231
  838loPI   C6A12396  16.292   8.659   8.010  0.0695  0.0237  0.0850
  838loPI   C1B12397  16.339   8.386   6.189 -0.2089 -0.0056 -0.1180
  838loPI   C2B12398  16.485   8.453   6.588  0.0267  0.0024  0.2266
  838loPI   C3B12399  16.556   8.776   6.847  0.1909  0.0624  0.0547
  838loPI   C4B12400  16.653   8.770   7.197  0.3004 -0.2251 -0.1840
  839loPI    C112401  17.334   6.438   5.226  0.2649  0.4348  0.1812
  839loPI    C212402  17.214   6.817   5.181 -0.5542  0.1574 -0.1607
  839loPI    C312403  17.217   6.570   4.867  0.1840 -0.0784  0.0117
  839loPI   PO412404  17.531   6.470   5.415  0.0286 -0.0661  0.3210
  839loPI   GL112405  17.802   6.337   5.736  0.3217 -0.0872  0.2074
  839loPI   GL212406  17.522   6.418   5.917  0.2898 -0.1740  0.0595
  839loPI   C1A12407  17.943   6.657   6.032  0.2331  0.0375 -0.1335
  839loPI   C2A12408  17.873   6.745   6.410  0.0906  0.0306  0.0199
  839loPI   C3A12409  17.992   6.840   6.857 -0.0198 -0.1481  0.0166
  839loPI   C4A12410  18.057   6.788   7.299  0.2744 -0.2531 -0.1420
  839loPI   C5A12411  17.870   6.655   7.678  0.1192  0.0043 -0.0101
  839loPI   C6A12412  17.486   6.678   7.698  0.2040 -0.2262 -0.0371
  839loPI   C1B12413  17.415   6.336   6.394  0.2836 -0.1461  0.1655
  839loPI   C2B12414  17.363   6.128   6.758 -0.0073 -0.1415 -0.0678
  839loPI   C3B12415  17.156   5.984   7.082 -0.1243  0.1486 -0.2832
  839loPI   C4B12416  17.211   5.950   7.567  0.2278  0.0221  0.0077
  840loPI    C112417  18.397  11.072   4.915 -0.0455  0.1211 -0.1502
  840loPI    C212418  18.259  11.446   4.955 -0.1714  0.0732 -0.1344
  840loPI    C312419  18.393  11.319   4.600  0.0881  0.2059 -0.0866
  840loPI   PO412420  18.566  11.139   5.184  0.1779 -0.4987 -0.1367
  840loPI   GL112421  18.833  11.167   5.482 -0.1161 -0.0880 -0.2651
  840loPI   GL212422  19.130  11.182   5.713 -0.1977  0.0511 -0.1329
  840loPI   C1A12423  18.680  10.949   5.929  0.2202  0.2771  0.1366
  840loPI   C2A12424  18.585  10.841   6.363  0.3448 -0.0554  0.0131
  840loPI   C3A12425  18.424  10.715   6.634 -0.3182  0.0424  0.1696
  840loPI   C4A12426  18.275  10.642   7.064 -0.1071 -0.1013  0.2938
  840loPI   C5A12427  18.218  10.175   7.248 -0.0625  0.0713 -0.1700
  840loPI   C6A12428  18.073   9.695   7.325 -0.1432  0.0026  0.1190
  840loPI   C1B12429  19.181  11.057   6.054  0.1615  0.1874 -0.0024
  840loPI   C2B12430  19.399  11.122   6.374  0.3737 -0.0766  0.2989
  840loPI   C3B12431  19.334  11.099   6.817  0.1464 -0.3121  0.0884
  840loPI   C4B12432  19.659  11.310   7.031 -0.0270 -0.0643  0.0718
  841loPI    C112433  13.568  11.871   5.121  0.2591  0.3617 -0.0923
  841loPI    C212434  13.705  12.123   4.842  0.0738  0.2954 -0.2452
  841loPI    C312435  13.791  11.733   4.820  0.1095  0.2992 -0.1755
  841loPI   PO412436  13.651  11.941   5.348  0.2112  0.0210 -0.0879
  841loPI   GL112437  13.741  11.896   5.790  0.0772 -0.0634  0.0198
  841loPI   GL212438  13.732  11.614   5.918 -0.2743  0.0972 -0.1721
  841loPI   C1A12439  13.651  11.914   6.299 -0.0564  0.0182 -0.0432
  841loPI   C2A12440  13.715  11.980   6.754  0.2005  0.0185  0.3132
  841loPI   C3A12441  13.958  11.893   7.109  0.2971 -0.0262 -0.0558
  841loPI   C4A12442  14.153  12.132   7.474  0.4335  0.1795 -0.1965
  841loPI   C5A12443  14.483  12.443   7.769  0.0843 -0.0978 -0.1395
  841loPI   C6A12444  14.330  12.652   8.059 -0.1389 -0.1581 -0.0368
  841loPI   C1B12445  13.855  11.421   6.275 -0.0807  0.3442 -0.1844
  841loPI   C2B12446  13.967  11.551   6.697 -0.1370  0.4088 -0.0085
  841loPI   C3B12447  14.212  11.252   6.942 -0.1788 -0.2147 -0.0389
  841loPI   C4B12448  14.529  11.138   7.206 -0.0579 -0.0208  0.1498
  842loPI    C112449  11.061  14.728   4.440  0.1991  0.1349 -0.0669
  842loPI    C212450  10.858  14.918   4.151  0.1589  0.2199  0.0166
  842loPI    C312451  10.981  14.541   4.095  0.3599  0.3156 -0.2047
  842loPI   PO412452  10.952  14.691   4.669 -0.1345 -0.3032  0.1128
  842loPI   GL112453  10.917  14.674   5.128  0.1865 -0.0707 -0.2038
  842loPI   GL212454  11.125  14.303   5.180 -0.1813 -0.0139  0.1904
  842loPI   C1A12455  10.877  14.953   5.471 -0.0491  0.1711  0.1778
  842loPI   C2A12456  10.518  15.169   5.612  0.0676 -0.0577 -0.1272
  842loPI   C3A12457  10.313  15.469   5.838 -0.1119 -0.0644  0.0258
  842loPI   C4A12458  10.318  15.590   6.211  0.2849 -0.2879 -0.2269
  842loPI   C5A12459  10.534  15.238   6.545 -0.0842 -0.3308 -0.0060
  842loPI   C6A12460  10.864  15.312   6.767 -0.0324 -0.3001 -0.1929
  842loPI   C1B12461  11.061  14.464   5.633 -0.1008 -0.2538  0.0120
  842loPI   C2B12462  10.988  14.575   6.036 -0.2684  0.0340  0.2000
  842loPI   C3B12463  10.887  14.722   6.340  0.0281  0.2306 -0.1778
  842loPI   C4B12464  10.776  14.778   6.787 -0.0868 -0.0531 -0.0746
  843loPI    C112465   0.331   3.072   4.804  0.0157  0.1416  0.1518
  843loPI    C212466  -0.040   2.976   4.689  0.2682 -0.2573 -0.3735
  843loPI    C312467   0.130   3.313   4.556 -0.0860  0.2136  0.3021
  843loPI   PO412468   0.321   2.949   5.052  0.1553  0.1992 -0.0809
  843loPI   GL112469   0.575   2.754   5.493  0.1302  0.0341 -0.0394
  843loPI   GL212470   0.735   2.517   5.333  0.3208  0.0939 -0.0035
  843loPI   C1A12471   0.262   2.687   5.714  0.1320 -0.1316 -0.0820
  843loPI   C2A12472   0.072   2.359   6.024  0.1559  0.1862 -0.0813
  843loPI   C3A12473  -0.097   2.408   6.483  0.1129  0.2715  0.0599
  843loPI   C4A12474  -0.318   2.765   6.720 -0.0584 -0.0861  0.3235
  843loPI   C5A12475  -0.172   2.893   7.185  0.2716  0.1655  0.3281
  843loPI   C6A12476   0.027   2.993   7.547 -0.1906 -0.0107 -0.0029
  843loPI   C1B12477   1.026   2.398   5.596 -0.0759 -0.0997 -0.0243
  843loPI   C2B12478   1.059   2.304   6.070  0.0829  0.1822 -0.1672
  843loPI   C3B12479   0.916   2.109   6.440 -0.1431  0.3711  0.0200
  843loPI   C4B12480   0.977   1.768   6.787 -0.2079 -0.0166  0.0257
  844loPI    C112481  18.912  12.751   5.024 -0.1077  0.1859  0.1378
  844loPI    C212482  18.595  12.560   4.873 -0.0263  0.1393  0.0247
  844loPI    C312483  18.864  12.726   4.628  0.0902  0.0902  0.1186
  844loPI   PO412484  18.873  12.901   5.171 -0.1193 -0.0684  0.1974
  844loPI   GL112485  18.657  13.164   5.548 -0.3128  0.0461  0.3361
  844loPI   GL212486  18.795  13.598   5.492  0.2015  0.1610 -0.0766
  844loPI   C1A12487  18.530  13.142   5.977  0.2186  0.1871  0.0074
  844loPI   C2A12488  18.544  13.155   6.434 -0.1799  0.0050 -0.0464
  844loPI   C3A12489  18.384  13.053   6.837 -0.0575  0.2209 -0.0441
  844loPI   C4A12490  18.481  12.911   7.269 -0.2865 -0.2422 -0.2437
  844loPI   C5A12491  18.863  12.900   7.449  0.2289  0.1910 -0.0666
  844loPI   C6A12492  19.245  12.752   7.268  0.2177 -0.3164  0.0172
  844loPI   C1B12493  18.815  13.592   5.915  0.1690 -0.3638  0.2345
  844loPI   C2B12494  18.815  13.736   6.394  0.4236  0.0804  0.0155
  844loPI   C3B12495  18.714  13.463   6.849  0.3227 -0.0905  0.1187
  844loPI   C4B12496  18.748  13.399   7.293 -0.1398  0.0742  0.2082
  845loPI    C112497   6.799  12.185   4.961  0.3403  0.0725  0.0837
  845loPI    C212498   7.013  11.865   4.853 -0.0193 -0.0988 -0.1438
  845loPI    C312499   6.749  12.024   4.599  0.0142  0.2633  0.0397
  845loPI   PO412500   7.078  12.276   5.162 -0.1337 -0.3204 -0.1238
  845loPI   GL112501   7.083  12.394   5.598 -0.0318  0.0022  0.0465
  845loPI   GL212502   6.957  12.674   5.527 -0.0633  0.1755 -0.0319
  845loPI   C1A12503   6.906  12.167   5.938  0.0085  0.1482 -0.0179
  845loPI   C2A12504   7.148  12.230   6.402 -0.0654 -0.2238  0.0770
  845loPI   C3A12505   7.304  12.307   6.857 -0.0092 -0.0332  0.2334
  845loPI   C4A12506   7.392  12.091   7.125  0.1485  0.1630 -0.0627
  845loPI   C5A12507   7.338  11.742   7.416 -0.1310  0.1257  0.3712
  845loPI   C6A12508   7.506  11.352   7.662  0.0795  0.1838  0.1815
  845loPI   C1B12509   6.912  12.720   5.996  0.2457 -0.5395 -0.0880
  845loPI   C2B12510   7.092  13.109   6.195 -0.1608 -0.2602  0.2404
  845loPI   C3B12511   7.060  13.226   6.671  0.0775  0.1589  0.4470
  845loPI   C4B12512   7.015  13.424   7.074 -0.0802 -0.0129  0.2785
  846loPI    C112513   3.859  10.553   4.723  0.0275 -0.2081  0.0591
  846loPI    C212514   4.030  10.675   4.382 -0.0001 -0.0970  0.0848
  846loPI    C312515   4.109  10.311   4.526  0.3051 -0.0057  0.1560
  846loPI   PO412516   3.847  10.756   4.852 -0.0186  0.2716 -0.1445
  846loPI   GL112517   3.680  11.031   5.331 -0.0513  0.1552 -0.0769
  846loPI   GL212518   3.940  11.329   5.366  0.0552  0.0984 -0.0816
  846loPI   C1A12519   3.461  10.955   5.675 -0.0630 -0.0095 -0.0148
  846loPI   C2A12520   3.366  11.058   6.027 -0.0970 -0.0681  0.2225
  846loPI   C3A12521   3.359  11.311   6.368 -0.2367  0.1153 -0.0602
  846loPI   C4A12522   3.309  11.370   6.755 -0.0069  0.0581 -0.2613
  846loPI   C5A12523   3.192  11.271   7.227 -0.1522  0.1517  0.0681
  846loPI   C6A12524   2.905  11.218   7.632 -0.1481 -0.3311 -0.1259
  846loPI   C1B12525   4.193  11.413   5.809 -0.0867  0.1802 -0.1849
  846loPI   C2B12526   4.386  11.116   6.094 -0.1524  0.5408  0.3546
  846loPI   C3B12527   4.577  10.851   6.428 -0.0670 -0.0208 -0.0648
  846loPI   C4B12528   4.931  10.659   6.617 -0.1780  0.1813 -0.0690
  847loPI    C112529  14.381  12.445   5.230  0.0913 -0.1584  0.0591
  847loPI    C212530  14.040  12.241   5.182 -0.1397  0.1296  0.4213
  847loPI    C312531  14.208  12.426   4.870 -0.1707 -0.2299  0.1858
  847loPI   PO412532  14.327  12.572   5.395  0.1841 -0.0510  0.1699
  847loPI   GL112533  14.441  12.899   5.640  0.0908 -0.2140 -0.0434
  847loPI   GL212534  14.420  12.679   5.898 -0.0732 -0.1640 -0.1587
  847loPI   C1A12535  14.419  13.133   6.080  0.0090  0.0118 -0.3349
  847loPI   C2A12536  14.158  13.160   6.486 -0.1929  0.0771 -0.1014
  847loPI   C3A12537  14.028  12.937   6.803  0.2638  0.1103  0.0173
  847loPI   C4A12538  13.822  12.926   7.214  0.2179  0.0739 -0.2689
  847loPI   C5A12539  13.625  13.286   7.451 -0.1378  0.0593  0.2339
  847loPI   C6A12540  13.311  13.700   7.458  0.3737  0.0632  0.0359
  847loPI   C1B12541  14.120  12.776   6.088  0.1218 -0.4885  0.1944
  847loPI   C2B12542  13.677  12.838   6.376  0.1555  0.1501 -0.1042
  847loPI   C3B12543  13.389  12.937   6.550  0.3403  0.2493  0.3610
  847loPI   C4B12544  13.106  12.608   6.745  0.2887 -0.1286 -0.0057
  848loPI    C112545  12.535  13.903   4.550  0.1814 -0.1205 -0.0528
  848loPI    C212546  12.243  14.166   4.476  0.1050 -0.1295  0.2095
  848loPI    C312547  12.275  13.835   4.253  0.1144  0.0301 -0.0297
  848loPI   PO412548  12.428  13.836   4.862  0.1063  0.0708  0.0618
  848loPI   GL112549  12.427  13.794   5.250 -0.1259  0.2395 -0.0629
  848loPI   GL212550  12.359  13.608   5.419  0.1782  0.3076  0.1558
  848loPI   C1A12551  12.559  14.152   5.566  0.0098 -0.1396 -0.2829
  848loPI   C2A12552  12.563  14.235   6.048 -0.1971 -0.1983 -0.2594
  848loPI   C3A12553  12.396  14.327   6.402  0.2430 -0.1440 -0.3140
  848loPI   C4A12554  12.119  14.354   6.684 -0.0830 -0.0388 -0.0086
  848loPI   C5A12555  12.007  14.299   7.113 -0.1132  0.0833 -0.0347
  848loPI   C6A12556  11.712  14.247   7.484 -0.0979  0.2964 -0.1460
  848loPI   C1B12557  12.536  13.754   5.838 -0.1970  0.4686 -0.1149
  848loPI   C2B12558  12.670  13.588   6.219 -0.3458 -0.0636 -0.0374
  848loPI   C3B12559  12.574  13.574   6.636 -0.0117 -0.0289  0.0713
  848loPI   C4B12560  12.177  13.503   6.887  0.0231  0.1281  0.2647
  849loPI    C112561   6.625  16.758   5.199 -0.0277 -0.1148 -0.1480
  849loPI    C212562   6.271  16.844   5.364 -0.0011 -0.2271 -0.0310
  849loPI    C312563   6.344  16.944   4.984  0.0487  0.3178  0.1137
  849loPI   PO412564   6.752  16.767   5.374  0.1115 -0.0290 -0.2382
  849loPI   GL112565   6.776  17.056   5.730 -0.2279  0.1792  0.0872
  849loPI   GL212566   6.491  16.957   5.789 -0.1231 -0.3003  0.2398
  849loPI   C1A12567   6.975  16.732   6.117  0.1300 -0.0528 -0.0049
  849loPI   C2A12568   7.209  16.614   6.469  0.1024 -0.2393 -0.1282
  849loPI   C3A12569   7.348  16.954   6.640 -0.1525 -0.0020 -0.0379
  849loPI   C4A12570   7.483  17.149   7.026 -0.2165  0.1246 -0.0994
  849loPI   C5A12571   7.651  17.146   7.472 -0.2742  0.1428  0.0588
  849loPI   C6A12572   7.433  16.935   7.830 -0.0245  0.1165  0.1907
  849loPI   C1B12573   6.378  16.972   6.209 -0.0029 -0.0492 -0.2802
  849loPI   C2B12574   6.286  16.965   6.615  0.1378  0.0550 -0.4621
  849loPI   C3B12575   6.518  16.882   7.004 -0.0852  0.1416  0.0488
  849loPI   C4B12576   6.532  16.872   7.449 -0.1270 -0.1708  0.0176
  850loPI    C112577   3.016  16.898   5.117 -0.0566 -0.1338 -0.0439
  850loPI    C212578   2.729  16.619   5.139 -0.2820  0.0814 -0.1973
  850loPI    C312579   2.799  16.807   4.793  0.2012 -0.1271 -0.2211
  850loPI   PO412580   2.975  17.057   5.302 -0.0461  0.1561  0.0503
  850loPI   GL112581   2.727  16.870   5.720  0.0241 -0.0031 -0.3515
  850loPI   GL212582   2.771  16.493   5.725  0.0477 -0.1120 -0.2770
  850loPI   C1A12583   2.433  16.855   5.999 -0.1705 -0.0140 -0.2873
  850loPI   C2A12584   2.255  16.998   6.330  0.0894 -0.2373 -0.1780
  850loPI   C3A12585   2.282  16.963   6.765  0.0905  0.3507 -0.0086
  850loPI   C4A12586   1.986  16.882   7.217  0.0183  0.1966  0.0967
  850loPI   C5A12587   1.959  16.788   7.560 -0.0563 -0.1760  0.0353
  850loPI   C6A12588   2.158  16.420   7.737 -0.3340 -0.2516 -0.0904
  850loPI   C1B12589   2.623  16.223   6.060 -0.1937  0.0609  0.2557
  850loPI   C2B12590   2.392  15.983   6.410 -0.2405  0.2928  0.0492
  850loPI   C3B12591   2.130  15.801   6.609 -0.0298  0.4182  0.0558
  850loPI   C4B12592   1.915  15.863   6.975 -0.1735 -0.0193 -0.0172
  851loPI    C112593   4.162   0.029   5.466  0.0196  0.0092 -0.1946
  851loPI    C212594   3.940  -0.302   5.433 -0.0203  0.0146  0.0071
  851loPI    C312595   3.936  -0.029   5.141 -0.2083 -0.0284 -0.0318
  851loPI   PO412596   4.110   0.160   5.646  0.0210 -0.0961 -0.1649
  851loPI   GL112597   4.175   0.504   5.910  0.2832 -0.0966  0.2435
  851loPI   GL212598   4.376   0.633   5.976  0.1545 -0.1475  0.1698
  851loPI   C1A12599   4.231   0.214   6.271  0.0283  0.0880 -0.4282
  851loPI   C2A12600   4.159   0.172   6.687  0.0785  0.0029  0.0328
  851loPI   C3A12601   3.947   0.543   6.944  0.1647  0.3436  0.1435
  851loPI   C4A12602   3.499   0.580   7.245 -0.1956 -0.1406 -0.1916
  851loPI   C5A12603   3.376   0.319   7.543  0.1607 -0.2703  0.0665
  851loPI   C6A12604   3.379   0.061   8.018  0.0831  0.0982  0.1443
  851loPI   C1B12605   4.158   0.669   6.356 -0.3915 -0.0858 -0.1359
  851loPI   C2B12606   4.519   0.499   6.765 -0.0719  0.1872 -0.0222
  851loPI   C3B12607   4.705   0.424   7.133  0.2230  0.1946  0.1268
  851loPI   C4B12608   4.573   0.261   7.521  0.1186  0.3893 -0.1684
  852loPI    C112609  10.330   6.489   5.015 -0.0587 -0.0598 -0.0224
  852loPI    C212610  10.148   6.628   4.687  0.1645 -0.0322 -0.1366
  852loPI    C312611  10.512   6.464   4.659  0.1294 -0.1499  0.0786
  852loPI   PO412612  10.159   6.339   5.201 -0.1425 -0.1801  0.1481
  852loPI   GL112613   9.969   6.090   5.545  0.1181 -0.1415 -0.0010
  852loPI   GL212614   9.761   6.107   5.438 -0.1656 -0.0633  0.2499
  852loPI   C1A12615   9.917   5.947   5.897 -0.3419 -0.1371 -0.3960
  852loPI   C2A12616   9.843   5.896   6.256  0.1371 -0.1164  0.1510
  852loPI   C3A12617   9.909   5.891   6.756 -0.1183  0.1330  0.0035
  852loPI   C4A12618  10.004   5.638   7.095  0.3426  0.0974 -0.0692
  852loPI   C5A12619   9.902   5.856   7.493 -0.1536 -0.0193  0.0393
  852loPI   C6A12620   9.885   6.311   7.728 -0.4758  0.0261 -0.1653
  852loPI   C1B12621   9.466   6.163   5.790  0.3237 -0.0081 -0.2617
  852loPI   C2B12622   9.393   6.104   6.232 -0.0238  0.5424 -0.0991
  852loPI   C3B12623   9.543   6.315   6.516 -0.2792 -0.0733  0.0891
  852loPI   C4B12624   9.507   6.631   6.977  0.0274  0.3387  0.1763
  853loPI    C112625  17.753   7.513   5.164 -0.0105 -0.1140 -0.0264
  853loPI    C212626  18.066   7.266   5.133  0.1770  0.1304 -0.1144
  853loPI    C312627  17.839   7.343   4.812  0.1458  0.1085 -0.0976
  853loPI   PO412628  17.801   7.626   5.391  0.2039 -0.1375 -0.1190
  853loPI   GL112629  17.604   7.625   5.771  0.4172  0.0142 -0.1232
  853loPI   GL212630  17.369   7.879   5.667 -0.2483 -0.0290 -0.1962
  853loPI   C1A12631  17.840   7.678   6.127  0.0257 -0.0629  0.2113
  853loPI   C2A12632  17.899   7.799   6.519 -0.2658 -0.3512  0.0182
  853loPI   C3A12633  18.143   7.842   6.876  0.2409  0.0214  0.6188
  853loPI   C4A12634  18.263   7.755   7.285  0.1691  0.1399  0.2806
  853loPI   C5A12635  18.435   7.966   7.719 -0.0107 -0.2044  0.0164
  853loPI   C6A12636  18.755   8.108   7.979 -0.2093 -0.1529  0.1496
  853loPI   C1B12637  17.356   7.954   6.132 -0.0083 -0.1887 -0.1005
  853loPI   C2B12638  17.395   7.759   6.534 -0.1753  0.0010 -0.1999
  853loPI   C3B12639  17.312   7.553   6.887  0.2415 -0.3036 -0.0188
  853loPI   C4B12640  17.364   7.191   6.969 -0.0722  0.0004  0.0102
  854loPI    C112641   0.449   4.975   4.904 -0.2240 -0.1406 -0.0251
  854loPI    C212642   0.620   4.801   4.588 -0.0005 -0.1761  0.1134
  854loPI    C312643   0.265   4.671   4.719 -0.0840 -0.1760 -0.1072
  854loPI   PO412644   0.685   5.071   4.994  0.2347 -0.0261  0.0459
  854loPI   GL112645   0.729   5.014   5.392  0.1313 -0.0095 -0.0471
  854loPI   GL212646   0.753   4.717   5.551  0.1974  0.0635 -0.0049
  854loPI   C1A12647   0.464   5.113   5.722  0.0848  0.2204 -0.0903
  854loPI   C2A12648   0.587   5.149   6.154  0.1410  0.0918 -0.0132
  854loPI   C3A12649   0.641   5.189   6.557  0.2501  0.1430  0.2728
  854loPI   C4A12650   0.629   5.275   6.967 -0.0983  0.0691 -0.3331
  854loPI   C5A12651   0.454   5.578   7.291 -0.0820 -0.1722 -0.0194
  854loPI   C6A12652   0.426   5.767   7.668  0.0794 -0.0038  0.1873
  854loPI   C1B12653   0.689   4.616   6.049 -0.2545 -0.3006  0.4137
  854loPI   C2B12654   0.635   4.636   6.431  0.0165  0.0028  0.2403
  854loPI   C3B12655   0.653   4.424   6.815  0.4272  0.0553 -0.0745
  854loPI   C4B12656   0.950   4.197   7.028  0.0629 -0.2958  0.0012
  855loPI    C112657   9.832  16.920   5.004 -0.0694  0.3675 -0.1527
  855loPI    C212658  10.067  16.910   4.681  0.1283  0.1176 -0.0049
  855loPI    C312659   9.763  16.653   4.714  0.2273  0.0123  0.0949
  855loPI   PO412660   9.982  16.928   5.208  0.0134  0.1715 -0.4698
  855loPI   GL112661  10.073  16.803   5.613 -0.2859 -0.1915 -0.3482
  855loPI   GL212662   9.861  16.980   5.690  0.2939  0.1228 -0.1984
  855loPI   C1A12663  10.140  16.765   6.079 -0.4843 -0.1033  0.1131
  855loPI   C2A12664  10.230  16.739   6.445  0.0941 -0.2843  0.2611
  855loPI   C3A12665   9.979  16.544   6.709 -0.1399  0.0472 -0.2366
  855loPI   C4A12666   9.900  16.148   7.051  0.1219  0.2420 -0.0793
  855loPI   C5A12667  10.249  15.915   7.298 -0.4087 -0.2044 -0.0661
  855loPI   C6A12668  10.338  15.473   7.405  0.1527  0.1018  0.0873
  855loPI   C1B12669   9.681  16.901   6.063  0.0571 -0.0610  0.1100
  855loPI   C2B12670   9.683  16.750   6.365 -0.1994  0.2491  0.1996
  855loPI   C3B12671   9.387  17.102   6.636 -0.0105 -0.0623 -0.2424
  855loPI   C4B12672   9.618  17.248   7.065  0.2047  0.2106 -0.0885
  856loPI    C112673  16.258  18.473   4.729  0.2090  0.1308 -0.0198
  856loPI    C212674  16.493  18.441   4.408  0.3091 -0.1151  0.0757
  856loPI    C312675  16.294  18.122   4.542 -0.0698  0.0866  0.0056
  856loPI   PO412676  16.396  18.586   4.965 -0.1302  0.4410  0.0776
  856loPI   GL112677  16.521  18.424   5.340 -0.0842 -0.2640  0.1746
  856loPI   GL212678  16.797  18.291   5.490  0.0243 -0.4489  0.4409
  856loPI   C1A12679  16.406  18.633   5.696  0.3602 -0.1685 -0.1793
  856loPI   C2A12680  16.307  18.868   6.165  0.3322  0.1934  0.4326
  856loPI   C3A12681  16.285  18.833   6.577 -0.3338  0.0970  0.2687
  856loPI   C4A12682  16.278  18.707   7.004 -0.4223  0.0828  0.3750
  856loPI   C5A12683  15.954  18.725   7.310 -0.0298  0.0677  0.0740
  856loPI   C6A12684  15.691  18.863   7.553  0.1206 -0.0165  0.4347
  856loPI   C1B12685  17.010  18.337   5.765 -0.3421  0.2072  0.2230
  856loPI   C2B12686  17.072  18.413   6.203 -0.0727  0.0075 -0.0597
  856loPI   C3B12687  17.209  18.359   6.539  0.0338  0.0805  0.0038
  856loPI   C4B12688  17.540  18.614   6.809  0.2060  0.2601 -0.0900
  857loPI    C112689  11.262   1.627   5.012 -0.0680 -0.1292  0.1000
  857loPI    C212690  11.257   1.876   4.699  0.0579 -0.2386  0.0094
  857loPI    C312691  10.927   1.825   4.920  0.0709  0.1170  0.1168
  857loPI   PO412692  11.412   1.708   5.189 -0.4464 -0.1426  0.1686
  857loPI   GL112693  11.514   1.955   5.577 -0.2271 -0.0697  0.2420
  857loPI   GL212694  11.642   1.656   5.682 -0.1348 -0.0942 -0.1907
  857loPI   C1A12695  11.493   2.164   5.916  0.3570 -0.0792  0.1169
  857loPI   C2A12696  11.317   2.450   6.274  0.3114 -0.0912 -0.0778
  857loPI   C3A12697  11.084   2.740   6.523 -0.0268 -0.3294 -0.1318
  857loPI   C4A12698  11.061   2.865   6.892 -0.1241  0.4796 -0.0586
  857loPI   C5A12699  11.140   2.822   7.291 -0.3402  0.1594 -0.0347
  857loPI   C6A12700  11.084   2.501   7.597 -0.1496  0.2402  0.3204
  857loPI   C1B12701  11.678   1.640   6.172 -0.1956 -0.1411  0.0309
  857loPI   C2B12702  11.682   1.636   6.606 -0.3988 -0.1652 -0.3057
  857loPI   C3B12703  11.462   1.344   6.901  0.0495 -0.3115  0.1132
  857loPI   C4B12704  11.509   1.073   7.199  0.1020 -0.0258 -0.0045
  858loPI    C112705  15.484   5.510   5.020 -0.0580  0.0783  0.0854
  858loPI    C212706  15.597   5.673   4.673  0.0121  0.0860  0.1116
  858loPI    C312707  15.637   5.280   4.731 -0.0638  0.0743  0.0855
  858loPI   PO412708  15.246   5.536   5.045 -0.1784 -0.1721  0.0833
  858loPI   GL112709  15.193   5.474   5.486 -0.0459  0.1729 -0.0156
  858loPI   GL212710  14.909   5.364   5.384  0.2261  0.2735 -0.1853
  858loPI   C1A12711  15.261   5.518   6.015  0.1089 -0.2915  0.2031
  858loPI   C2A12712  15.191   5.407   6.473  0.0677  0.2301 -0.2332
  858loPI   C3A12713  15.394   5.297   6.987 -0.0009 -0.2307 -0.0143
  858loPI   C4A12714  15.674   5.031   7.208 -0.1156 -0.3220 -0.3125
  858loPI   C5A12715  15.641   4.625   7.396  0.1559 -0.0685 -0.2106
  858loPI   C6A12716  15.666   4.147   7.461 -0.2281 -0.0239 -0.3727
  858loPI   C1B12717  14.866   5.252   5.796  0.0595 -0.1305 -0.1925
  858loPI   C2B12718  14.718   5.433   6.205  0.0822  0.1902  0.2884
  858loPI   C3B12719  14.718   5.154   6.589  0.2135  0.2805  0.2260
  858loPI   C4B12720  14.539   5.085   7.028 -0.0952 -0.1513  0.0591
  859loPI    C112721   1.735  11.418   5.025 -0.0348  0.0935  0.0141
  859loPI    C212722   1.926  11.750   4.910 -0.1024  0.1492  0.0618
  859loPI    C312723   2.121  11.401   4.924 -0.0239  0.1921  0.0384
  859loPI   PO412724   1.628  11.535   5.345  0.3044 -0.0248 -0.0129
  859loPI   GL112725   1.550  11.227   5.654 -0.3194  0.4462 -0.1401
  859loPI   GL212726   1.377  10.916   5.618  0.1509  0.1405 -0.1346
  859loPI   C1A12727   1.806  11.431   5.931  0.0968 -0.2674  0.3546
  859loPI   C2A12728   2.148  11.341   6.345 -0.1244  0.0030  0.2636
  859loPI   C3A12729   1.997  11.333   6.778 -0.1453 -0.0486  0.0081
  859loPI   C4A12730   1.772  11.418   7.122 -0.2242  0.1635 -0.3412
  859loPI   C5A12731   1.516  11.506   7.464  0.0466 -0.0800 -0.1590
  859loPI   C6A12732   1.285  11.661   7.864 -0.0215 -0.3620 -0.2908
  859loPI   C1B12733   1.298  10.898   6.027  0.0916 -0.2443  0.2041
  859loPI   C2B12734   1.335  10.650   6.424  0.0306 -0.1129 -0.1834
  859loPI   C3B12735   1.243  10.600   6.866 -0.0123 -0.0651 -0.1512
  859loPI   C4B12736   1.078  10.464   7.313  0.0209 -0.0738  0.1916
  860loPI    C112737   7.636  13.346   5.152 -0.0914 -0.1406 -0.0713
  860loPI    C212738   8.027  13.404   5.091 -0.0757 -0.1747 -0.0044
  860loPI    C312739   7.770  13.445   4.788 -0.0413  0.0302 -0.0071
  860loPI   PO412740   7.567  13.359   5.498 -0.0171  0.0904 -0.3944
  860loPI   GL112741   7.617  13.151   5.908 -0.1699 -0.0733 -0.1453
  860loPI   GL212742   7.584  13.166   6.140  0.3672  0.0318  0.0354
  860loPI   C1A12743   7.342  13.535   6.266  0.1852 -0.0546  0.0151
  860loPI   C2A12744   7.269  13.762   6.542  0.0865 -0.0247  0.4993
  860loPI   C3A12745   7.185  13.926   6.865 -0.1021 -0.0991 -0.1986
  860loPI   C4A12746   7.338  14.054   7.161  0.1967 -0.1399 -0.0905
  860loPI   C5A12747   7.462  14.353   7.546  0.3066 -0.3044 -0.1955
  860loPI   C6A12748   7.715  14.642   7.673  0.3100 -0.1877 -0.0435
  860loPI   C1B12749   7.721  13.155   6.552  0.1216  0.0980  0.4373
  860loPI   C2B12750   7.477  13.331   6.881 -0.0056 -0.0491  0.1047
  860loPI   C3B12751   7.525  13.626   7.122  0.0228 -0.2838  0.0737
  860loPI   C4B12752   7.660  13.834   7.529  0.2956 -0.0491  0.0252
  861loPI    C112753  18.379   7.783   5.188 -0.0965 -0.0481  0.3295
  861loPI    C212754  18.102   8.071   5.173  0.0452  0.0796  0.1011
  861loPI    C312755  18.117   7.792   4.886  0.0260 -0.0465  0.2217
  861loPI   PO412756  18.315   7.608   5.384  0.0172 -0.2814 -0.0145
  861loPI   GL112757  18.202   7.617   5.803 -0.0709  0.0691 -0.1217
  861loPI   GL212758  17.987   7.210   5.661 -0.1351  0.0430  0.2796
  861loPI   C1A12759  18.416   7.878   6.112 -0.1008 -0.2775 -0.1846
  861loPI   C2A12760  18.347   8.023   6.406  0.5159  0.1233  0.0763
  861loPI   C3A12761  18.277   8.275   6.707 -0.0944 -0.0705  0.0952
  861loPI   C4A12762  18.361   8.562   7.035  0.1277 -0.2866 -0.0180
  861loPI   C5A12763  18.211   8.739   7.359 -0.1051 -0.0341  0.3213
  861loPI   C6A12764  18.296   8.720   7.632  0.3214  0.1782 -0.0555
  861loPI   C1B12765  17.967   7.181   6.077 -0.3409  0.2830  0.0399
  861loPI   C2B12766  18.205   7.403   6.369  0.2003 -0.1265 -0.0353
  861loPI   C3B12767  18.306   7.261   6.730  0.2226 -0.2899 -0.1396
  861loPI   C4B12768  18.528   7.168   7.113 -0.3108 -0.0166  0.2688
  862loPI    C112769   1.891  14.081   4.841  0.0113  0.1220 -0.0694
  862loPI    C212770   2.139  14.218   4.559 -0.0327 -0.0302 -0.1830
  862loPI    C312771   1.781  14.073   4.457 -0.0643 -0.0506 -0.0450
  862loPI   PO412772   1.888  14.302   5.057 -0.0769 -0.0925 -0.2857
  862loPI   GL112773   1.849  14.408   5.549 -0.0191 -0.2445  0.0245
  862loPI   GL212774   1.716  14.640   5.413 -0.1190 -0.0569  0.0992
  862loPI   C1A12775   1.627  14.550   5.908  0.3442  0.1144 -0.0507
  862loPI   C2A12776   1.532  14.495   6.349 -0.0603  0.0084  0.1483
  862loPI   C3A12777   1.420  14.511   6.835  0.1136  0.0300  0.1352
  862loPI   C4A12778   1.560  14.397   7.204  0.0855  0.0307  0.0895
  862loPI   C5A12779   1.870  14.153   7.337 -0.3088  0.5217 -0.1556
  862loPI   C6A12780   2.299  14.245   7.594  0.0471  0.0277  0.3691
  862loPI   C1B12781   1.301  14.839   5.604  0.0402  0.3016 -0.1793
  862loPI   C2B12782   1.196  14.960   6.012 -0.0047  0.0041  0.0832
  862loPI   C3B12783   1.137  14.806   6.385 -0.0420  0.0882  0.2980
  862loPI   C4B12784   1.045  14.877   6.765  0.4366 -0.0613  0.1531
  863loPI    C112785   8.507  17.607   5.647  0.0828  0.0740  0.0533
  863loPI    C212786   8.247  17.792   5.406  0.1594  0.2642  0.1145
  863loPI    C312787   8.119  17.512   5.661  0.0322  0.2783  0.0668
  863loPI   PO412788   8.659  17.773   5.664 -0.0329 -0.1538  0.0356
  863loPI   GL112789   8.714  18.033   6.084  0.2322 -0.0202  0.1476
  863loPI   GL212790   8.577  17.804   6.224 -0.2775  0.2318 -0.0394
  863loPI   C1A12791   8.654  18.244   6.479  0.0282 -0.0920 -0.1763
  863loPI   C2A12792   8.573  18.283   6.765  0.1871  0.1319  0.1288
  863loPI   C3A12793   8.462  18.387   7.230  0.2992  0.0324 -0.0255
  863loPI   C4A12794   8.437  18.485   7.657 -0.1599 -0.1835 -0.0258
  863loPI   C5A12795   8.317  18.478   8.145  0.3244 -0.0993 -0.0784
  863loPI   C6A12796   8.256  18.369   8.474 -0.2358  0.2526  0.0659
  863loPI   C1B12797   8.251  17.906   6.463  0.0786  0.0852 -0.1695
  863loPI   C2B12798   8.053  18.014   6.882  0.0256 -0.1628  0.0726
  863loPI   C3B12799   7.997  18.137   7.341 -0.0087  0.1065  0.0448
  863loPI   C4B12800   7.631  18.240   7.618  0.0494  0.3122  0.0742
  864loPI    C112801  10.349   7.572   4.966 -0.1637 -0.1073  0.0941
  864loPI    C212802  10.058   7.522   4.696 -0.0800 -0.0733 -0.0033
  864loPI    C312803  10.440   7.487   4.586 -0.0388  0.1478  0.0647
  864loPI   PO412804  10.346   7.812   5.054  0.0628 -0.3874  0.1024
  864loPI   GL112805  10.425   7.950   5.460 -0.0879  0.2804 -0.1681
  864loPI   GL212806  10.213   7.793   5.627 -0.0913 -0.0154  0.0346
  864loPI   C1A12807  10.383   8.024   5.987  0.0899 -0.2236 -0.1815
  864loPI   C2A12808  10.336   8.139   6.412 -0.0333 -0.1906 -0.1681
  864loPI   C3A12809  10.172   8.229   6.781 -0.0247 -0.1660 -0.1166
  864loPI   C4A12810   9.951   8.129   7.338 -0.1676  0.0646 -0.3094
  864loPI   C5A12811   9.918   7.755   7.634  0.0252 -0.3290 -0.0105
  864loPI   C6A12812   9.625   7.526   7.848 -0.0700  0.1321  0.1605
  864loPI   C1B12813   9.938   7.823   5.949 -0.1080  0.0807 -0.1962
  864loPI   C2B12814   9.722   7.769   6.334 -0.3012  0.0574  0.3272
  864loPI   C3B12815   9.659   7.827   6.760  0.3599  0.1326 -0.0851
  864loPI   C4B12816   9.595   7.777   7.251 -0.0149 -0.0308  0.1105
  865loPI    C112817  16.796   3.363   5.222 -0.2874 -0.1774  0.0294
  865loPI    C212818  17.096   3.405   5.483 -0.2637 -0.2479  0.0135
  865loPI    C312819  16.994   3.710   5.246 -0.1183 -0.2655 -0.0731
  865loPI   PO412820  16.667   3.218   5.288  0.2652  0.0628  0.2213
  865loPI   GL112821  16.484   3.067   5.591  0.0473  0.3209 -0.2013
  865loPI   GL212822  16.288   2.848   5.375 -0.0483 -0.1789  0.3428
  865loPI   C1A12823  16.573   2.961   5.975  0.0738  0.2356 -0.0847
  865loPI   C2A12824  16.596   2.944   6.384 -0.4436  0.0895  0.2447
  865loPI   C3A12825  16.598   3.104   6.780  0.1039 -0.2973  0.0224
  865loPI   C4A12826  16.906   3.274   6.999  0.0452  0.0335 -0.3080
  865loPI   C5A12827  17.116   3.723   7.244 -0.1553  0.0875  0.1804
  865loPI   C6A12828  17.399   3.672   7.543  0.0639 -0.0243 -0.2532
  865loPI   C1B12829  16.190   2.658   5.744 -0.0346  0.0830  0.2959
  865loPI   C2B12830  16.296   2.583   6.192  0.2869 -0.1742  0.2832
  865loPI   C3B12831  16.281   2.432   6.513  0.2583  0.1564  0.1831
  865loPI   C4B12832  16.115   2.388   6.844 -0.0491  0.2021 -0.0151
  866loPI    C112833   6.815   1.060   5.185  0.0431  0.0990 -0.2003
  866loPI    C212834   7.139   0.829   5.142 -0.0261 -0.1033  0.3011
  866loPI    C312835   6.831   0.791   4.889  0.0920 -0.3396  0.1893
  866loPI   PO412836   6.877   1.116   5.469  0.0022 -0.0997 -0.0845
  866loPI   GL112837   7.051   1.163   5.866 -0.1472 -0.0510 -0.0870
  866loPI   GL212838   7.126   1.502   6.036  0.1864 -0.1408  0.0153
  866loPI   C1A12839   6.948   1.106   6.250 -0.2027  0.0459  0.3131
  866loPI   C2A12840   6.882   1.093   6.700  0.2395  0.1930 -0.2971
  866loPI   C3A12841   6.898   1.073   7.210 -0.0684  0.2397 -0.1416
  866loPI   C4A12842   7.082   0.768   7.546  0.1551 -0.3070 -0.2083
  866loPI   C5A12843   7.450   0.343   7.759  0.4388 -0.0256  0.1352
  866loPI   C6A12844   7.479   0.080   8.134 -0.3747  0.3159  0.1232
  866loPI   C1B12845   7.079   1.618   6.402  0.0257 -0.0829  0.4232
  866loPI   C2B12846   6.807   1.650   6.723  0.1218  0.0526  0.0381
  866loPI   C3B12847   6.564   1.483   7.135  0.1095  0.2155  0.1601
  866loPI   C4B12848   6.079   1.556   7.269  0.1127 -0.1936  0.1555
  867loPI    C112849  13.192   1.475   4.700 -0.0455 -0.0044  0.3281
  867loPI    C212850  12.898   1.350   4.940  0.0545 -0.3826  0.2597
  867loPI    C312851  13.048   1.104   4.662  0.0323  0.0042 -0.1044
  867loPI   PO412852  13.456   1.509   4.821  0.1467  0.0132 -0.0744
  867loPI   GL112853  13.345   1.615   5.284 -0.4318  0.1857  0.0168
  867loPI   GL212854  13.271   1.191   5.343 -0.0867  0.2211 -0.0541
  867loPI   C1A12855  13.663   1.627   5.584 -0.0388 -0.0132  0.0153
  867loPI   C2A12856  13.698   1.517   6.043  0.0468  0.0787 -0.0239
  867loPI   C3A12857  13.654   1.787   6.341  0.1630  0.0583  0.2109
  867loPI   C4A12858  13.391   1.790   6.764  0.1081 -0.0490 -0.2120
  867loPI   C5A12859  13.519   1.682   7.116  0.1098 -0.1812 -0.0330
  867loPI   C6A12860  13.655   1.589   7.548 -0.0439 -0.0372  0.1573
  867loPI   C1B12861  13.231   1.406   5.692  0.0030  0.2626  0.1364
  867loPI   C2B12862  13.235   1.357   6.147  0.0618  0.1812 -0.1323
  867loPI   C3B12863  13.102   1.545   6.471 -0.0570 -0.0200  0.0929
  867loPI   C4B12864  12.762   1.690   6.826 -0.4390  0.0091 -0.3458
  868loPI    C112865  13.373  11.524   5.482  0.0926  0.1014 -0.0277
  868loPI    C212866  13.497  11.371   5.134 -0.1370  0.2021 -0.1558
  868loPI    C312867  13.754  11.411   5.437  0.0091 -0.1085 -0.2342
  868loPI   PO412868  13.153  11.419   5.555  0.0897  0.1816  0.1282
  868loPI   GL112869  12.968  11.651   5.797  0.0353 -0.1976 -0.0622
  868loPI   GL212870  13.210  11.814   5.888 -0.3838 -0.0250  0.1499
  868loPI   C1A12871  12.800  11.675   6.263 -0.2464 -0.0970  0.3848
  868loPI   C2A12872  12.841  11.718   6.704 -0.0342  0.0876 -0.1246
  868loPI   C3A12873  12.940  11.742   7.107 -0.3456 -0.0202 -0.0886
  868loPI   C4A12874  12.863  11.757   7.547 -0.2840  0.0837 -0.1347
  868loPI   C5A12875  12.595  11.752   7.950  0.1112 -0.0042  0.0148
  868loPI   C6A12876  12.342  11.495   8.004  0.1438  0.0865 -0.0569
  868loPI   C1B12877  13.109  12.020   6.306 -0.0585 -0.3394  0.0203
  868loPI   C2B12878  13.199  12.120   6.777 -0.3576 -0.1448  0.1084
  868loPI   C3B12879  13.356  12.125   7.178  0.0380 -0.2940 -0.0892
  868loPI   C4B12880  13.715  12.224   7.486  0.1857  0.1507  0.0839
  869loPI    C112881   4.773   0.736   5.254 -0.0736 -0.1009 -0.1485
  869loPI    C212882   5.078   0.633   5.017 -0.0191  0.3115 -0.2658
  869loPI    C312883   4.818   0.355   5.140  0.3680 -0.0361 -0.2097
  869loPI   PO412884   4.887   0.840   5.407  0.3036 -0.0662 -0.2987
  869loPI   GL112885   4.862   0.784   5.854  0.0661 -0.1031 -0.1358
  869loPI   GL212886   4.887   1.168   5.836  0.0175 -0.0471  0.0259
  869loPI   C1A12887   4.840   0.648   6.293  0.3011  0.2843 -0.1127
  869loPI   C2A12888   5.015   0.572   6.664 -0.1783 -0.0218  0.1138
  869loPI   C3A12889   5.224   0.538   7.016  0.0350  0.1707  0.0112
  869loPI   C4A12890   5.220   0.553   7.388  0.2629  0.1862  0.1719
  869loPI   C5A12891   5.279   0.477   7.813  0.2802  0.1970  0.0787
  869loPI   C6A12892   5.010   0.247   7.941 -0.0954 -0.1845 -0.2109
  869loPI   C1B12893   4.765   1.180   6.260  0.1232  0.2414 -0.0850
  869loPI   C2B12894   4.692   0.940   6.658 -0.0206  0.1629  0.0971
  869loPI   C3B12895   4.923   1.001   7.129 -0.1631 -0.3253  0.0831
  869loPI   C4B12896   4.879   0.886   7.513 -0.2017  0.0690 -0.1209
  870loPI    C112897   2.252   0.298   5.163 -0.2101  0.0993  0.1467
  870loPI    C212898   1.907   0.265   4.962 -0.0097 -0.0717 -0.1788
  870loPI    C312899   2.146   0.579   4.898  0.0520 -0.1235 -0.2036
  870loPI   PO412900   2.191   0.287   5.355  0.4952 -0.1027 -0.0219
  870loPI   GL112901   2.346   0.538   5.682  0.1402 -0.2645 -0.1166
  870loPI   GL212902   2.609   0.486   5.928  0.2253 -0.2292 -0.3073
  870loPI   C1A12903   1.948   0.697   5.819 -0.2604  0.2022  0.1539
  870loPI   C2A12904   1.773   0.904   6.098 -0.1342  0.1241 -0.0255
  870loPI   C3A12905   1.348   0.996   6.028 -0.1982  0.1836 -0.0169
  870loPI   C4A12906   1.129   0.635   6.064 -0.1010  0.0064  0.1330
  870loPI   C5A12907   0.753   0.483   6.317 -0.1608 -0.1990 -0.4617
  870loPI   C6A12908   0.625   0.428   6.662  0.0713 -0.2922 -0.1870
  870loPI   C1B12909   2.631   0.380   6.359 -0.0200  0.1849  0.0164
  870loPI   C2B12910   2.639   0.404   6.839  0.1884 -0.1840  0.0925
  870loPI   C3B12911   2.426   0.362   7.167  0.0945 -0.2480 -0.0138
  870loPI   C4B12912   2.179  -0.001   7.353  0.4937 -0.0493 -0.0193
  871loPI    C112913  14.581  11.452   5.095  0.1870 -0.2122 -0.0686
  871loPI    C212914  14.673  11.145   4.856  0.3216 -0.1117 -0.1471
  871loPI    C312915  14.763  11.519   4.745  0.2933 -0.0560  0.0151
  871loPI   PO412916  14.406  11.368   5.372  0.4829 -0.2164  0.2705
  871loPI   GL112917  14.676  11.456   5.739 -0.0476 -0.0784  0.0176
  871loPI   GL212918  14.510  11.305   6.028  0.1397  0.0249  0.1566
  871loPI   C1A12919  14.975  11.330   6.027  0.1317 -0.1214 -0.2514
  871loPI   C2A12920  14.839  11.125   6.461  0.1736  0.0532 -0.0063
  871loPI   C3A12921  14.555  10.957   6.661 -0.2866 -0.1587  0.0731
  871loPI   C4A12922  14.268  10.649   6.760  0.1405 -0.0945 -0.0602
  871loPI   C5A12923  14.195  10.538   7.111  0.1651 -0.3795  0.2306
  871loPI   C6A12924  13.983  10.310   7.413  0.2582 -0.1921  0.3255
  871loPI   C1B12925  14.361  11.362   6.444  0.1969  0.0596  0.0796
  871loPI   C2B12926  14.603  11.492   6.737 -0.1604 -0.0173 -0.0537
  871loPI   C3B12927  14.579  11.659   7.133 -0.0468  0.2496  0.1989
  871loPI   C4B12928  14.720  11.476   7.494 -0.0100  0.0827 -0.3816
  872loPI    C112929  10.833  14.126   4.705  0.1432 -0.3331  0.0469
  872loPI    C212930  10.580  13.949   4.451 -0.0759  0.0342  0.0034
  872loPI    C312931  10.934  14.082   4.320 -0.1529  0.1463 -0.0944
  872loPI   PO412932  10.736  14.097   4.938  0.3075 -0.1163 -0.0317
  872loPI   GL112933  10.771  13.867   5.303  0.1229 -0.0392 -0.0617
  872loPI   GL212934  10.699  13.600   5.335  0.2692 -0.2342  0.0284
  872loPI   C1A12935  11.043  13.940   5.608  0.0637  0.0211  0.1053
  872loPI   C2A12936  11.180  13.831   5.976  0.0373 -0.2351 -0.0763
  872loPI   C3A12937  11.292  14.038   6.353 -0.1100  0.4989 -0.3029
  872loPI   C4A12938  11.166  14.345   6.631 -0.2350  0.2009 -0.2934
  872loPI   C5A12939  11.314  14.584   6.969  0.0112  0.0013 -0.1949
  872loPI   C6A12940  11.577  14.687   7.177 -0.0015 -0.0190 -0.1839
  872loPI   C1B12941  10.779  13.558   5.778  0.3160  0.2430  0.2729
  872loPI   C2B12942  10.752  13.621   6.243 -0.0213  0.1408 -0.1932
  872loPI   C3B12943  10.510  13.536   6.596  0.0059 -0.5859  0.1725
  872loPI   C4B12944  10.326  13.446   6.927  0.3461 -0.1300  0.3939
  873loPI    C112945   8.200   7.151   5.108  0.2986 -0.1341 -0.2204
  873loPI    C212946   7.917   6.889   5.002  0.1179 -0.0400  0.0186
  873loPI    C312947   7.931   7.249   4.828 -0.0704  0.0501  0.1854
  873loPI   PO412948   8.224   7.090   5.357  0.1692  0.0665 -0.3017
  873loPI   GL112949   8.240   6.959   5.783  0.3708 -0.0077  0.0462
  873loPI   GL212950   8.516   7.180   5.731 -0.0350  0.2366 -0.0421
  873loPI   C1A12951   8.414   6.761   6.243 -0.0140 -0.2817 -0.1083
  873loPI   C2A12952   8.394   6.796   6.661  0.0927  0.2561 -0.0272
  873loPI   C3A12953   8.714   6.732   6.970  0.1089 -0.2395 -0.3165
  873loPI   C4A12954   8.998   6.713   7.267 -0.0179  0.1130  0.1367
  873loPI   C5A12955   9.215   6.438   7.446 -0.0703  0.1194  0.0139
  873loPI   C6A12956   9.482   6.071   7.443  0.0697 -0.0543  0.0548
  873loPI   C1B12957   8.593   7.218   6.156 -0.0877  0.4828 -0.2567
  873loPI   C2B12958   8.629   7.358   6.663  0.0490 -0.0494  0.2494
  873loPI   C3B12959   8.687   7.261   7.012  0.3309  0.2249 -0.0940
  873loPI   C4B12960   8.795   7.122   7.399  0.1113 -0.2895  0.0014
  874loPI    C112961  12.999   6.366   4.955 -0.1854  0.0705 -0.0275
  874loPI    C212962  13.318   6.565   5.091 -0.1265 -0.0206 -0.0315
  874loPI    C312963  13.238   6.560   4.699 -0.0885 -0.0621 -0.0388
  874loPI   PO412964  12.871   6.099   5.161 -0.1141  0.1677 -0.3095
  874loPI   GL112965  12.992   5.895   5.500 -0.1106 -0.1089  0.1937
  874loPI   GL212966  12.791   5.679   5.632  0.3476 -0.0177 -0.0969
  874loPI   C1A12967  12.820   6.120   5.891  0.0424 -0.1155 -0.1953
  874loPI   C2A12968  13.067   6.030   6.238  0.0603  0.2015 -0.0500
  874loPI   C3A12969  13.144   5.741   6.595 -0.2625  0.0102  0.0509
  874loPI   C4A12970  13.344   5.428   6.927  0.1079 -0.1670 -0.1688
  874loPI   C5A12971  13.712   5.297   7.236  0.0409  0.1610 -0.1521
  874loPI   C6A12972  14.151   5.132   7.383  0.0076 -0.2058 -0.1051
  874loPI   C1B12973  13.025   5.590   5.962 -0.1426  0.1715  0.3712
  874loPI   C2B12974  12.965   5.395   6.316  0.0801  0.1086 -0.1719
  874loPI   C3B12975  12.800   5.010   6.319 -0.1909 -0.0239 -0.1183
  874loPI   C4B12976  12.629   4.701   6.614 -0.0143  0.1073  0.5103
  875loPI    C112977   5.538   0.729   5.197 -0.0093  0.1578 -0.1189
  875loPI    C212978   5.873   0.857   5.020  0.1594 -0.1495 -0.0282
  875loPI    C312979   5.616   0.626   4.819 -0.0498  0.1647 -0.1292
  875loPI   PO412980   5.632   0.602   5.495  0.1523 -0.1220  0.2591
  875loPI   GL112981   5.764   0.742   5.845  0.0300 -0.1789 -0.3798
  875loPI   GL212982   5.340   0.795   5.888 -0.1142 -0.2738  0.0813
  875loPI   C1A12983   5.694   0.415   6.265 -0.0067 -0.2091 -0.2167
  875loPI   C2A12984   5.667   0.424   6.681  0.2195 -0.3048  0.1469
  875loPI   C3A12985   5.805   0.649   7.017 -0.0543 -0.0150  0.0894
  875loPI   C4A12986   5.867   1.026   7.223  0.0583 -0.0062  0.1375
  875loPI   C5A12987   5.898   1.210   7.679  0.1331 -0.1288  0.0138
  875loPI   C6A12988   5.708   0.859   7.948 -0.0759 -0.1099  0.0960
  875loPI   C1B12989   5.262   0.365   6.115 -0.0705 -0.0156  0.0223
  875loPI   C2B12990   5.392  -0.054   6.302  0.3990 -0.1668 -0.0098
  875loPI   C3B12991   5.531  -0.222   6.670 -0.1128 -0.1376  0.1937
  875loPI   C4B12992   5.581  -0.324   7.248  0.0394 -0.3672  0.0806
  876loPI    C112993   6.041  10.302   5.094  0.0540  0.2052  0.0557
  876loPI    C212994   5.879  10.455   4.763  0.2257  0.3060  0.0171
  876loPI    C312995   6.119  10.137   4.738 -0.0480  0.0901  0.0861
  876loPI   PO412996   6.094  10.563   5.230  0.1378  0.2311  0.1736
  876loPI   GL112997   5.905  10.476   5.694 -0.3794 -0.0576 -0.1165
  876loPI   GL212998   6.141  10.251   5.725  0.3578 -0.0379  0.1280
  876loPI   C1A12999   5.911  10.793   6.072 -0.0298 -0.1480  0.0814
  876loPI   C2A13000   6.040  10.896   6.432 -0.3249  0.2393  0.0128
  876loPI   C3A13001   6.064  11.122   6.845  0.2534 -0.3207  0.0314
  876loPI   C4A13002   6.143  11.489   7.105 -0.0775 -0.2394  0.0042
  876loPI   C5A13003   5.915  11.775   7.333  0.0230 -0.2635  0.1344
  876loPI   C6A13004   5.932  12.147   7.624  0.0998 -0.1211  0.1745
  876loPI   C1B13005   6.308  10.501   6.084  0.1794  0.1197  0.1447
  876loPI   C2B13006   6.478  10.656   6.390  0.1066  0.2159 -0.2144
  876loPI   C3B13007   6.450  10.787   6.797  0.1949 -0.1043 -0.1854
  876loPI   C4B13008   6.424  10.714   7.292 -0.2247  0.1616 -0.1501
  877loPI    C113009   6.972  10.632   4.986  0.0481  0.2739 -0.1237
  877loPI    C213010   6.853  10.480   4.636  0.1849  0.2420 -0.1569
  877loPI    C313011   7.243  10.503   4.722  0.1443 -0.0171  0.1116
  877loPI   PO413012   6.719  10.712   5.119  0.0197 -0.3229  0.0521
  877loPI   GL113013   6.851  10.720   5.540  0.0856  0.1282 -0.1362
  877loPI   GL213014   7.032  10.944   5.806 -0.3287 -0.2383  0.2388
  877loPI   C1A13015   6.793  10.544   5.900 -0.2114  0.1708 -0.1556
  877loPI   C2A13016   6.854  10.186   6.175 -0.0323  0.0318 -0.0921
  877loPI   C3A13017   6.730  10.055   6.569 -0.0343 -0.1054 -0.1561
  877loPI   C4A13018   6.776  10.232   6.986 -0.0550 -0.1288 -0.1212
  877loPI   C5A13019   6.648  10.286   7.414  0.1757 -0.0568 -0.0660
  877loPI   C6A13020   6.588  10.534   7.749 -0.0017  0.1443  0.1607
  877loPI   C1B13021   6.942  10.874   6.288  0.1529  0.1086 -0.1316
  877loPI   C2B13022   6.951  10.686   6.736 -0.0777 -0.1329  0.0166
  877loPI   C3B13023   7.075  10.631   7.193 -0.2628 -0.0208  0.0672
  877loPI   C4B13024   7.137  10.513   7.580 -0.0115 -0.0225 -0.2347
  878loPI    C113025   7.826  15.451   5.303 -0.1330  0.0046 -0.2212
  878loPI    C213026   8.092  15.709   5.152  0.2875 -0.1415  0.2428
  878loPI    C313027   7.798  15.840   5.390  0.2653 -0.0449  0.1627
  878loPI   PO413028   7.963  15.177   5.379 -0.2013  0.1938 -0.0299
  878loPI   GL113029   7.950  15.051   5.723 -0.2055  0.2238  0.6759
  878loPI   GL213030   7.878  14.805   5.864 -0.1780 -0.6445 -0.2677
  878loPI   C1A13031   7.953  15.185   6.165  0.2221 -0.0183 -0.0841
  878loPI   C2A13032   8.056  15.267   6.586  0.0219  0.3185  0.4658
  878loPI   C3A13033   8.281  15.475   6.908  0.1196 -0.2092 -0.2099
  878loPI   C4A13034   8.375  15.602   7.394  0.1737  0.3975 -0.0005
  878loPI   C5A13035   8.198  15.880   7.694  0.0572  0.0310  0.0573
  878loPI   C6A13036   8.224  16.235   7.716 -0.0117  0.0001  0.2650
  878loPI   C1B13037   7.822  14.721   6.275 -0.3410  0.1908  0.0563
  878loPI   C2B13038   7.795  14.833   6.726 -0.3091  0.2154  0.3724
  878loPI   C3B13039   8.025  14.897   7.098 -0.0422 -0.4213  0.0905
  878loPI   C4B13040   8.401  15.123   7.247  0.0543  0.2349  0.1766
  879loPI    C113041  15.612  11.532   5.324 -0.1033 -0.3908 -0.0758
  879loPI    C213042  15.716  11.362   4.977  0.1595 -0.1133 -0.1376
  879loPI    C313043  15.513  11.707   4.978  0.1957 -0.0919 -0.0159
  879loPI   PO413044  15.802  11.421   5.481 -0.2700  0.0487 -0.1924
  879loPI   GL113045  15.777  11.121   5.793 -0.0060 -0.0064 -0.4163
  879loPI   GL213046  15.452  11.235   5.901  0.0796 -0.0132  0.0571
  879loPI   C1A13047  15.910  10.926   6.064 -0.0543 -0.0298 -0.1629
  879loPI   C2A13048  15.843  10.960   6.433  0.3085 -0.1456  0.1758
  879loPI   C3A13049  15.779  10.899   6.838 -0.3520 -0.3359  0.1295
  879loPI   C4A13050  15.826  10.642   7.185 -0.0362  0.2410  0.2506
  879loPI   C5A13051  16.085  10.377   7.375  0.1677 -0.0903 -0.0114
  879loPI   C6A13052  16.501  10.278   7.564  0.4548 -0.4472  0.0292
  879loPI   C1B13053  15.446  11.129   6.186  0.0607 -0.1283 -0.1523
  879loPI   C2B13054  15.357  11.166   6.583  0.2436  0.0566 -0.0623
  879loPI   C3B13055  15.269  11.447   6.852 -0.0951  0.2912  0.1343
  879loPI   C4B13056  15.450  11.855   6.850  0.1853 -0.1126 -0.0944
  880loPI    C113057  13.121  18.562   4.689 -0.1482 -0.2694 -0.0451
  880loPI    C213058  13.445  18.563   4.455  0.1027 -0.1187  0.2952
  880loPI    C313059  13.126  18.781   4.354  0.1705 -0.1312  0.0462
  880loPI   PO413060  13.192  18.376   4.893  0.0325 -0.2751  0.2887
  880loPI   GL113061  13.403  18.339   5.194 -0.0456 -0.1545  0.0431
  880loPI   GL213062  13.355  18.710   5.245 -0.2857 -0.1155  0.1396
  880loPI   C1A13063  13.310  18.049   5.581 -0.0893  0.2025 -0.1749
  880loPI   C2A13064  13.353  18.075   5.970 -0.4155 -0.2591 -0.0672
  880loPI   C3A13065  13.291  18.177   6.430 -0.1331  0.0175 -0.0865
  880loPI   C4A13066  13.477  18.176   6.789  0.0084  0.0481 -0.2845
  880loPI   C5A13067  13.612  18.533   7.057  0.1100  0.0942  0.0237
  880loPI   C6A13068  13.708  18.457   7.386 -0.2154 -0.2339  0.1442
  880loPI   C1B13069  13.287  18.586   5.694 -0.1732 -0.2396  0.0424
  880loPI   C2B13070  13.290  18.598   6.169  0.1699  0.2973 -0.0546
  880loPI   C3B13071  13.195  18.639   6.614 -0.2192  0.1913 -0.1833
  880loPI   C4B13072  13.028  18.344   6.862 -0.1150  0.0051  0.0261
  881loPI    C113073   6.415   8.723   4.929 -0.2035  0.1046  0.0514
  881loPI    C213074   6.423   8.393   4.704  0.0920  0.0947  0.0717
  881loPI    C313075   6.743   8.632   4.719 -0.1458  0.4249 -0.0032
  881loPI   PO413076   6.280   8.595   5.273  0.3833 -0.0685  0.2951
  881loPI   GL113077   6.432   8.692   5.667  0.1354  0.1734  0.1112
  881loPI   GL213078   6.286   8.357   5.699  0.0279 -0.1393  0.0315
  881loPI   C1A13079   6.548   8.649   6.036 -0.0191  0.1730  0.2850
  881loPI   C2A13080   6.491   8.565   6.400 -0.2233 -0.1292  0.1184
  881loPI   C3A13081   6.662   8.730   6.788 -0.2141 -0.4301  0.2556
  881loPI   C4A13082   6.730   8.794   7.258 -0.0040 -0.0044  0.2464
  881loPI   C5A13083   6.846   8.796   7.709  0.0638 -0.0387 -0.2695
  881loPI   C6A13084   7.156   8.564   8.009 -0.2424  0.2055  0.2844
  881loPI   C1B13085   6.276   8.187   6.089  0.2080  0.1402 -0.1194
  881loPI   C2B13086   6.207   8.108   6.434  0.1207  0.1245  0.2881
  881loPI   C3B13087   5.791   8.113   6.685 -0.0996 -0.2098 -0.1777
  881loPI   C4B13088   5.572   8.085   7.041 -0.2507 -0.2316  0.1590
  882loPI    C113089   7.536  10.148   5.138  0.0298 -0.1054 -0.0363
  882loPI    C213090   7.555  10.059   4.748 -0.0911 -0.1793 -0.0259
  882loPI    C313091   7.214  10.001   4.950 -0.1013  0.0853  0.0362
  882loPI   PO413092   7.577  10.380   5.125  0.2386  0.2264 -0.1977
  882loPI   GL113093   7.848  10.572   5.388 -0.0798 -0.1790  0.0864
  882loPI   GL213094   8.121  10.684   5.408 -0.1243  0.0385  0.0777
  882loPI   C1A13095   7.758  10.687   5.844 -0.1376  0.0258  0.1260
  882loPI   C2A13096   7.600  10.863   6.131 -0.3786  0.1203 -0.1056
  882loPI   C3A13097   7.430  10.856   6.480  0.0599  0.0496 -0.1308
  882loPI   C4A13098   7.342  11.021   6.815  0.0297 -0.1653  0.0684
  882loPI   C5A13099   7.262  11.155   7.282  0.3415  0.2038 -0.0754
  882loPI   C6A13100   7.506  10.797   7.577 -0.0744 -0.0624 -0.0052
  882loPI   C1B13101   8.296  10.908   5.719  0.1468  0.0204 -0.0516
  882loPI   C2B13102   8.539  11.000   6.159  0.4103  0.0741 -0.2576
  882loPI   C3B13103   8.667  10.851   6.620  0.1031 -0.3046 -0.0286
  882loPI   C4B13104   8.987  10.787   6.907  0.4157  0.2434  0.2641
  883loPI    C113105   2.277   7.460   5.078 -0.0130 -0.0565 -0.2318
  883loPI    C213106   2.512   7.137   5.058  0.3255  0.1561  0.1466
  883loPI    C313107   2.520   7.409   4.764  0.0976 -0.1334 -0.1348
  883loPI   PO413108   2.347   7.566   5.256  0.2889  0.1196 -0.1241
  883loPI   GL113109   2.377   7.627   5.705  0.0302 -0.0891  0.2937
  883loPI   GL213110   2.385   7.960   5.704  0.1585 -0.1275 -0.4682
  883loPI   C1A13111   2.035   7.685   5.896  0.0120 -0.0160 -0.0856
  883loPI   C2A13112   1.969   7.561   6.349 -0.0451 -0.3260 -0.2037
  883loPI   C3A13113   2.125   7.556   6.779 -0.0092 -0.1255  0.0165
  883loPI   C4A13114   2.060   7.395   7.117 -0.0647 -0.0263  0.0804
  883loPI   C5A13115   2.040   7.207   7.587  0.0653 -0.0316  0.3858
  883loPI   C6A13116   2.212   7.329   7.975 -0.4118 -0.2821  0.0636
  883loPI   C1B13117   2.664   8.324   5.672  0.3407 -0.1848  0.0130
  883loPI   C2B13118   3.080   8.408   5.885  0.3114 -0.1958  0.0156
  883loPI   C3B13119   3.385   8.530   6.201  0.0977  0.0738  0.0329
  883loPI   C4B13120   3.539   8.727   6.561  0.1721 -0.0280  0.2229
  884loPI    C113121  18.660  10.110   5.150 -0.0659  0.0224 -0.1324
  884loPI    C213122  18.766   9.724   5.136 -0.4060 -0.0733 -0.1849
  884loPI    C313123  18.738   9.937   4.798  0.1651  0.1121 -0.1266
  884loPI   PO413124  18.703  10.101   5.529 -0.1299 -0.0969 -0.0609
  884loPI   GL113125  18.965   9.992   5.858  0.0171  0.0907  0.2261
  884loPI   GL213126  19.329   9.840   5.878 -0.0082  0.2724 -0.3720
  884loPI   C1A13127  18.961   9.652   6.161  0.1232 -0.1120  0.0976
  884loPI   C2A13128  19.089   9.269   6.425  0.1144 -0.0023 -0.1276
  884loPI   C3A13129  19.249   8.855   6.559 -0.0526 -0.5148 -0.2428
  884loPI   C4A13130  19.139   9.007   7.002  0.0108  0.0078  0.0298
  884loPI   C5A13131  19.418   8.894   7.450  0.0826  0.0545 -0.0308
  884loPI   C6A13132  19.679   8.711   7.658  0.0423 -0.0024 -0.1644
  884loPI   C1B13133  19.527  10.115   6.172  0.1461 -0.3363  0.1716
  884loPI   C2B13134  19.280  10.283   6.505 -0.0427 -0.0362  0.2393
  884loPI   C3B13135  19.261  10.387   7.016  0.4226 -0.0883  0.2502
  884loPI   C4B13136  19.296  10.079   7.497  0.3483 -0.1356 -0.0814
  885loPI    C113137  15.102  16.394   4.708 -0.1738 -0.1621 -0.0651
  885loPI    C213138  15.021  16.167   4.389  0.2200 -0.0167 -0.2755
  885loPI    C313139  15.249  16.493   4.350 -0.0661  0.2350  0.0840
  885loPI   PO413140  15.078  16.210   4.901  0.0221  0.1583 -0.1129
  885loPI   GL113141  14.835  16.050   5.109  0.2624  0.0331  0.0736
  885loPI   GL213142  14.946  16.262   5.397  0.0628  0.0827 -0.0774
  885loPI   C1A13143  14.533  15.969   5.466 -0.2107 -0.2189  0.0139
  885loPI   C2A13144  14.556  15.878   5.818 -0.0390  0.1410 -0.1379
  885loPI   C3A13145  14.527  15.665   6.085  0.2811 -0.0682  0.2920
  885loPI   C4A13146  14.481  15.557   6.531  0.0221  0.0932  0.0723
  885loPI   C5A13147  14.332  15.388   6.894 -0.0988  0.0682 -0.2199
  885loPI   C6A13148  14.452  15.202   7.239 -0.1367  0.0688 -0.2195
  885loPI   C1B13149  14.706  16.477   5.709 -0.2726  0.0552 -0.0363
  885loPI   C2B13150  14.647  16.559   6.137 -0.1762 -0.1741  0.1667
  885loPI   C3B13151  14.916  16.728   6.435 -0.1474  0.0767 -0.0971
  885loPI   C4B13152  14.888  16.969   6.741 -0.0822 -0.1227 -0.0572
  886loPI    C113153   4.859   4.881   5.022  0.1921 -0.0153  0.0081
  886loPI    C213154   4.537   5.105   4.945  0.1994 -0.1169 -0.3345
  886loPI    C313155   4.534   4.715   4.857  0.2279 -0.2329  0.1522
  886loPI   PO413156   4.908   4.997   5.274  0.3021 -0.0103  0.2282
  886loPI   GL113157   4.874   5.062   5.700 -0.1078 -0.2330  0.0984
  886loPI   GL213158   4.742   4.923   5.738 -0.2995 -0.0735 -0.1596
  886loPI   C1A13159   5.176   5.348   6.030 -0.1246 -0.0783 -0.1967
  886loPI   C2A13160   5.254   5.653   6.331 -0.0743 -0.1501  0.1126
  886loPI   C3A13161   4.990   5.730   6.630 -0.2741 -0.1392  0.0787
  886loPI   C4A13162   4.893   5.471   7.085 -0.4356 -0.1909 -0.1285
  886loPI   C5A13163   4.888   5.798   7.517 -0.3627  0.3083  0.2304
  886loPI   C6A13164   5.169   6.155   7.599 -0.1846  0.1107  0.0606
  886loPI   C1B13165   4.802   4.923   6.188  0.1451  0.0968  0.0466
  886loPI   C2B13166   4.992   4.738   6.569  0.1715  0.1562  0.0269
  886loPI   C3B13167   5.216   4.622   6.932  0.2766  0.1924  0.0973
  886loPI   C4B13168   5.440   4.974   7.087 -0.1036 -0.0796 -0.0214
  887loPI    C113169  18.702   5.877   5.056 -0.0366 -0.0893 -0.1718
  887loPI    C213170  18.672   5.559   4.816  0.2815 -0.4404  0.2373
  887loPI    C313171  18.962   5.827   4.756 -0.0108 -0.1960 -0.1322
  887loPI   PO413172  18.526   5.836   5.238  0.1031  0.0004  0.0316
  887loPI   GL113173  18.546   5.584   5.594 -0.0271  0.0188 -0.1950
  887loPI   GL213174  18.489   5.916   5.762  0.1654 -0.0730 -0.3172
  887loPI   C1A13175  18.526   5.493   5.986 -0.0499  0.0681  0.0074
  887loPI   C2A13176  18.436   5.464   6.475  0.0541 -0.0642  0.0938
  887loPI   C3A13177  18.533   5.552   6.916 -0.3275 -0.0443 -0.2034
  887loPI   C4A13178  18.692   5.503   7.343 -0.1296 -0.1061 -0.1436
  887loPI   C5A13179  18.917   5.611   7.673  0.0600  0.2071 -0.0131
  887loPI   C6A13180  19.026   5.536   8.080  0.2466  0.0871 -0.1362
  887loPI   C1B13181  18.361   5.929   6.314 -0.0090  0.3209 -0.2881
  887loPI   C2B13182  18.100   5.840   6.721 -0.2560 -0.1351  0.0708
  887loPI   C3B13183  17.732   5.913   7.030  0.0294 -0.1820 -0.3711
  887loPI   C4B13184  17.541   6.253   7.420 -0.0690  0.1325 -0.1593
  888loPI    C113185  13.011  11.084   5.154  0.1254 -0.1717  0.1347
  888loPI    C213186  12.868  10.781   4.935  0.0733  0.0570 -0.1531
  888loPI    C313187  13.148  11.023   4.783  0.0140  0.2383  0.0216
  888loPI   PO413188  13.017  10.990   5.357  0.2677 -0.0733  0.2094
  888loPI   GL113189  12.976  10.864   5.818  0.4725 -0.3333 -0.0338
  888loPI   GL213190  12.842  11.143   5.799 -0.0380  0.2137  0.0311
  888loPI   C1A13191  12.962  10.603   6.103 -0.0696 -0.0186 -0.0907
  888loPI   C2A13192  12.861  10.523   6.565  0.1466  0.1349  0.0200
  888loPI   C3A13193  12.744  10.643   6.916 -0.1161  0.0775  0.0986
  888loPI   C4A13194  12.573  10.476   7.296  0.1907 -0.0800 -0.1898
  888loPI   C5A13195  12.656  10.211   7.665  0.1749  0.0637  0.4393
  888loPI   C6A13196  12.730  10.011   8.092 -0.1516 -0.1297 -0.1725
  888loPI   C1B13197  12.892  11.131   6.221 -0.0143  0.2328  0.2394
  888loPI   C2B13198  12.812  11.085   6.626 -0.1253  0.3197  0.2082
  888loPI   C3B13199  12.927  11.148   7.006 -0.0787 -0.3536  0.0928
  888loPI   C4B13200  13.107  11.371   7.406 -0.2359 -0.3784 -0.0109
  889loPI    C113201  12.790   7.694   5.053  0.3085 -0.1918  0.1104
  889loPI    C213202  12.965   7.970   4.823 -0.1234 -0.0047 -0.0042
  889loPI    C313203  13.116   7.601   4.841  0.0292  0.0299 -0.4388
  889loPI   PO413204  12.695   7.817   5.229  0.0343 -0.1460 -0.2939
  889loPI   GL113205  12.302   7.852   5.593  0.1568  0.3047 -0.1909
  889loPI   GL213206  12.553   7.815   5.711 -0.2007 -0.1166  0.3009
  889loPI   C1A13207  12.203   7.619   6.005  0.0742  0.0329 -0.1025
  889loPI   C2A13208  12.186   7.484   6.453 -0.1263 -0.1304 -0.1859
  889loPI   C3A13209  12.171   7.194   6.730  0.1149  0.0787 -0.3864
  889loPI   C4A13210  11.854   7.117   7.017 -0.0501 -0.0964 -0.2299
  889loPI   C5A13211  11.764   7.305   7.448 -0.0876  0.2404 -0.2017
  889loPI   C6A13212  11.680   7.482   7.870  0.0450 -0.1427  0.1006
  889loPI   C1B13213  12.488   7.978   6.209 -0.1243 -0.3020  0.1030
  889loPI   C2B13214  12.439   7.990   6.662  0.1688  0.0448  0.0954
  889loPI   C3B13215  12.384   7.642   6.945  0.2794  0.0493  0.2088
  889loPI   C4B13216  12.094   7.507   7.215 -0.1059  0.1604  0.0763
  890loPI    C113217   2.889   9.272   5.047  0.1984 -0.0230  0.0212
  890loPI    C213218   3.229   9.397   4.877  0.1037  0.0430 -0.1216
  890loPI    C313219   3.010   9.112   4.701  0.0812  0.0050 -0.0331
  890loPI   PO413220   2.764   9.497   5.100  0.5473 -0.0165 -0.1572
  890loPI   GL113221   2.785   9.738   5.527 -0.0338  0.0549 -0.1304
  890loPI   GL213222   3.108   9.609   5.418  0.0364 -0.0450  0.0889
  890loPI   C1A13223   3.013   9.950   5.903 -0.5739  0.1929 -0.2611
  890loPI   C2A13224   2.990   9.704   6.393 -0.1873 -0.1750 -0.1120
  890loPI   C3A13225   2.940   9.855   6.837  0.0506  0.0296  0.0829
  890loPI   C4A13226   3.126  10.017   7.118 -0.1897 -0.1159  0.0361
  890loPI   C5A13227   3.226  10.086   7.557  0.1833 -0.0732  0.0143
  890loPI   C6A13228   3.386  10.509   7.736  0.0659 -0.0292  0.1254
  890loPI   C1B13229   3.202   9.459   5.794 -0.0176 -0.0804  0.0587
  890loPI   C2B13230   3.396   9.486   6.232  0.0438  0.1043 -0.0503
  890loPI   C3B13231   3.368   9.567   6.720  0.0794 -0.0844  0.0845
  890loPI   C4B13232   3.366   9.495   7.171  0.0104 -0.3361  0.0466
  891loPI    C113233   1.413   9.247   5.177 -0.0999 -0.0095 -0.2241
  891loPI    C213234   1.531   8.965   4.919 -0.0586 -0.0070 -0.2082
  891loPI    C313235   1.708   9.323   4.918 -0.0282 -0.0216 -0.1466
  891loPI   PO413236   1.396   8.999   5.421 -0.1244  0.1710 -0.0184
  891loPI   GL113237   1.593   9.047   5.778 -0.3401  0.0457 -0.0077
  891loPI   GL213238   1.682   9.388   5.731  0.1323  0.2165  0.0560
  891loPI   C1A13239   1.590   9.158   6.214 -0.1631  0.1559 -0.1610
  891loPI   C2A13240   1.642   9.124   6.783  0.1585 -0.1749  0.0530
  891loPI   C3A13241   1.898   9.133   7.143 -0.2351 -0.0506  0.0584
  891loPI   C4A13242   1.897   9.317   7.574 -0.1106  0.1657  0.0406
  891loPI   C5A13243   1.669   9.562   7.994 -0.0159 -0.2491 -0.1811
  891loPI   C6A13244   1.412   9.853   8.190  0.3537  0.2423 -0.0691
  891loPI   C1B13245   1.501   9.624   6.065  0.2195  0.0030 -0.0013
  891loPI   C2B13246   1.518   9.557   6.531 -0.0594 -0.0461  0.5059
  891loPI   C3B13247   1.408   9.540   6.971  0.1305 -0.0777 -0.0907
  891loPI   C4B13248   1.388   9.172   7.212 -0.0635  0.0299  0.1249
  892loPI    C113249  12.053  17.914   4.785 -0.3058 -0.1980 -0.0177
  892loPI    C213250  11.896  18.049   4.443 -0.0276  0.2106  0.0082
  892loPI    C313251  12.274  18.137   4.537 -0.0235 -0.1069  0.3086
  892loPI   PO413252  11.846  17.917   4.979 -0.0273 -0.3893 -0.0979
  892loPI   GL113253  11.776  17.603   5.374  0.3486 -0.0103 -0.1196
  892loPI   GL213254  11.636  17.886   5.476 -0.2829 -0.1331  0.0441
  892loPI   C1A13255  11.665  17.574   5.812 -0.1555 -0.2514  0.0854
  892loPI   C2A13256  11.433  17.473   6.229  0.1552 -0.2217 -0.1687
  892loPI   C3A13257  11.570  17.253   6.649  0.0190  0.1850 -0.0376
  892loPI   C4A13258  11.407  17.465   7.164 -0.2841 -0.1255 -0.3327
  892loPI   C5A13259  11.300  17.641   7.588  0.0619  0.0359 -0.1556
  892loPI   C6A13260  11.190  17.623   8.036 -0.1976 -0.0987  0.1798
  892loPI   C1B13261  11.540  18.108   5.860 -0.0283 -0.1644 -0.2179
  892loPI   C2B13262  11.395  18.046   6.290  0.2237  0.0993  0.1844
  892loPI   C3B13263  11.574  18.219   6.603  0.1928  0.0146 -0.2376
  892loPI   C4B13264  11.722  18.265   7.044  0.0509  0.1689 -0.1827
  893loPI    C113265  15.945  17.750   4.647 -0.0516 -0.1319 -0.1543
  893loPI    C213266  15.791  18.098   4.770  0.1512 -0.1559  0.1786
  893loPI    C313267  15.816  18.018   4.379 -0.1520  0.0844  0.1058
  893loPI   PO413268  15.996  17.623   4.919  0.1007  0.0759  0.0954
  893loPI   GL113269  16.247  17.593   5.320 -0.0337 -0.2101  0.2267
  893loPI   GL213270  16.485  17.498   5.538 -0.2055  0.0727 -0.0662
  893loPI   C1A13271  16.357  18.008   5.513  0.0725  0.2052  0.0578
  893loPI   C2A13272  16.533  18.186   5.876 -0.0277  0.0505  0.1111
  893loPI   C3A13273  16.490  18.364   6.268 -0.0145 -0.2270 -0.1566
  893loPI   C4A13274  16.273  18.221   6.665 -0.1407 -0.4373 -0.0224
  893loPI   C5A13275  16.157  18.233   7.112  0.0175  0.2955  0.0432
  893loPI   C6A13276  15.700  18.176   7.299 -0.2605  0.0677  0.2216
  893loPI   C1B13277  16.457  17.643   6.025  0.4036 -0.1875  0.0995
  893loPI   C2B13278  16.410  17.624   6.535 -0.0176 -0.0154  0.0939
  893loPI   C3B13279  16.211  17.781   6.943 -0.0702  0.0370 -0.2477
  893loPI   C4B13280  15.984  17.726   7.194 -0.0083  0.1029  0.0619
  894loPI    C113281   4.201  16.588   5.080 -0.1873  0.0699  0.1685
  894loPI    C213282   4.469  16.861   4.962 -0.1000 -0.1108 -0.0586
  894loPI    C313283   4.522  16.475   4.871 -0.3919 -0.1608 -0.0274
  894loPI   PO413284   4.106  16.623   5.320 -0.0560  0.0668 -0.0879
  894loPI   GL113285   4.254  16.522   5.637 -0.1928  0.0501 -0.1063
  894loPI   GL213286   4.117  16.770   5.816  0.1004  0.1615 -0.1181
  894loPI   C1A13287   4.196  16.276   6.011  0.0620  0.1657  0.3560
  894loPI   C2A13288   4.054  16.238   6.382  0.2657  0.1825 -0.0256
  894loPI   C3A13289   3.860  16.321   6.781  0.0085  0.0764 -0.0991
  894loPI   C4A13290   3.523  16.166   7.147  0.1964 -0.3660  0.0645
  894loPI   C5A13291   3.323  16.083   7.444 -0.2046  0.2146  0.1666
  894loPI   C6A13292   3.081  15.854   7.749 -0.2324  0.1711 -0.1343
  894loPI   C1B13293   4.003  16.802   6.224  0.0317  0.1441 -0.1519
  894loPI   C2B13294   3.904  16.841   6.721 -0.1751  0.0344 -0.0116
  894loPI   C3B13295   4.005  16.690   7.197 -0.2437  0.1601  0.1387
  894loPI   C4B13296   3.703  16.584   7.523  0.2133 -0.2993 -0.3610
  895loPI    C113297   5.690  11.232   5.144 -0.0461  0.0542  0.0525
  895loPI    C213298   5.823  10.902   4.962  0.1160  0.0906  0.1029
  895loPI    C313299   5.796  11.245   4.759 -0.1447  0.0261  0.0241
  895loPI   PO413300   5.441  11.158   5.244 -0.2138  0.4021 -0.2129
  895loPI   GL113301   5.354  11.233   5.639  0.2253  0.1411  0.0992
  895loPI   GL213302   5.425  10.886   5.811 -0.0688  0.1748  0.2386
  895loPI   C1A13303   5.329  11.474   5.961 -0.0885  0.2431 -0.0338
  895loPI   C2A13304   5.074  11.540   6.257  0.1568  0.3599 -0.1299
  895loPI   C3A13305   4.854  11.661   6.610 -0.0037  0.0847  0.1608
  895loPI   C4A13306   4.885  11.746   7.066  0.2159  0.7436  0.1101
  895loPI   C5A13307   5.106  11.947   7.368 -0.0221 -0.1890  0.0068
  895loPI   C6A13308   5.419  12.085   7.722  0.0027  0.0149  0.3842
  895loPI   C1B13309   5.498  11.067   6.233 -0.0735 -0.0833 -0.0544
  895loPI   C2B13310   5.614  11.189   6.609 -0.3004 -0.1427 -0.1847
  895loPI   C3B13311   5.531  11.090   6.977 -0.3799 -0.1667 -0.2944
  895loPI   C4B13312   5.215  10.948   7.271  0.1128  0.1572 -0.1931
  896loPI    C113313  13.965  15.739   5.073  0.3781  0.2491 -0.0533
  896loPI    C213314  14.132  15.379   5.120  0.0278  0.0732 -0.1217
  896loPI    C313315  14.054  15.517   4.753  0.1188  0.2007 -0.0940
  896loPI   PO413316  13.730  15.669   5.227 -0.0784  0.1345 -0.1594
  896loPI   GL113317  13.667  15.906   5.452 -0.0232  0.2143 -0.0783
  896loPI   GL213318  13.976  16.057   5.450  0.0972 -0.1283  0.1050
  896loPI   C1A13319  13.654  16.044   5.891 -0.2080  0.0703 -0.1835
  896loPI   C2A13320  13.765  16.220   6.146 -0.0169  0.0411 -0.1032
  896loPI   C3A13321  13.842  16.341   6.611 -0.6018  0.0648 -0.2515
  896loPI   C4A13322  13.684  16.350   7.016 -0.2243 -0.0841  0.2261
  896loPI   C5A13323  13.415  16.395   7.355  0.0836  0.4000 -0.1142
  896loPI   C6A13324  13.225  16.345   7.564 -0.0295 -0.0948 -0.0641
  896loPI   C1B13325  14.165  16.231   5.833  0.0185  0.3329 -0.1467
  896loPI   C2B13326  14.266  16.191   6.260  0.1263 -0.3680 -0.1556
  896loPI   C3B13327  14.397  16.045   6.689  0.2947  0.2821 -0.3481
  896loPI   C4B13328  14.696  15.901   6.831 -0.0536 -0.0174  0.5382
  897loPI    C113329   7.890   5.317   5.160  0.1692 -0.0021 -0.1517
  897loPI    C213330   8.225   5.196   4.977  0.0794 -0.3467 -0.0955
  897loPI    C313331   7.925   5.352   4.763  0.3225  0.0863 -0.1308
  897loPI   PO413332   7.810   5.403   5.476 -0.2422  0.0936  0.2345
  897loPI   GL113333   7.946   5.306   5.771  0.2224  0.0573 -0.0757
  897loPI   GL213334   8.223   5.435   5.867  0.2587  0.2381 -0.0492
  897loPI   C1A13335   7.873   5.234   6.199 -0.0797 -0.0288 -0.0124
  897loPI   C2A13336   8.128   5.216   6.542  0.3681 -0.2099  0.1156
  897loPI   C3A13337   8.051   5.023   6.847 -0.0913 -0.1181 -0.0833
  897loPI   C4A13338   7.890   4.812   7.136  0.0131  0.1391 -0.2449
  897loPI   C5A13339   7.662   4.549   7.477  0.2352 -0.1447 -0.2420
  897loPI   C6A13340   7.265   4.346   7.820  0.1927 -0.2989  0.0401
  897loPI   C1B13341   7.983   5.754   6.196 -0.1097 -0.1581  0.2513
  897loPI   C2B13342   8.001   5.691   6.591  0.0579 -0.1827  0.1592
  897loPI   C3B13343   7.999   5.552   6.945 -0.1607  0.1631 -0.0486
  897loPI   C4B13344   7.746   5.312   7.167  0.1464  0.1178 -0.2743
  898loPI    C113345   6.910   4.090   5.083 -0.0906  0.0540  0.0626
  898loPI    C213346   7.098   4.348   4.841 -0.0663 -0.1081 -0.0929
  898loPI    C313347   6.908   4.031   4.687 -0.0092 -0.2398  0.1039
  898loPI   PO413348   7.094   4.019   5.242 -0.1365  0.0622  0.3057
  898loPI   GL113349   7.424   4.035   5.520  0.0117  0.0765 -0.0088
  898loPI   GL213350   7.700   3.892   5.555 -0.1258 -0.1811  0.1253
  898loPI   C1A13351   7.210   3.883   5.841  0.2750 -0.0401  0.0771
  898loPI   C2A13352   7.267   3.847   6.276  0.0758 -0.0537  0.0487
  898loPI   C3A13353   7.320   3.647   6.652  0.0657  0.2011  0.2165
  898loPI   C4A13354   7.362   3.864   7.042 -0.5418  0.2265  0.0057
  898loPI   C5A13355   7.254   4.247   7.213 -0.0798  0.1444 -0.0177
  898loPI   C6A13356   7.054   4.579   7.444 -0.0294 -0.0029 -0.3439
  898loPI   C1B13357   7.962   4.070   5.890  0.3587  0.0336 -0.2927
  898loPI   C2B13358   8.038   4.186   6.315 -0.0060 -0.1311 -0.1348
  898loPI   C3B13359   8.223   4.033   6.780 -0.3140 -0.1372 -0.4238
  898loPI   C4B13360   8.435   3.784   6.886  0.0264  0.0304  0.1641
  899loPI    C113361   7.388   4.724   5.101  0.1095 -0.1800 -0.0243
  899loPI    C213362   7.625   4.518   4.852  0.1916 -0.3310  0.1763
  899loPI    C313363   7.757   4.856   5.021  0.1077 -0.1865 -0.0435
  899loPI   PO413364   7.332   4.562   5.302 -0.1297 -0.0480 -0.1858
  899loPI   GL113365   7.176   4.510   5.609 -0.2931  0.2276  0.3419
  899loPI   GL213366   6.953   4.259   5.641 -0.1865 -0.2124  0.2512
  899loPI   C1A13367   7.430   4.275   5.967 -0.1649  0.2646 -0.3552
  899loPI   C2A13368   7.500   4.255   6.360  0.2667 -0.3040 -0.0303
  899loPI   C3A13369   7.161   4.155   6.634 -0.1526 -0.0624 -0.0079
  899loPI   C4A13370   6.797   4.308   7.020 -0.2427  0.2493 -0.2471
  899loPI   C5A13371   6.546   4.314   7.395  0.0091 -0.2286 -0.0813
  899loPI   C6A13372   6.539   4.451   7.669 -0.0237  0.2494 -0.1801
  899loPI   C1B13373   6.629   4.466   5.695  0.0207  0.0285 -0.1307
  899loPI   C2B13374   6.455   4.607   6.018 -0.0269  0.0517  0.1341
  899loPI   C3B13375   6.452   4.814   6.425  0.0913  0.1205  0.1994
  899loPI   C4B13376   6.491   4.715   6.830 -0.1932  0.0196 -0.0550
  900loPI    C113377   2.981  11.630   4.787 -0.0060 -0.0164 -0.2725
  900loPI    C213378   3.074  11.241   4.797 -0.1436 -0.0468 -0.1268
  900loPI    C313379   3.235  11.479   4.517  0.0295 -0.1847 -0.1461
  900loPI   PO413380   3.028  11.732   5.058  0.3982  0.0807 -0.1474
  900loPI   GL113381   2.680  11.659   5.381  0.0093  0.0835  0.3231
  900loPI   GL213382   2.580  11.399   5.479 -0.2189  0.2240 -0.1005
  900loPI   C1A13383   2.782  11.942   5.681 -0.1156 -0.0246  0.3836
  900loPI   C2A13384   2.593  12.242   6.046  0.2670 -0.0093 -0.1507
  900loPI   C3A13385   2.594  12.348   6.411  0.2729  0.0218  0.1758
  900loPI   C4A13386   2.605  12.505   6.836 -0.2317 -0.1316 -0.1489
  900loPI   C5A13387   2.591  12.531   7.197 -0.3170 -0.0460  0.0156
  900loPI   C6A13388   2.390  12.405   7.568 -0.1312 -0.2558  0.0883
  900loPI   C1B13389   2.371  11.673   5.844  0.2061 -0.5185  0.0816
  900loPI   C2B13390   2.423  11.788   6.241 -0.0755 -0.1575  0.2403
  900loPI   C3B13391   2.410  11.752   6.675 -0.1932 -0.0111  0.1564
  900loPI   C4B13392   2.196  11.684   7.063 -0.2094 -0.0301  0.2349
  901loPI    C113393  10.635  11.568   5.103  0.1556  0.2211  0.0624
  901loPI    C213394  10.493  11.825   4.831  0.1865 -0.0517 -0.2168
  901loPI    C313395  10.404  11.436   4.804 -0.0403 -0.0460  0.3258
  901loPI   PO413396  10.870  11.701   5.247  0.0993 -0.0313  0.0944
  901loPI   GL113397  10.998  11.980   5.618  0.2169  0.2999 -0.1003
  901loPI   GL213398  10.652  12.122   5.745  0.0809 -0.2119 -0.1604
  901loPI   C1A13399  11.019  11.760   5.963 -0.3754  0.2256 -0.1557
  901loPI   C2A13400  10.917  11.671   6.304  0.2269  0.1530  0.1058
  901loPI   C3A13401  10.891  11.715   6.758 -0.2767  0.0148  0.1402
  901loPI   C4A13402  11.003  11.742   7.245 -0.0366 -0.0458  0.3379
  901loPI   C5A13403  11.022  11.876   7.636 -0.1765 -0.2835  0.1155
  901loPI   C6A13404  11.171  12.333   7.751 -0.0532  0.1547  0.4104
  901loPI   C1B13405  10.514  12.028   6.198  0.0564 -0.2275 -0.1939
  901loPI   C2B13406  10.618  12.125   6.666  0.0848  0.2813 -0.0473
  901loPI   C3B13407  10.553  12.389   7.033 -0.2691  0.1973  0.3410
  901loPI   C4B13408  10.311  12.786   7.119  0.1432 -0.0903 -0.0510
  902loPI    C113409   0.049   6.774   5.109  0.1826  0.0955  0.0129
  902loPI    C213410  -0.138   6.693   4.765  0.0971  0.0289  0.0745
  902loPI    C313411   0.050   7.043   4.813  0.1831  0.0035 -0.0710
  902loPI   PO413412  -0.124   6.762   5.292  0.0971 -0.1185 -0.0091
  902loPI   GL113413  -0.096   6.740   5.788  0.0669 -0.2192 -0.4411
  902loPI   GL213414  -0.117   6.995   5.745 -0.0293  0.2139  0.0910
  902loPI   C1A13415  -0.017   6.530   6.088  0.0734 -0.0107  0.1577
  902loPI   C2A13416  -0.186   6.493   6.464 -0.1066 -0.0954  0.0214
  902loPI   C3A13417  -0.063   6.412   6.810  0.0917 -0.0759 -0.2061
  902loPI   C4A13418  -0.039   6.400   7.217  0.3466  0.1749 -0.0463
  902loPI   C5A13419  -0.071   6.775   7.482  0.1360 -0.1647 -0.1511
  902loPI   C6A13420   0.004   7.202   7.577 -0.1783 -0.1759 -0.0937
  902loPI   C1B13421   0.039   7.063   6.209  0.0351  0.1468 -0.1774
  902loPI   C2B13422   0.163   7.187   6.576  0.1260  0.1423 -0.2176
  902loPI   C3B13423  -0.032   7.376   6.835  0.2046  0.1032  0.2021
  902loPI   C4B13424  -0.198   7.577   7.273  0.1154  0.3428 -0.0125
  903loPI    C113425  12.914  15.422   4.624 -0.0129 -0.0092 -0.1172
  903loPI    C213426  13.201  15.569   4.388  0.0744 -0.2137 -0.1404
  903loPI    C313427  12.821  15.683   4.335  0.1568  0.1041 -0.0709
  903loPI   PO413428  12.930  15.460   4.809 -0.1770  0.0583  0.0723
  903loPI   GL113429  13.071  15.687   5.146  0.3355 -0.2014  0.0065
  903loPI   GL213430  13.232  15.426   5.318 -0.1635 -0.2135  0.0658
  903loPI   C1A13431  12.919  15.731   5.600 -0.0970  0.0195  0.0276
  903loPI   C2A13432  12.963  15.843   6.041  0.1191 -0.1892  0.2231
  903loPI   C3A13433  12.923  15.746   6.493 -0.0058 -0.4299  0.1769
  903loPI   C4A13434  13.017  15.910   6.785  0.0503 -0.0619  0.2146
  903loPI   C5A13435  12.995  16.168   7.113 -0.0815 -0.1524 -0.0223
  903loPI   C6A13436  12.755  16.523   7.267 -0.1236 -0.0877  0.0024
  903loPI   C1B13437  13.031  15.175   5.677  0.1777 -0.3907  0.3394
  903loPI   C2B13438  13.120  15.020   6.121  0.1169 -0.3561 -0.3097
  903loPI   C3B13439  13.201  15.180   6.557  0.3111 -0.1336  0.0108
  903loPI   C4B13440  13.158  15.371   6.859 -0.0454 -0.2380 -0.0170
  904loPI    C113441  17.403   0.877   5.108  0.0899 -0.0376  0.3276
  904loPI    C213442  17.363   0.485   5.173  0.2113 -0.1036  0.0191
  904loPI    C313443  17.715   0.634   5.056  0.2417  0.1391  0.4001
  904loPI   PO413444  17.109   0.975   5.221  0.0303  0.1693  0.1007
  904loPI   GL113445  17.198   1.207   5.602  0.1611  0.0267 -0.1914
  904loPI   GL213446  17.119   1.542   5.615  0.1446  0.1115  0.3131
  904loPI   C1A13447  17.041   1.093   5.939 -0.0205 -0.1464 -0.0009
  904loPI   C2A13448  17.023   1.198   6.316  0.0418 -0.0912  0.4842
  904loPI   C3A13449  17.182   0.968   6.700  0.1718  0.0318 -0.0246
  904loPI   C4A13450  17.449   0.834   6.967 -0.2039  0.0718  0.0037
  904loPI   C5A13451  17.732   0.740   7.452  0.0518  0.1164  0.0204
  904loPI   C6A13452  17.713   0.753   7.858  0.2086  0.2649  0.0708
  904loPI   C1B13453  17.315   1.596   6.007 -0.0060  0.0913  0.3443
  904loPI   C2B13454  17.225   1.593   6.432 -0.2537 -0.0554  0.0944
  904loPI   C3B13455  17.232   1.528   6.825 -0.0622  0.0199  0.0338
  904loPI   C4B13456  17.203   1.644   7.220 -0.1063  0.0654 -0.3275
  905loPI    C113457  11.690   0.632   4.893  0.0442 -0.2415 -0.3867
  905loPI    C213458  11.453   0.309   4.886 -0.1629 -0.0939 -0.2868
  905loPI    C313459  11.427   0.583   4.595 -0.3686  0.0990 -0.0911
  905loPI   PO413460  11.935   0.487   4.959  0.0371 -0.0757  0.1046
  905loPI   GL113461  12.125   0.262   5.328  0.1674 -0.0474 -0.1703
  905loPI   GL213462  12.360   0.494   5.237 -0.0763 -0.0084  0.0023
  905loPI   C1A13463  12.110   0.329   5.788  0.4375  0.1115  0.0217
  905loPI   C2A13464  11.689   0.376   6.003  0.2671 -0.2705 -0.2329
  905loPI   C3A13465  11.441   0.463   6.431  0.2089 -0.1165  0.0552
  905loPI   C4A13466  11.086   0.553   6.648 -0.1320 -0.0291  0.0257
  905loPI   C5A13467  11.259   0.449   7.018  0.4190 -0.3166 -0.1461
  905loPI   C6A13468  11.355   0.189   7.319 -0.0197 -0.3214 -0.1420
  905loPI   C1B13469  12.435   0.675   5.579  0.0629  0.0738  0.1754
  905loPI   C2B13470  12.425   1.071   5.737  0.0982  0.2128  0.1600
  905loPI   C3B13471  12.158   1.256   6.057 -0.1492 -0.1307  0.0936
  905loPI   C4B13472  12.094   1.321   6.462 -0.3942 -0.0857  0.0828
  906loPI    C113473   1.150   7.036   5.259  0.0765  0.0048 -0.1808
  906loPI    C213474   0.955   7.054   4.910 -0.2074  0.1179 -0.0192
  906loPI    C313475   0.969   6.710   5.114 -0.2618  0.1163 -0.0181
  906loPI   PO413476   1.066   7.236   5.402 -0.1098 -0.1042 -0.0988
  906loPI   GL113477   1.167   7.518   5.820 -0.0600  0.1119 -0.0152
  906loPI   GL213478   1.035   7.824   5.968  0.0095 -0.1476  0.0530
  906loPI   C1A13479   1.542   7.746   5.963 -0.0629  0.0802  0.0810
  906loPI   C2A13480   1.454   7.909   6.283 -0.3139  0.0799 -0.2846
  906loPI   C3A13481   1.239   7.923   6.726  0.2416  0.0127  0.0981
  906loPI   C4A13482   1.156   7.927   7.086  0.3109  0.1108  0.1331
  906loPI   C5A13483   0.945   7.710   7.403 -0.1762  0.4266 -0.3841
  906loPI   C6A13484   0.848   7.719   7.800 -0.5330 -0.1094 -0.0105
  906loPI   C1B13485   1.008   8.186   6.299  0.0515 -0.2607  0.0289
  906loPI   C2B13486   1.012   8.414   6.730  0.4734  0.1564  0.0170
  906loPI   C3B13487   1.176   8.428   7.155  0.1009 -0.0073  0.0605
  906loPI   C4B13488   1.044   8.196   7.567  0.1455  0.0161 -0.1683
  907loPI    C113489  17.007  16.416   4.509 -0.2069 -0.0478  0.1321
  907loPI    C213490  17.219  16.082   4.449 -0.0151  0.1044 -0.0535
  907loPI    C313491  16.971  16.216   4.165 -0.0939  0.1196  0.0217
  907loPI   PO413492  17.117  16.466   4.811 -0.0846  0.1377 -0.0774
  907loPI   GL113493  17.148  16.480   5.198  0.1291 -0.0724  0.0608
  907loPI   GL213494  16.990  16.222   5.294 -0.3417  0.2217  0.2213
  907loPI   C1A13495  17.463  16.460   5.539  0.0515 -0.0359  0.2038
  907loPI   C2A13496  17.344  16.480   5.931 -0.3193 -0.2034 -0.1729
  907loPI   C3A13497  17.283  16.484   6.369 -0.2167 -0.0415  0.0475
  907loPI   C4A13498  17.194  16.452   6.884  0.1495 -0.0052 -0.2021
  907loPI   C5A13499  17.097  16.292   7.322 -0.0585  0.1295 -0.1586
  907loPI   C6A13500  17.220  16.059   7.589  0.1451  0.2819  0.0005
  907loPI   C1B13501  16.858  16.258   5.708 -0.5513 -0.0115  0.1577
  907loPI   C2B13502  16.821  16.260   6.157  0.0636 -0.0206  0.1595
  907loPI   C3B13503  16.645  16.192   6.575 -0.2261 -0.0173 -0.2772
  907loPI   C4B13504  16.649  16.251   6.999  0.0874  0.0928 -0.0388
  908loPI    C113505   0.409   4.015   5.110  0.1330  0.0600 -0.0661
  908loPI    C213506   0.561   4.174   4.775 -0.0149  0.0528 -0.1373
  908loPI    C313507   0.165   4.130   4.815 -0.0103  0.2095  0.1086
  908loPI   PO413508   0.544   4.189   5.368 -0.0461 -0.0983  0.1326
  908loPI   GL113509   0.368   4.393   5.666 -0.0220  0.2192 -0.1980
  908loPI   GL213510   0.132   4.609   5.623  0.1960 -0.3330 -0.2021
  908loPI   C1A13511   0.302   4.256   6.073 -0.1088  0.1509 -0.0339
  908loPI   C2A13512   0.203   4.165   6.460  0.2329  0.1472 -0.0468
  908loPI   C3A13513   0.310   3.987   6.825 -0.2318  0.2738  0.4090
  908loPI   C4A13514   0.494   3.950   7.075  0.2712 -0.1502  0.1783
  908loPI   C5A13515   0.564   4.203   7.400 -0.1512 -0.2430 -0.2608
  908loPI   C6A13516   0.292   4.364   7.720  0.0297  0.0620 -0.1605
  908loPI   C1B13517   0.106   4.816   6.052  0.2525  0.3116  0.1111
  908loPI   C2B13518   0.215   4.841   6.388  0.1632 -0.1884  0.1075
  908loPI   C3B13519   0.303   4.873   6.821 -0.0605 -0.0933  0.0867
  908loPI   C4B13520   0.322   4.554   7.127  0.2973  0.0242  0.0437
  909loPI    C113521   4.401   1.001   5.466 -0.0431 -0.2665  0.1739
  909loPI    C213522   4.426   1.241   5.147 -0.0738 -0.2308  0.1984
  909loPI    C313523   4.273   0.873   5.109 -0.0346 -0.2435  0.1626
  909loPI   PO413524   4.402   1.124   5.644 -0.1649  0.0905  0.0399
  909loPI   GL113525   4.329   1.187   6.052  0.1187  0.1842  0.0381
  909loPI   GL213526   4.317   1.573   6.155 -0.0181  0.1392  0.1897
  909loPI   C1A13527   4.289   1.200   6.461  0.0833  0.1728 -0.0822
  909loPI   C2A13528   4.374   1.227   6.982 -0.0426  0.3151 -0.1482
  909loPI   C3A13529   4.523   1.397   7.274 -0.1180  0.1454  0.1392
  909loPI   C4A13530   4.303   1.697   7.520 -0.0431 -0.1588 -0.1676
  909loPI   C5A13531   4.272   2.124   7.403 -0.0113  0.0963 -0.2443
  909loPI   C6A13532   4.148   2.511   7.678 -0.1553 -0.0238  0.1400
  909loPI   C1B13533   4.584   1.643   6.455  0.0487 -0.1666  0.2204
  909loPI   C2B13534   4.813   1.454   6.651 -0.2403  0.0416  0.0936
  909loPI   C3B13535   5.229   1.199   6.627 -0.1632 -0.0723 -0.1873
  909loPI   C4B13536   5.410   0.780   6.442 -0.2491 -0.0589  0.0069
  910loPI    C113537  18.713  15.942   4.544 -0.2978  0.1757 -0.0907
  910loPI    C213538  18.948  16.223   4.384  0.2001 -0.0369  0.2431
  910loPI    C313539  18.907  15.869   4.202 -0.3046  0.1847 -0.0964
  910loPI   PO413540  18.766  15.934   4.813 -0.1286  0.1745 -0.0986
  910loPI   GL113541  18.695  16.218   5.257 -0.1452  0.2110 -0.2646
  910loPI   GL213542  18.993  16.447   5.413 -0.1205  0.2731 -0.3682
  910loPI   C1A13543  18.351  16.268   5.480  0.0212  0.0254 -0.3087
  910loPI   C2A13544  18.492  15.913   5.665  0.2350 -0.0879  0.0394
  910loPI   C3A13545  18.296  15.926   6.099  0.1488 -0.3761  0.2442
  910loPI   C4A13546  18.179  16.009   6.476 -0.3338 -0.0556 -0.2794
  910loPI   C5A13547  18.081  16.429   6.549 -0.2115  0.0120 -0.0663
  910loPI   C6A13548  18.090  16.547   6.998 -0.0258 -0.0293 -0.1995
  910loPI   C1B13549  18.750  16.504   5.671  0.1868 -0.0332  0.1132
  910loPI   C2B13550  18.841  16.743   6.133  0.2416 -0.0043  0.2395
  910loPI   C3B13551  18.606  16.900   6.495 -0.0404  0.2204  0.0358
  910loPI   C4B13552  18.689  16.833   6.916 -0.3404  0.2268  0.2508
  911loPI    C113553   3.601   5.256   5.364  0.0122 -0.2339  0.0841
  911loPI    C213554   3.624   4.959   5.098  0.2183 -0.1602  0.0178
  911loPI    C313555   3.744   5.327   4.998 -0.1330 -0.0287  0.0653
  911loPI   PO413556   3.703   5.230   5.532  0.2151 -0.1801 -0.0678
  911loPI   GL113557   3.822   5.351   5.944 -0.0712 -0.2698  0.2111
  911loPI   GL213558   3.901   5.101   6.030  0.2339  0.1080 -0.1710
  911loPI   C1A13559   3.655   5.529   6.358 -0.1103  0.2764  0.2236
  911loPI   C2A13560   3.395   5.452   6.734 -0.0799  0.2166  0.0031
  911loPI   C3A13561   3.274   5.547   7.107 -0.0582 -0.0546 -0.1379
  911loPI   C4A13562   3.438   5.531   7.485 -0.0965 -0.2855 -0.1110
  911loPI   C5A13563   3.446   5.243   7.831  0.1451  0.4165 -0.0704
  911loPI   C6A13564   3.099   5.225   8.206 -0.1481  0.2930  0.1540
  911loPI   C1B13565   3.620   5.028   6.325 -0.1012 -0.0980  0.0539
  911loPI   C2B13566   3.570   5.012   6.777 -0.2051 -0.0260 -0.0540
  911loPI   C3B13567   3.557   4.758   7.120 -0.1109  0.0630 -0.2864
  911loPI   C4B13568   3.819   4.564   7.379  0.1852  0.0364  0.1491
  912loPI    C113569   9.423   1.406   4.828 -0.0237  0.2653 -0.0573
  912loPI    C213570   9.078   1.414   4.626 -0.0882  0.2065  0.0493
  912loPI    C313571   9.415   1.301   4.442 -0.1315  0.2324 -0.0466
  912loPI   PO413572   9.378   1.274   5.074 -0.1127 -0.0944  0.1910
  912loPI   GL113573   9.604   1.005   5.382  0.2910 -0.0909 -0.2872
  912loPI   GL213574   9.634   1.272   5.513 -0.1442 -0.0266  0.2627
  912loPI   C1A13575   9.484   0.945   5.814 -0.5010  0.2275  0.3956
  912loPI   C2A13576   9.276   1.002   6.172 -0.1305  0.1575  0.0516
  912loPI   C3A13577   9.242   0.916   6.606 -0.1230 -0.0140 -0.0026
  912loPI   C4A13578   9.333   0.816   7.031  0.1465 -0.0766 -0.4001
  912loPI   C5A13579   9.600   0.852   7.216 -0.0214 -0.2985  0.4087
  912loPI   C6A13580   9.939   0.685   7.418  0.1333 -0.0072  0.0857
  912loPI   C1B13581   9.748   1.293   5.979  0.1304 -0.0112 -0.1447
  912loPI   C2B13582   9.933   1.269   6.403 -0.0650 -0.0699  0.0489
  912loPI   C3B13583   9.992   1.357   6.827  0.0953 -0.1138  0.2381
  912loPI   C4B13584  10.065   1.105   7.260  0.5161  0.1970  0.0645
  913loPI    C113585   5.924   8.280   5.394  0.1354  0.0661 -0.0313
  913loPI    C213586   5.918   8.343   4.999 -0.0477  0.0180 -0.0371
  913loPI    C313587   5.690   8.566   5.240 -0.0945 -0.0917  0.0207
  913loPI   PO413588   6.017   8.034   5.408 -0.4304 -0.0203 -0.3406
  913loPI   GL113589   6.086   7.758   5.703  0.1463  0.0271 -0.4690
  913loPI   GL213590   6.364   7.726   5.897  0.0405 -0.2500 -0.1522
  913loPI   C1A13591   5.981   7.434   5.913  0.0988 -0.3840 -0.2504
  913loPI   C2A13592   5.773   7.148   6.240 -0.0150  0.0315 -0.1520
  913loPI   C3A13593   5.869   6.984   6.551 -0.0976 -0.1146 -0.1693
  913loPI   C4A13594   5.897   6.913   6.976 -0.0970 -0.1558 -0.1881
  913loPI   C5A13595   6.198   6.823   7.418  0.0845 -0.2982 -0.0379
  913loPI   C6A13596   6.672   6.813   7.481 -0.0880  0.1251 -0.0836
  913loPI   C1B13597   6.397   7.700   6.258  0.2006  0.2199  0.0266
  913loPI   C2B13598   6.385   7.764   6.759 -0.2571 -0.4563  0.1068
  913loPI   C3B13599   6.102   7.892   7.031  0.1176  0.0797  0.0793
  913loPI   C4B13600   5.938   7.696   7.367  0.4404  0.0087 -0.1816
  914loPI    C113601  16.121  14.865   4.283  0.0381  0.1806  0.1282
  914loPI    C213602  16.313  14.525   4.367  0.0184  0.2079  0.2877
  914loPI    C313603  15.967  14.515   4.166  0.0750  0.1426  0.1928
  914loPI   PO413604  16.086  14.990   4.502 -0.0960  0.1464 -0.0713
  914loPI   GL113605  16.220  14.796   4.830 -0.2715  0.3482 -0.0119
  914loPI   GL213606  16.307  14.438   4.950  0.2048  0.0257 -0.0549
  914loPI   C1A13607  16.139  14.966   5.170 -0.1276  0.1593  0.0940
  914loPI   C2A13608  16.195  15.056   5.460 -0.0170  0.0649  0.1261
  914loPI   C3A13609  15.967  15.097   5.906 -0.0058  0.0531  0.1637
  914loPI   C4A13610  16.085  15.038   6.288  0.1830 -0.1941  0.3757
  914loPI   C5A13611  16.091  15.280   6.628 -0.0464  0.0583 -0.1951
  914loPI   C6A13612  16.285  15.437   6.956 -0.3234 -0.1947  0.0926
  914loPI   C1B13613  16.382  14.487   5.445 -0.2207  0.1994 -0.2877
  914loPI   C2B13614  16.453  14.793   5.915  0.3273 -0.4430  0.0192
  914loPI   C3B13615  16.683  14.717   6.276 -0.3070 -0.2305  0.2039
  914loPI   C4B13616  16.954  14.533   6.481 -0.1381 -0.0302  0.0549
  915loPI    C113617  12.449  18.871   4.533  0.1416 -0.0271  0.0298
  915loPI    C213618  12.659  18.534   4.486  0.0742 -0.0831  0.1265
  915loPI    C313619  12.437  18.675   4.185 -0.0511 -0.2307  0.1483
  915loPI   PO413620  12.278  18.883   4.801  0.1123  0.0390  0.1468
  915loPI   GL113621  12.442  18.885   5.244 -0.0021 -0.0650 -0.0169
  915loPI   GL213622  12.195  18.735   5.418 -0.0597  0.0816 -0.5740
  915loPI   C1A13623  12.622  19.136   5.569  0.0364  0.1662 -0.0728
  915loPI   C2A13624  12.547  19.286   5.967 -0.1345  0.1424  0.1382
  915loPI   C3A13625  12.469  19.645   6.133 -0.1021  0.0097 -0.2659
  915loPI   C4A13626  12.448  19.849   6.510  0.1819  0.0606  0.0216
  915loPI   C5A13627  12.644  20.088   6.839 -0.1185  0.1303  0.1580
  915loPI   C6A13628  12.878  20.173   7.235 -0.0568  0.0341 -0.1451
  915loPI   C1B13629  12.287  18.816   5.964 -0.1682 -0.1887 -0.0801
  915loPI   C2B13630  12.159  18.750   6.361 -0.1285  0.0242 -0.1786
  915loPI   C3B13631  11.872  18.636   6.751  0.2258 -0.2007  0.0316
  915loPI   C4B13632  11.651  18.779   7.162 -0.1982  0.2700  0.0605
  916loPI    C113633  10.937  18.015   4.763 -0.0793  0.0733  0.0222
  916loPI    C213634  10.908  17.803   4.424  0.0756  0.1123 -0.0160
  916loPI    C313635  10.690  18.135   4.472  0.0182  0.0807 -0.0579
  916loPI   PO413636  10.876  17.808   5.001  0.2470  0.3362  0.0649
  916loPI   GL113637  10.815  17.851   5.410 -0.1152 -0.1132  0.1622
  916loPI   GL213638  11.136  18.151   5.567 -0.0145 -0.0282  0.3038
  916loPI   C1A13639  10.655  17.850   5.840 -0.1135  0.3921 -0.4927
  916loPI   C2A13640  10.446  17.702   6.243  0.0111  0.1956  0.0732
  916loPI   C3A13641  10.309  17.623   6.616  0.3768 -0.0334  0.1899
  916loPI   C4A13642  10.041  17.526   7.041 -0.0461 -0.0209  0.3726
  916loPI   C5A13643   9.831  17.552   7.442 -0.1279  0.2263 -0.0122
  916loPI   C6A13644   9.774  17.153   7.568  0.0348 -0.0347 -0.0545
  916loPI   C1B13645  11.023  18.160   5.978  0.1391  0.0369 -0.0433
  916loPI   C2B13646  11.071  18.502   6.305  0.0361  0.1328  0.0671
  916loPI   C3B13647  11.315  18.687   6.652  0.0513  0.0216 -0.0484
  916loPI   C4B13648  11.218  18.947   6.837  0.1568  0.1439 -0.2960
  917loPI    C113649   0.484  18.829   5.032  0.1323  0.1882 -0.0364
  917loPI    C213650   0.097  18.820   4.932  0.1072  0.1444  0.0626
  917loPI    C313651   0.321  19.139   4.839  0.0615  0.1455 -0.0455
  917loPI   PO413652   0.508  18.697   5.275 -0.0775  0.2405 -0.1158
  917loPI   GL113653   0.248  18.349   5.409 -0.1670  0.1829 -0.1778
  917loPI   GL213654   0.548  18.314   5.639 -0.3633  0.0761 -0.2009
  917loPI   C1A13655   0.206  18.574   5.828  0.2701  0.1461  0.0823
  917loPI   C2A13656   0.057  18.477   6.168 -0.0820  0.2239  0.3182
  917loPI   C3A13657  -0.004  18.597   6.556 -0.0430  0.1101 -0.1626
  917loPI   C4A13658  -0.089  18.734   6.958 -0.1004  0.0636 -0.2498
  917loPI   C5A13659  -0.268  19.113   7.180  0.2969  0.0611  0.2009
  917loPI   C6A13660  -0.113  19.160   7.579 -0.2167 -0.0540 -0.0623
  917loPI   C1B13661   0.607  18.149   6.125  0.0316  0.2920 -0.0989
  917loPI   C2B13662   0.719  17.930   6.443 -0.2964  0.0321  0.0953
  917loPI   C3B13663   0.748  18.030   6.861 -0.0004  0.3941  0.1685
  917loPI   C4B13664   0.712  17.736   7.276  0.0240  0.0558 -0.2863
  918loPI    C113665   9.225   3.254   5.003  0.4003  0.2534  0.3280
  918loPI    C213666   9.015   3.582   4.912  0.1032  0.0034  0.0857
  918loPI    C313667   9.347   3.494   4.707  0.0230  0.0021 -0.0449
  918loPI   PO413668   9.144   3.284   5.296  0.1278 -0.2668  0.1117
  918loPI   GL113669   9.148   3.050   5.739 -0.1333  0.2817  0.0374
  918loPI   GL213670   8.868   2.839   5.764 -0.0901 -0.0369 -0.1001
  918loPI   C1A13671   9.302   2.822   6.285  0.3049  0.2577 -0.0403
  918loPI   C2A13672   9.303   2.655   6.772 -0.0262 -0.0562  0.2178
  918loPI   C3A13673   9.108   2.858   7.134  0.4063 -0.2203 -0.1613
  918loPI   C4A13674   8.997   3.258   7.388  0.1097  0.1376 -0.1178
  918loPI   C5A13675   9.024   3.663   7.680  0.2467 -0.2090 -0.0990
  918loPI   C6A13676   8.950   4.042   7.906 -0.1593 -0.0035 -0.1616
  918loPI   C1B13677   8.984   2.500   6.056 -0.2599  0.1047  0.1054
  918loPI   C2B13678   9.029   2.365   6.465  0.1423 -0.1695 -0.1946
  918loPI   C3B13679   8.960   2.212   6.925  0.0828 -0.0515 -0.3013
  918loPI   C4B13680   9.013   2.420   7.245  0.0101 -0.4267 -0.1537
  919loPI    C113681   3.755  14.467   5.179 -0.1049 -0.0716 -0.0288
  919loPI    C213682   3.453  14.302   4.975 -0.0595  0.0819 -0.2224
  919loPI    C313683   3.602  14.656   4.862 -0.1590  0.2622  0.1908
  919loPI   PO413684   3.675  14.256   5.410  0.1991 -0.0504  0.0578
  919loPI   GL113685   3.776  14.164   5.825 -0.1943  0.3270  0.1238
  919loPI   GL213686   3.918  14.347   6.150 -0.0705  0.3361  0.1277
  919loPI   C1A13687   3.417  13.920   6.033 -0.0903 -0.0939 -0.0556
  919loPI   C2A13688   3.210  13.720   6.348  0.2631  0.1990  0.0119
  919loPI   C3A13689   3.060  13.838   6.740  0.0620  0.0694  0.2196
  919loPI   C4A13690   2.891  13.805   7.126  0.1654  0.0414  0.1870
  919loPI   C5A13691   2.598  13.856   7.449 -0.0748  0.0230 -0.0415
  919loPI   C6A13692   2.441  13.812   7.902 -0.1513 -0.3419 -0.1594
  919loPI   C1B13693   3.656  14.087   6.435  0.1873  0.0890  0.0104
  919loPI   C2B13694   3.502  14.094   6.890 -0.1127  0.1383  0.0010
  919loPI   C3B13695   3.333  14.025   7.190  0.2699  0.2967  0.1636
  919loPI   C4B13696   3.094  14.106   7.525 -0.0298  0.2522 -0.0496
  920loPI    C113697   8.747   9.817   5.129 -0.1818 -0.1659 -0.0444
  920loPI    C213698   8.438   9.773   4.879  0.0214 -0.0017 -0.3302
  920loPI    C313699   8.402  10.003   5.205 -0.1583  0.0118 -0.3589
  920loPI   PO413700   8.795   9.521   5.153 -0.1333  0.1109  0.0017
  920loPI   GL113701   8.859   9.155   5.395 -0.4380 -0.0564  0.1858
  920loPI   GL213702   8.668   9.203   5.548  0.0797 -0.2834  0.1558
  920loPI   C1A13703   8.997   8.866   5.712 -0.1369  0.1150 -0.1275
  920loPI   C2A13704   8.974   8.867   6.243 -0.3730 -0.1909 -0.1382
  920loPI   C3A13705   8.942   9.025   6.618 -0.3313  0.0832 -0.1719
  920loPI   C4A13706   8.926   9.451   6.796 -0.1874 -0.0966  0.2447
  920loPI   C5A13707   9.160   9.749   7.021  0.3851 -0.1801 -0.2100
  920loPI   C6A13708   9.441   9.806   7.254 -0.1134  0.0842  0.0826
  920loPI   C1B13709   8.400   9.285   5.839  0.2275 -0.1768 -0.2795
  920loPI   C2B13710   8.120   9.299   6.113 -0.1668  0.1182  0.0967
  920loPI   C3B13711   8.062   9.349   6.536 -0.0818 -0.2096 -0.0195
  920loPI   C4B13712   7.705   9.514   6.832 -0.1501 -0.0191 -0.1070
  921loPI    C113713  10.429   1.752   4.861  0.1566  0.0372 -0.0497
  921loPI    C213714  10.273   1.518   4.576 -0.1643 -0.0729  0.2102
  921loPI    C313715  10.598   1.738   4.498 -0.0616 -0.3401 -0.1426
  921loPI   PO413716  10.203   1.885   4.976 -0.2232  0.3283  0.2256
  921loPI   GL113717   9.961   1.946   5.349  0.0567  0.3164 -0.3337
  921loPI   GL213718   9.670   2.172   5.449 -0.1650  0.3169  0.3045
  921loPI   C1A13719  10.092   1.719   5.725 -0.3144 -0.2922  0.0269
  921loPI   C2A13720   9.969   1.714   6.152 -0.1617  0.2161 -0.0337
  921loPI   C3A13721   9.865   1.744   6.579  0.1826  0.1031 -0.1812
  921loPI   C4A13722   9.716   1.722   7.047 -0.0179  0.1089 -0.2137
  921loPI   C5A13723   9.992   1.562   7.411 -0.0502 -0.1515 -0.2082
  921loPI   C6A13724  10.471   1.594   7.441 -0.0155  0.1446  0.0842
  921loPI   C1B13725   9.858   2.198   5.766 -0.0470 -0.0725 -0.0535
  921loPI   C2B13726   9.809   2.505   6.145  0.0603  0.2441 -0.0234
  921loPI   C3B13727   9.696   2.412   6.546 -0.0936  0.3412  0.1738
  921loPI   C4B13728   9.473   2.229   7.025  0.1071 -0.4281 -0.0627
  922loPI    C113729   1.233  18.766   5.001  0.1266  0.1325 -0.2777
  922loPI    C213730   1.158  18.375   5.035  0.1686  0.1527  0.0853
  922loPI    C313731   0.897  18.613   4.847  0.0321 -0.0124  0.0626
  922loPI   PO413732   1.337  18.774   5.265 -0.3529 -0.1110 -0.0658
  922loPI   GL113733   1.291  18.910   5.667 -0.1102  0.2088  0.3228
  922loPI   GL213734   1.482  18.710   5.806  0.2013 -0.0588 -0.1654
  922loPI   C1A13735   0.912  18.539   5.941  0.2481 -0.0374 -0.1108
  922loPI   C2A13736   0.495  18.633   6.253 -0.0011  0.0144 -0.3073
  922loPI   C3A13737   0.438  18.404   6.552 -0.0403  0.0363  0.2034
  922loPI   C4A13738   0.242  17.998   6.592  0.0601  0.1339 -0.2612
  922loPI   C5A13739   0.105  17.775   6.242  0.1212 -0.0213 -0.2782
  922loPI   C6A13740  -0.104  17.665   5.852 -0.1931 -0.0938  0.0331
  922loPI   C1B13741   1.291  18.773   6.250  0.2010 -0.0353  0.0294
  922loPI   C2B13742   1.093  18.869   6.601 -0.0423 -0.0180 -0.1697
  922loPI   C3B13743   0.792  19.018   7.073  0.1675  0.1281  0.1098
  922loPI   C4B13744   0.866  19.009   7.534 -0.1910  0.2201  0.0944
  923loPI    C113745   0.622   8.510   5.025 -0.0039  0.0345  0.0252
  923loPI    C213746   0.637   8.781   4.731 -0.0910 -0.0168 -0.0274
  923loPI    C313747   0.289   8.699   4.909 -0.0225  0.0834  0.1566
  923loPI   PO413748   0.796   8.558   5.163 -0.1421 -0.3694  0.0636
  923loPI   GL113749   0.994   8.749   5.531  0.1470  0.2259 -0.0149
  923loPI   GL213750   0.891   8.951   5.520 -0.1232  0.1816 -0.1423
  923loPI   C1A13751   1.135   8.748   5.943  0.2586 -0.2432 -0.1745
  923loPI   C2A13752   1.354   8.567   6.378  0.2650 -0.1426  0.1776
  923loPI   C3A13753   1.672   8.360   6.763  0.0837 -0.1336 -0.1021
  923loPI   C4A13754   1.604   8.163   7.163 -0.0350  0.2022 -0.1180
  923loPI   C5A13755   1.518   8.401   7.563  0.1594 -0.0835 -0.2041
  923loPI   C6A13756   1.469   8.495   7.957 -0.0301  0.0047  0.0623
  923loPI   C1B13757   0.656   8.892   5.903  0.2684 -0.1895  0.1413
  923loPI   C2B13758   0.644   9.142   6.272 -0.0076  0.0356 -0.1919
  923loPI   C3B13759   0.497   9.528   6.253  0.1410 -0.2844 -0.1034
  923loPI   C4B13760   0.361   9.776   6.622  0.0084 -0.1252  0.1294
  924loPI    C113761  18.467   3.451   4.963 -0.0030 -0.4231  0.1711
  924loPI    C213762  18.195   3.226   4.774  0.0384 -0.1161 -0.2710
  924loPI    C313763  18.530   3.337   4.585  0.0892  0.1913 -0.0107
  924loPI   PO413764  18.403   3.656   5.067 -0.3171 -0.0232 -0.4622
  924loPI   GL113765  18.501   3.946   5.389 -0.0336  0.1214  0.2625
  924loPI   GL213766  18.623   4.381   5.616 -0.0488 -0.3592  0.0019
  924loPI   C1A13767  18.470   3.741   5.787  0.1375 -0.2555  0.0459
  924loPI   C2A13768  18.407   3.694   6.280 -0.0114 -0.1037 -0.2399
  924loPI   C3A13769  18.436   3.643   6.798 -0.0300  0.2083  0.1994
  924loPI   C4A13770  18.076   3.658   7.099 -0.1797  0.0862 -0.1018
  924loPI   C5A13771  17.973   3.276   7.194  0.0939  0.0663  0.0312
  924loPI   C6A13772  18.302   3.165   7.478 -0.1678 -0.1865 -0.1644
  924loPI   C1B13773  18.714   4.464   5.922  0.1256 -0.0276 -0.0530
  924loPI   C2B13774  18.814   4.501   6.401  0.1045  0.0454  0.1984
  924loPI   C3B13775  18.787   4.498   6.846  0.1500 -0.0394 -0.1806
  924loPI   C4B13776  18.817   4.571   7.288  0.0281  0.0283 -0.0371
  925loPI    C113777  13.695   6.846   5.009 -0.1828  0.2428 -0.2402
  925loPI    C213778  14.063   6.780   4.867 -0.0448  0.2895  0.0866
  925loPI    C313779  13.759   6.841   4.614  0.0869 -0.1835 -0.1975
  925loPI   PO413780  13.717   6.929   5.174  0.1689 -0.0473  0.2267
  925loPI   GL113781  13.728   7.097   5.506  0.1117  0.1593 -0.1256
  925loPI   GL213782  13.632   7.405   5.577 -0.1123 -0.2035 -0.1447
  925loPI   C1A13783  13.928   6.933   5.980  0.0388 -0.0726  0.1118
  925loPI   C2A13784  14.048   6.825   6.285  0.0206 -0.1217  0.0283
  925loPI   C3A13785  14.133   6.910   6.665 -0.0626  0.2459  0.2485
  925loPI   C4A13786  13.936   6.903   7.101  0.0212 -0.2988 -0.0314
  925loPI   C5A13787  13.914   6.593   7.379 -0.1936 -0.4854 -0.0595
  925loPI   C6A13788  13.650   6.307   7.661 -0.0979  0.0977  0.0868
  925loPI   C1B13789  13.833   7.423   5.965 -0.1482 -0.0652  0.1913
  925loPI   C2B13790  13.852   7.323   6.353  0.1232  0.1365 -0.3249
  925loPI   C3B13791  13.636   7.212   6.838 -0.1622  0.2064  0.1011
  925loPI   C4B13792  13.412   6.872   7.153 -0.0955 -0.1595  0.2107
  926loPI    C113793   0.831  11.617   5.209 -0.0159 -0.0303  0.2068
  926loPI    C213794   0.775  11.942   4.983  0.1450  0.0880  0.3343
  926loPI    C313795   0.567  11.609   4.908  0.3173  0.0699 -0.0954
  926loPI   PO413796   0.727  11.663   5.445 -0.2114 -0.1606  0.0929
  926loPI   GL113797   0.772  11.662   5.823  0.2861 -0.2464 -0.2622
  926loPI   GL213798   0.339  11.694   5.785  0.2027  0.6086  0.0018
  926loPI   C1A13799   0.801  11.642   6.250 -0.1012  0.2761 -0.0916
  926loPI   C2A13800   0.911  11.651   6.671  0.1228 -0.2871  0.1580
  926loPI   C3A13801   0.857  11.943   6.971 -0.0237  0.0265 -0.2288
  926loPI   C4A13802   0.803  12.212   7.372  0.1845  0.1284 -0.0145
  926loPI   C5A13803   0.374  12.338   7.583  0.2314 -0.1176  0.0788
  926loPI   C6A13804  -0.026  12.520   7.788 -0.2980 -0.0705  0.0315
  926loPI   C1B13805   0.370  11.597   6.144  0.2078 -0.0335  0.1690
  926loPI   C2B13806   0.418  11.542   6.579  0.0451  0.1844  0.1358
  926loPI   C3B13807   0.269  11.537   6.971 -0.1736  0.1357  0.2678
  926loPI   C4B13808   0.137  11.399   7.315 -0.0788  0.2227 -0.1796
  927loPI    C113809  13.422   4.930   4.715  0.2435  0.1300 -0.0545
  927loPI    C213810  13.750   5.078   4.541  0.2664 -0.0422 -0.1603
  927loPI    C313811  13.659   4.691   4.499 -0.1021  0.0629 -0.3700
  927loPI   PO413812  13.435   5.079   4.935  0.0703  0.0608 -0.1722
  927loPI   GL113813  13.692   4.926   5.299 -0.0958  0.2119  0.1279
  927loPI   GL213814  13.772   5.101   5.465 -0.1519  0.1880  0.2316
  927loPI   C1A13815  13.806   4.584   5.709  0.1681  0.1429 -0.3461
  927loPI   C2A13816  13.555   4.525   6.030 -0.2596  0.1018 -0.2046
  927loPI   C3A13817  13.664   4.679   6.537  0.1491  0.2515 -0.0238
  927loPI   C4A13818  13.499   4.844   6.905  0.0155 -0.0461 -0.1053
  927loPI   C5A13819  13.245   4.992   7.216 -0.3189  0.2429  0.3008
  927loPI   C6A13820  13.227   5.282   7.423  0.0675 -0.0909  0.0438
  927loPI   C1B13821  13.823   5.092   5.883  0.2031 -0.1043 -0.3159
  927loPI   C2B13822  13.894   5.004   6.250  0.0513  0.1246  0.1301
  927loPI   C3B13823  14.275   4.708   6.473  0.2352 -0.0182  0.1391
  927loPI   C4B13824  14.429   4.616   6.889  0.1591 -0.0316 -0.2401
  928loPI    C113825  15.873   2.729   4.642 -0.0544 -0.0235 -0.1106
  928loPI    C213826  16.200   2.766   4.869 -0.1110  0.1676 -0.0588
  928loPI    C313827  16.137   3.019   4.566 -0.2126  0.1337 -0.0663
  928loPI   PO413828  15.691   2.704   4.880 -0.0181  0.0277  0.1779
  928loPI   GL113829  15.573   2.736   5.219  0.0087 -0.1131 -0.2459
  928loPI   GL213830  15.282   2.937   5.228 -0.3115 -0.1912 -0.1248
  928loPI   C1A13831  15.710   2.730   5.722 -0.0558  0.2338 -0.0825
  928loPI   C2A13832  15.781   2.613   6.044  0.1755  0.1526  0.2553
  928loPI   C3A13833  15.770   2.491   6.536 -0.2451 -0.2330 -0.0449
  928loPI   C4A13834  15.513   2.465   6.860 -0.0423 -0.0896  0.0385
  928loPI   C5A13835  15.739   2.611   7.176 -0.1817  0.1470  0.3705
  928loPI   C6A13836  16.119   2.619   7.394  0.1647  0.2158 -0.0924
  928loPI   C1B13837  15.194   2.861   5.668  0.0313 -0.0974  0.2375
  928loPI   C2B13838  15.330   2.801   6.025  0.1780 -0.0386  0.0235
  928loPI   C3B13839  15.394   2.881   6.412  0.2367  0.1168  0.2733
  928loPI   C4B13840  15.666   2.954   6.805 -0.1549  0.1627  0.0541
  929loPI    C113841  18.001  18.825   4.469 -0.0055 -0.0210 -0.1841
  929loPI    C213842  17.889  18.459   4.350 -0.0987 -0.0159 -0.1132
  929loPI    C313843  17.739  18.783   4.169  0.0550 -0.0136 -0.2382
  929loPI   PO413844  18.106  18.857   4.755 -0.1154  0.0380 -0.1369
  929loPI   GL113845  18.015  18.746   5.112  0.0151  0.0913 -0.2838
  929loPI   GL213846  17.791  19.072   5.174 -0.0547 -0.1439 -0.0902
  929loPI   C1A13847  17.799  18.551   5.537  0.6403 -0.2168  0.1255
  929loPI   C2A13848  17.886  18.181   5.759 -0.1405 -0.0133 -0.1934
  929loPI   C3A13849  17.838  17.738   5.950 -0.0948  0.1672  0.0004
  929loPI   C4A13850  17.800  17.700   6.463 -0.2229  0.1068  0.0130
  929loPI   C5A13851  18.136  17.948   6.721 -0.2736  0.2073 -0.0817
  929loPI   C6A13852  18.424  18.003   6.987 -0.2111  0.2388 -0.0666
  929loPI   C1B13853  17.800  19.246   5.448  0.0894  0.2594 -0.0277
  929loPI   C2B13854  17.652  19.616   5.503  0.1055 -0.0062  0.2605
  929loPI   C3B13855  17.588  19.929   5.879  0.1745 -0.1907 -0.2497
  929loPI   C4B13856  17.518  20.044   6.381 -0.1918 -0.2507  0.0714
  930loPI    C113857   7.106   1.367   4.970  0.0671 -0.1422 -0.0852
  930loPI    C213858   7.417   1.456   4.734  0.0473 -0.0563 -0.0792
  930loPI    C313859   7.050   1.422   4.578  0.0318  0.0148 -0.0590
  930loPI   PO413860   7.140   1.600   5.240  0.2157 -0.0469 -0.0280
  930loPI   GL113861   7.341   1.712   5.641 -0.1880 -0.1077 -0.0932
  930loPI   GL213862   7.165   2.006   5.773 -0.2382 -0.0747  0.2304
  930loPI   C1A13863   7.626   1.772   5.997  0.1932 -0.4024  0.0475
  930loPI   C2A13864   7.494   1.964   6.429 -0.0245 -0.3033 -0.1328
  930loPI   C3A13865   7.252   1.852   6.850  0.0259 -0.0203  0.0488
  930loPI   C4A13866   7.281   2.129   7.192  0.2225  0.1102  0.0847
  930loPI   C5A13867   7.367   2.083   7.655  0.1062  0.1190 -0.1100
  930loPI   C6A13868   7.665   1.958   7.904  0.1165  0.1482 -0.2027
  930loPI   C1B13869   7.056   2.137   6.287 -0.1619  0.0220 -0.2014
  930loPI   C2B13870   6.842   2.189   6.700  0.2850 -0.3027 -0.3176
  930loPI   C3B13871   6.819   2.312   7.124  0.0243  0.1623 -0.1892
  930loPI   C4B13872   6.887   2.396   7.537  0.1847 -0.0789 -0.0776
  931loPI    C113873  10.622   6.937   5.188  0.1290  0.0480  0.0065
  931loPI    C213874  10.379   7.061   4.896 -0.1874 -0.0029  0.2423
  931loPI    C313875  10.720   6.872   4.806 -0.4135 -0.2643 -0.0898
  931loPI   PO413876  10.473   6.822   5.405 -0.1931  0.2040  0.1456
  931loPI   GL113877  10.617   6.787   5.780  0.4060 -0.2088  0.0749
  931loPI   GL213878  10.903   6.612   5.709 -0.1358  0.0153  0.0637
  931loPI   C1A13879  10.498   6.799   6.175 -0.2813  0.1686 -0.1876
  931loPI   C2A13880  10.480   6.829   6.597 -0.1563 -0.1720  0.2915
  931loPI   C3A13881  10.509   6.679   6.975  0.1984  0.2526 -0.0204
  931loPI   C4A13882  10.307   6.458   7.189  0.0979 -0.1206  0.0980
  931loPI   C5A13883   9.933   6.359   7.191 -0.1293  0.0331 -0.0932
  931loPI   C6A13884   9.547   6.152   6.941  0.1973 -0.2851  0.0764
  931loPI   C1B13885  10.802   6.403   6.099 -0.0195  0.4267 -0.0869
  931loPI   C2B13886  10.766   6.301   6.495 -0.0681 -0.0105  0.3052
  931loPI   C3B13887  10.798   6.223   6.846 -0.1255  0.0649 -0.3954
  931loPI   C4B13888  10.812   6.252   7.209  0.0605  0.0648 -0.0310
  932loPI    C113889  15.851  15.821   4.664 -0.0916 -0.1488  0.0039
  932loPI    C213890  15.662  16.112   4.465  0.0013 -0.0691  0.0316
  932loPI    C313891  16.028  15.998   4.352 -0.1326 -0.3461 -0.1331
  932loPI   PO413892  15.899  15.947   4.954  0.0556 -0.1120  0.2066
  932loPI   GL113893  15.953  15.651   5.214  0.3415 -0.1237 -0.1369
  932loPI   GL213894  15.729  15.439   5.120 -0.1501 -0.0613  0.1172
  932loPI   C1A13895  15.744  15.949   5.555 -0.1435 -0.0641  0.0913
  932loPI   C2A13896  15.782  16.111   6.014 -0.2793  0.1009 -0.2137
  932loPI   C3A13897  15.444  16.303   6.310 -0.1671 -0.2761  0.2459
  932loPI   C4A13898  15.339  16.491   6.657  0.3359 -0.0651 -0.2124
  932loPI   C5A13899  15.294  16.866   6.959  0.0127  0.1664  0.2193
  932loPI   C6A13900  15.176  17.227   7.227 -0.1763 -0.1773 -0.5287
  932loPI   C1B13901  15.723  15.235   5.521 -0.0311  0.2867  0.0667
  932loPI   C2B13902  15.672  15.561   5.942  0.2401 -0.0663 -0.0737
  932loPI   C3B13903  15.459  15.773   6.276 -0.0216  0.0853  0.3192
  932loPI   C4B13904  15.210  15.909   6.620  0.2146 -0.1020  0.2164
  933loPI    C113905   8.908   5.128   5.119 -0.1735  0.0419 -0.1625
  933loPI    C213906   9.179   5.420   5.142 -0.2982  0.1572 -0.1414
  933loPI    C313907   9.079   5.268   4.786 -0.1081  0.0204 -0.1380
  933loPI   PO413908   8.757   5.084   5.321  0.3757  0.1312 -0.1000
  933loPI   GL113909   8.791   4.811   5.732  0.0165  0.1520  0.2712
  933loPI   GL213910   8.482   4.924   5.755 -0.1876  0.0289  0.1302
  933loPI   C1A13911   9.081   4.854   5.985  0.2556 -0.1008 -0.0763
  933loPI   C2A13912   8.985   4.791   6.455  0.1421  0.1735  0.0183
  933loPI   C3A13913   8.957   4.783   6.940  0.1790  0.2515  0.2331
  933loPI   C4A13914   8.596   4.618   7.171 -0.2754 -0.0395 -0.1300
  933loPI   C5A13915   8.486   4.142   7.261  0.3118 -0.0368 -0.0619
  933loPI   C6A13916   8.197   3.865   7.320 -0.1444 -0.1117  0.0181
  933loPI   C1B13917   8.468   4.893   6.162  0.0361  0.2310  0.1900
  933loPI   C2B13918   8.445   4.774   6.643  0.1043 -0.2276  0.3236
  933loPI   C3B13919   8.174   4.511   6.845  0.1377 -0.1741 -0.1704
  933loPI   C4B13920   7.870   4.267   7.070 -0.1349  0.1844  0.2843
  934loPI    C113921   4.932   4.402   4.998  0.0317  0.1831  0.1835
  934loPI    C213922   5.031   4.083   4.778  0.1725  0.2894  0.0909
  934loPI    C313923   4.670   4.249   4.737  0.2439  0.3887 -0.1589
  934loPI   PO413924   5.136   4.259   5.254 -0.1951 -0.2801 -0.0889
  934loPI   GL113925   5.252   4.045   5.592  0.1381 -0.1391  0.2783
  934loPI   GL213926   5.205   3.681   5.680  0.2299 -0.3307  0.0955
  934loPI   C1A13927   5.416   4.189   6.024  0.1020  0.2012  0.0178
  934loPI   C2A13928   5.316   4.140   6.457  0.0894 -0.0868 -0.2813
  934loPI   C3A13929   5.268   4.128   6.877 -0.1144  0.0135  0.1126
  934loPI   C4A13930   5.504   4.298   7.183  0.0609 -0.0729  0.0565
  934loPI   C5A13931   5.865   4.345   7.337  0.0459 -0.2202 -0.0449
  934loPI   C6A13932   6.106   4.172   7.565  0.0591  0.3538 -0.2454
  934loPI   C1B13933   5.424   3.705   6.141 -0.1355  0.2108  0.1233
  934loPI   C2B13934   5.500   3.646   6.482 -0.2699  0.1320 -0.0383
  934loPI   C3B13935   5.467   3.573   6.915  0.2721  0.4171 -0.2692
  934loPI   C4B13936   5.638   3.447   7.223 -0.0049 -0.0127  0.1543
  935loPI    C113937   2.444  16.243   4.957 -0.0098  0.2020  0.2967
  935loPI    C213938   2.804  16.136   4.818 -0.1366 -0.0525  0.1583
  935loPI    C313939   2.574  16.385   4.606 -0.0824  0.0345  0.2011
  935loPI   PO413940   2.374  16.094   5.094  0.1070  0.2486 -0.0193
  935loPI   GL113941   2.422  16.032   5.607 -0.1304  0.0363 -0.1873
  935loPI   GL213942   2.720  15.874   5.725  0.0421  0.0714 -0.0053
  935loPI   C1A13943   2.215  16.360   5.922  0.1057  0.4843 -0.2052
  935loPI   C2A13944   2.183  16.448   6.304 -0.1102 -0.0423  0.1281
  935loPI   C3A13945   2.027  16.287   6.729  0.1244  0.0767 -0.0542
  935loPI   C4A13946   1.751  16.520   6.858 -0.1055  0.0674 -0.1565
  935loPI   C5A13947   1.299  16.651   7.118  0.1760  0.0034  0.1854
  935loPI   C6A13948   1.027  16.402   7.343 -0.1604  0.1615 -0.3010
  935loPI   C1B13949   2.679  15.678   6.063  0.0207 -0.0955  0.1236
  935loPI   C2B13950   2.407  15.508   6.323 -0.3691  0.4883 -0.1308
  935loPI   C3B13951   2.463  15.407   6.683  0.2213 -0.2606 -0.2532
  935loPI   C4B13952   2.617  15.363   7.157 -0.0649 -0.0806 -0.1615
  936loPI    C113953  14.508   2.735   4.590 -0.0596  0.0175  0.4141
  936loPI    C213954  14.155   2.675   4.768 -0.1985  0.1920  0.2029
  936loPI    C313955  14.172   2.741   4.374  0.0851  0.0379  0.1864
  936loPI   PO413956  14.648   2.799   4.726 -0.3281 -0.1661 -0.1753
  936loPI   GL113957  14.770   2.835   5.229 -0.2730 -0.0485 -0.0601
  936loPI   GL213958  14.497   2.685   5.157 -0.0445  0.0200 -0.1983
  936loPI   C1A13959  14.752   3.085   5.602 -0.2357 -0.1237 -0.0320
  936loPI   C2A13960  14.863   3.222   6.027  0.0213 -0.1842 -0.0791
  936loPI   C3A13961  14.944   3.126   6.473  0.0685  0.2365  0.0480
  936loPI   C4A13962  14.819   3.303   6.908 -0.0468  0.4682  0.2494
  936loPI   C5A13963  14.832   3.242   7.362  0.2402  0.0768  0.0735
  936loPI   C6A13964  15.141   3.085   7.555  0.1272  0.2239  0.1718
  936loPI   C1B13965  14.413   2.747   5.565  0.0124  0.2822  0.0820
  936loPI   C2B13966  14.387   2.869   5.877 -0.0336  0.0951 -0.1914
  936loPI   C3B13967  14.352   2.856   6.332 -0.2426 -0.0758  0.0096
  936loPI   C4B13968  13.995   2.808   6.657  0.0580 -0.1465 -0.1999
  937loPI    C113969  16.777   9.373   5.260 -0.0830 -0.3353 -0.0537
  937loPI    C213970  16.945   9.091   5.488  0.0047 -0.3040 -0.0793
  937loPI    C313971  17.169   9.299   5.230  0.0130  0.0417  0.1986
  937loPI   PO413972  16.600   9.339   5.219  0.0708 -0.1587  0.2104
  937loPI   GL113973  16.241   9.552   5.417  0.0809 -0.0104  0.0753
  937loPI   GL213974  16.479   9.407   5.699  0.1025 -0.0148  0.5656
  937loPI   C1A13975  16.127   9.906   5.790  0.0280 -0.2713  0.0196
  937loPI   C2A13976  16.044   9.931   6.229  0.2374  0.0472 -0.0017
  937loPI   C3A13977  16.133   9.807   6.598 -0.2170  0.0845  0.0499
  937loPI   C4A13978  15.949   9.641   6.824 -0.0389 -0.2903  0.4811
  937loPI   C5A13979  15.699   9.391   7.136 -0.0927  0.2721  0.0300
  937loPI   C6A13980  15.337   9.172   7.289  0.0635 -0.1398 -0.1071
  937loPI   C1B13981  16.330   9.495   6.097  0.1301 -0.1919  0.3234
  937loPI   C2B13982  16.395   9.379   6.498  0.3182 -0.0777  0.1945
  937loPI   C3B13983  16.712   9.142   6.605 -0.0452 -0.0342 -0.2735
  937loPI   C4B13984  16.919   9.135   7.010  0.2288 -0.2914 -0.1458
  938loPI    C113985   2.833   7.571   5.132 -0.2587 -0.1178  0.0172
  938loPI    C213986   3.064   7.898   5.129  0.0729 -0.3455  0.1820
  938loPI    C313987   2.984   7.707   4.787 -0.1910 -0.0488  0.0737
  938loPI   PO413988   2.839   7.543   5.471  0.1442  0.1716  0.2178
  938loPI   GL113989   2.942   7.330   5.884 -0.0059 -0.0712 -0.2656
  938loPI   GL213990   3.247   7.586   5.896  0.0468 -0.0874 -0.0446
  938loPI   C1A13991   2.924   7.539   6.272 -0.1388 -0.0325 -0.2161
  938loPI   C2A13992   2.946   7.851   6.554 -0.1226  0.0005 -0.0609
  938loPI   C3A13993   2.947   8.242   6.813 -0.0666  0.1838  0.1812
  938loPI   C4A13994   2.576   8.329   7.037 -0.2771 -0.0874  0.2386
  938loPI   C5A13995   2.415   8.263   7.438  0.0199  0.1317  0.2345
  938loPI   C6A13996   2.150   8.406   7.679  0.0574 -0.1603 -0.2055
  938loPI   C1B13997   2.865   7.988   6.018 -0.1415  0.0472  0.2424
  938loPI   C2B13998   2.831   8.339   6.329 -0.1630 -0.0327 -0.1657
  938loPI   C3B13999   2.892   8.704   6.568  0.0076  0.2003 -0.0498
  938loPI   C4B14000   2.581   8.831   6.846  0.0554  0.1084 -0.0220
  939loPI    C114001  16.764  15.336   4.159  0.1612 -0.0971 -0.1952
  939loPI    C214002  16.401  15.202   4.059  0.0021  0.0745  0.1349
  939loPI    C314003  16.726  15.052   3.880 -0.2175 -0.2102 -0.0344
  939loPI   PO414004  16.674  15.406   4.503 -0.0302 -0.0801  0.0260
  939loPI   GL114005  16.831  15.308   4.883  0.2932  0.1616  0.0444
  939loPI   GL214006  16.540  15.177   4.897  0.2557 -0.0820 -0.2067
  939loPI   C1A14007  16.781  15.176   5.375 -0.2310 -0.1498 -0.1505
  939loPI   C2A14008  16.662  15.372   5.749 -0.4899 -0.1286 -0.1089
  939loPI   C3A14009  16.662  15.264   6.155 -0.1629  0.0311  0.2860
  939loPI   C4A14010  16.554  15.101   6.605 -0.0347  0.0574  0.2375
  939loPI   C5A14011  16.797  15.219   7.049  0.0690  0.1215  0.0549
  939loPI   C6A14012  17.148  15.172   7.411 -0.1448  0.4194  0.2785
  939loPI   C1B14013  16.420  15.512   5.226 -0.0262  0.2276 -0.2116
  939loPI   C2B14014  16.150  15.510   5.612 -0.0014  0.0560 -0.0058
  939loPI   C3B14015  16.251  15.548   6.079 -0.2852  0.1858  0.2549
  939loPI   C4B14016  16.019  15.704   6.350 -0.2512 -0.2655 -0.2339
  940loPI    C114017  11.539   3.525   4.810 -0.1211  0.0551 -0.2712
  940loPI    C214018  11.510   3.134   4.890 -0.1174  0.0672 -0.2099
  940loPI    C314019  11.643   3.256   4.533  0.2328  0.0122 -0.1022
  940loPI   PO414020  11.659   3.612   5.029 -0.1825  0.0211  0.3844
  940loPI   GL114021  11.543   3.727   5.443  0.0057  0.0199 -0.1747
  940loPI   GL214022  11.371   3.532   5.464  0.2126  0.4296 -0.2517
  940loPI   C1A14023  11.901   3.696   5.694  0.2376  0.2420  0.0825
  940loPI   C2A14024  12.035   3.420   6.046  0.0285  0.0483  0.1559
  940loPI   C3A14025  11.901   3.276   6.438  0.0899 -0.0821 -0.1430
  940loPI   C4A14026  12.050   3.290   6.852  0.4161  0.4462 -0.3509
  940loPI   C5A14027  12.099   3.640   7.165  0.3917 -0.0598 -0.1200
  940loPI   C6A14028  12.304   3.665   7.475 -0.0934 -0.0878 -0.1113
  940loPI   C1B14029  11.514   3.527   5.962 -0.0044  0.0186 -0.2670
  940loPI   C2B14030  11.572   3.662   6.411 -0.2565 -0.2721  0.1242
  940loPI   C3B14031  11.678   3.608   6.889 -0.1508 -0.1315 -0.1966
  940loPI   C4B14032  11.454   3.851   7.178 -0.0696  0.1384  0.0336
  941loPI    C114033  15.242   6.001   5.307 -0.2315  0.0961 -0.1287
  941loPI    C214034  15.293   6.329   5.084  0.0969  0.0838 -0.0767
  941loPI    C314035  15.513   6.002   5.013  0.0691  0.0159  0.1423
  941loPI   PO414036  15.192   6.116   5.547 -0.1285  0.1374 -0.2139
  941loPI   GL114037  15.196   6.312   5.836 -0.0305 -0.0671  0.0070
  941loPI   GL214038  14.913   6.012   5.960 -0.0064 -0.0730 -0.1954
  941loPI   C1A14039  15.240   6.402   6.203  0.1233  0.3501  0.0610
  941loPI   C2A14040  15.371   6.294   6.519 -0.2884 -0.6365 -0.1737
  941loPI   C3A14041  15.266   6.418   6.939 -0.0474  0.1758 -0.3682
  941loPI   C4A14042  15.264   6.743   7.310 -0.3262  0.1147  0.0526
  941loPI   C5A14043  14.923   7.130   7.463 -0.2854  0.1610 -0.0596
  941loPI   C6A14044  14.844   7.616   7.488 -0.1016  0.3170  0.1286
  941loPI   C1B14045  14.975   5.858   6.301  0.1029 -0.2653  0.2283
  941loPI   C2B14046  15.134   5.911   6.683 -0.0921  0.0610  0.1149
  941loPI   C3B14047  15.428   5.981   7.069 -0.0854  0.2815 -0.0528
  941loPI   C4B14048  15.568   6.304   7.353  0.3227  0.1115  0.0400
  942loPI    C114049   6.035   6.466   5.240 -0.0203  0.0468  0.0031
  942loPI    C214050   6.040   6.498   4.842  0.1137 -0.0683 -0.0050
  942loPI    C314051   5.722   6.625   5.048 -0.0145 -0.1345 -0.1592
  942loPI   PO414052   6.040   6.314   5.364 -0.0636  0.1920 -0.1623
  942loPI   GL114053   6.032   6.312   5.738 -0.1061  0.2394  0.1426
  942loPI   GL214054   5.845   6.377   5.907  0.0998  0.1836  0.2503
  942loPI   C1A14055   6.477   6.246   5.962  0.0163  0.0715  0.1101
  942loPI   C2A14056   6.584   6.160   6.370  0.1285  0.0076  0.1427
  942loPI   C3A14057   6.636   5.831   6.595  0.1516  0.0361  0.1279
  942loPI   C4A14058   6.775   5.646   6.934 -0.3061  0.0045 -0.1941
  942loPI   C5A14059   6.692   5.426   7.271  0.1734  0.1216  0.0704
  942loPI   C6A14060   6.920   5.243   7.569 -0.2484  0.4699 -0.3597
  942loPI   C1B14061   6.051   6.700   6.151  0.1341 -0.2448  0.0982
  942loPI   C2B14062   6.259   6.585   6.563  0.1481  0.1623  0.1519
  942loPI   C3B14063   6.487   6.837   6.706 -0.1572  0.1426  0.2673
  942loPI   C4B14064   6.692   6.916   6.989  0.1332 -0.1444 -0.0147
  943loPI    C114065  18.290   8.828   5.714  0.0442  0.0682 -0.0707
  943loPI    C214066  18.377   8.881   5.327 -0.1648 -0.0423 -0.1341
  943loPI    C314067  18.383   8.513   5.485 -0.0159  0.0102 -0.0159
  943loPI   PO414068  18.163   9.110   5.712  0.0820 -0.0090 -0.0034
  943loPI   GL114069  18.107   9.392   6.066 -0.0613  0.1549 -0.1054
  943loPI   GL214070  18.406   9.289   6.124  0.0107  0.1393  0.2249
  943loPI   C1A14071  17.913   9.401   6.426 -0.1048  0.1722 -0.3730
  943loPI   C2A14072  17.740   9.418   6.875 -0.2215  0.2343  0.2144
  943loPI   C3A14073  17.427   9.486   7.220  0.2577  0.1022 -0.1545
  943loPI   C4A14074  16.985   9.368   7.439 -0.0779  0.2898 -0.1054
  943loPI   C5A14075  16.522   9.281   7.613 -0.2183  0.0428 -0.1024
  943loPI   C6A14076  16.167   9.444   7.629  0.2100 -0.1579  0.2310
  943loPI   C1B14077  18.567   9.364   6.444  0.1127 -0.0121  0.1688
  943loPI   C2B14078  18.473   9.402   6.891 -0.2248  0.2578 -0.3107
  943loPI   C3B14079  18.443   9.362   7.378 -0.1243 -0.1583  0.1399
  943loPI   C4B14080  18.436   9.138   7.762  0.0989 -0.0118  0.5496
  944loPI    C114081  10.573   9.762   5.590  0.0200 -0.0440  0.0034
  944loPI    C214082  10.691   9.688   5.215 -0.1589 -0.4219  0.0177
  944loPI    C314083  10.358   9.898   5.282  0.1392  0.0799 -0.0262
  944loPI   PO414084  10.668   9.492   5.714  0.3182 -0.1540  0.0330
  944loPI   GL114085  10.283   9.389   6.071 -0.1226  0.0983 -0.2732
  944loPI   GL214086  10.404   9.682   6.112 -0.2650  0.1600  0.2320
  944loPI   C1A14087  10.174   9.333   6.486  0.1147  0.1016  0.0577
  944loPI   C2A14088  10.153   9.457   6.892 -0.1102  0.2632 -0.1298
  944loPI   C3A14089   9.833   9.352   7.203  0.0823  0.0071 -0.1638
  944loPI   C4A14090   9.889   9.036   7.421  0.0378  0.0364  0.0691
  944loPI   C5A14091   9.510   8.837   7.623  0.0570 -0.3574 -0.3502
  944loPI   C6A14092   9.603   8.609   7.956 -0.1137 -0.0144 -0.2148
  944loPI   C1B14093  10.524   9.642   6.528 -0.0043  0.2421  0.5050
  944loPI   C2B14094  10.486   9.813   6.781 -0.0791 -0.0041 -0.0443
  944loPI   C3B14095  10.549  10.004   7.172  0.0510 -0.1363 -0.3899
  944loPI   C4B14096  10.362  10.335   7.582 -0.1842  0.3864  0.0229
  945loPI    C114097  17.128   0.120   4.810 -0.1871 -0.0154  0.0791
  945loPI    C214098  17.269  -0.008   4.459 -0.2348 -0.0243  0.0631
  945loPI    C314099  16.984   0.272   4.469 -0.1232  0.0887  0.0980
  945loPI   PO414100  17.335   0.015   4.982  0.1818 -0.1527 -0.0433
  945loPI   GL114101  17.375  -0.143   5.344  0.2379 -0.0597 -0.0437
  945loPI   GL214102  17.287  -0.396   5.401  0.3374 -0.2445 -0.0628
  945loPI   C1A14103  17.325   0.123   5.649  0.0608  0.1115  0.1858
  945loPI   C2A14104  16.989   0.292   5.852  0.5216 -0.2317  0.0581
  945loPI   C3A14105  16.745   0.192   6.223  0.0054 -0.1074 -0.0655
  945loPI   C4A14106  16.489   0.293   6.462 -0.2207 -0.1269  0.1624
  945loPI   C5A14107  16.305   0.408   6.778  0.1473 -0.0119  0.2659
  945loPI   C6A14108  16.060   0.711   7.006  0.1213 -0.0312 -0.2854
  945loPI   C1B14109  17.415  -0.355   5.817 -0.0948 -0.0340  0.0144
  945loPI   C2B14110  17.609  -0.476   6.231  0.1226  0.0487 -0.3072
  945loPI   C3B14111  17.802  -0.726   6.435  0.1350  0.1497 -0.3478
  945loPI   C4B14112  17.670  -0.813   6.777  0.3332 -0.1693 -0.3152
  946loPI    C114113   2.173   1.813   5.049  0.0665 -0.0229 -0.1740
  946loPI    C214114   2.230   1.571   5.362 -0.0326  0.0945 -0.0638
  946loPI    C314115   2.261   1.427   4.990 -0.0175 -0.0697  0.0000
  946loPI   PO414116   1.944   1.954   5.144  0.0203  0.2468  0.1051
  946loPI   GL114117   1.746   1.990   5.422 -0.0553  0.1706  0.0854
  946loPI   GL214118   1.387   2.031   5.418 -0.2729 -0.1307  0.3091
  946loPI   C1A14119   1.737   1.955   5.860  0.2269 -0.3928 -0.4450
  946loPI   C2A14120   1.760   1.843   6.171 -0.0778  0.3520 -0.0475
  946loPI   C3A14121   1.923   1.706   6.511  0.1884  0.0885 -0.1320
  946loPI   C4A14122   1.958   1.686   6.929 -0.3344 -0.0731 -0.0964
  946loPI   C5A14123   1.656   1.666   7.222 -0.1161  0.0079  0.1615
  946loPI   C6A14124   1.392   1.672   7.607 -0.3253 -0.0058 -0.0149
  946loPI   C1B14125   1.162   1.913   5.681  0.3388 -0.0345  0.1235
  946loPI   C2B14126   1.292   1.851   6.016 -0.0374 -0.1618 -0.0302
  946loPI   C3B14127   1.305   1.809   6.398 -0.1234  0.0855 -0.1580
  946loPI   C4B14128   1.502   1.668   6.747 -0.0824 -0.2172  0.0173
  947loPI    C114129   2.444  12.579   5.059  0.2061 -0.0847  0.0474
  947loPI    C214130   2.264  12.753   4.747 -0.0325 -0.2333  0.0999
  947loPI    C314131   2.589  12.527   4.690  0.2428  0.1715  0.0238
  947loPI   PO414132   2.172  12.502   5.156  0.2147  0.0325 -0.0093
  947loPI   GL114133   1.927  12.470   5.501  0.0484 -0.0768 -0.1070
  947loPI   GL214134   1.635  12.538   5.402 -0.2736 -0.0315  0.0452
  947loPI   C1A14135   1.768  12.409   5.995 -0.3093  0.2863 -0.0798
  947loPI   C2A14136   1.679  12.307   6.438  0.1237  0.4077 -0.1207
  947loPI   C3A14137   1.713  12.371   6.901 -0.0678 -0.3465  0.4326
  947loPI   C4A14138   1.592  12.446   7.257  0.1445 -0.1302  0.1303
  947loPI   C5A14139   1.818  12.366   7.504  0.0641  0.1394 -0.0866
  947loPI   C6A14140   1.865  11.984   7.423 -0.1741  0.3465  0.1645
  947loPI   C1B14141   1.346  12.423   5.619  0.1677 -0.0721 -0.0551
  947loPI   C2B14142   1.256  12.423   6.081 -0.1427 -0.0402  0.0892
  947loPI   C3B14143   1.206  12.519   6.531  0.0129 -0.1927 -0.1691
  947loPI   C4B14144   1.055  12.477   6.921  0.0151  0.1789  0.0568
  948loPI    C114145  17.623  14.740   4.779 -0.0011 -0.1999 -0.0963
  948loPI    C214146  17.603  14.814   4.386  0.0075  0.1367 -0.0361
  948loPI    C314147  17.933  14.909   4.591 -0.0728  0.1474  0.0892
  948loPI   PO414148  17.495  14.547   4.778 -0.1669  0.2184 -0.3062
  948loPI   GL114149  17.433  14.435   5.156 -0.1734 -0.5293  0.0447
  948loPI   GL214150  17.323  14.160   5.263 -0.1584  0.1168 -0.2717
  948loPI   C1A14151  17.342  14.536   5.581 -0.0624 -0.1038 -0.0009
  948loPI   C2A14152  17.344  14.603   6.026  0.2033 -0.0088  0.2387
  948loPI   C3A14153  17.525  14.620   6.459 -0.0297 -0.0192  0.3117
  948loPI   C4A14154  17.347  14.547   6.875  0.2004  0.1673 -0.0419
  948loPI   C5A14155  16.842  14.622   6.940  0.0158 -0.1186  0.1752
  948loPI   C6A14156  16.418  14.887   7.061 -0.0279 -0.4280  0.1219
  948loPI   C1B14157  17.516  14.037   5.567 -0.1356 -0.1235 -0.0366
  948loPI   C2B14158  17.449  13.749   5.776  0.2078  0.1108 -0.0388
  948loPI   C3B14159  17.140  13.730   6.103  0.1113 -0.0393 -0.0833
  948loPI   C4B14160  17.204  13.691   6.560  0.3213  0.1510  0.1016
  949loPI    C114161  13.639   3.012   4.612 -0.3870  0.2323 -0.1398
  949loPI    C214162  13.754   3.381   4.509  0.0784  0.1537  0.0678
  949loPI    C314163  13.826   3.073   4.263  0.1140  0.1349  0.1016
  949loPI   PO414164  13.762   2.982   4.927  0.0095 -0.1421 -0.1660
  949loPI   GL114165  13.931   2.685   5.242  0.3365 -0.1199 -0.0713
  949loPI   GL214166  14.013   2.436   5.169 -0.0143 -0.0034  0.0943
  949loPI   C1A14167  13.833   2.693   5.686  0.2554  0.0210  0.0282
  949loPI   C2A14168  13.908   2.699   6.058 -0.0010  0.1324 -0.0949
  949loPI   C3A14169  13.654   2.834   6.355 -0.0529 -0.0039  0.2214
  949loPI   C4A14170  13.485   2.929   6.846 -0.0858  0.2300  0.1070
  949loPI   C5A14171  13.713   2.738   7.172 -0.1355  0.0235 -0.1451
  949loPI   C6A14172  13.440   2.460   7.551 -0.2645  0.0447  0.1165
  949loPI   C1B14173  13.801   2.230   5.553  0.0226 -0.2763  0.0546
  949loPI   C2B14174  13.773   2.209   5.963  0.0706  0.1335 -0.1078
  949loPI   C3B14175  13.757   2.263   6.429 -0.3364  0.0988  0.1303
  949loPI   C4B14176  13.659   2.408   6.767  0.0705 -0.2163 -0.0910
  950loPI    C114177   5.394  18.708   5.109 -0.0397 -0.0602  0.2025
  950loPI    C214178   5.388  18.366   4.903  0.0908  0.0650 -0.0134
  950loPI    C314179   5.383  18.715   4.710  0.1291  0.1856  0.2002
  950loPI   PO414180   5.613  18.655   5.324  0.1316 -0.1107  0.0997
  950loPI   GL114181   5.742  18.643   5.749  0.0276 -0.0115  0.0517
  950loPI   GL214182   5.492  18.551   5.877 -0.1067  0.0599 -0.1448
  950loPI   C1A14183   5.849  18.795   6.159  0.0267  0.2775 -0.0203
  950loPI   C2A14184   5.979  18.958   6.597  0.1854  0.0639 -0.0422
  950loPI   C3A14185   5.845  18.997   6.991 -0.1304 -0.2331 -0.1047
  950loPI   C4A14186   6.069  18.945   7.419  0.0206  0.0765  0.0406
  950loPI   C5A14187   6.332  18.813   7.819 -0.0796 -0.0988  0.0983
  950loPI   C6A14188   6.571  18.977   8.242 -0.3451 -0.2385  0.1774
  950loPI   C1B14189   5.680  18.358   6.324  0.1939 -0.1700 -0.0560
  950loPI   C2B14190   5.736  18.248   6.770 -0.1600 -0.2315 -0.1244
  950loPI   C3B14191   5.946  18.283   7.155 -0.0804 -0.4233 -0.0649
  950loPI   C4B14192   5.901  18.043   7.484  0.0757 -0.0154 -0.0443
  951loPI    C114193   3.684  18.275   5.232 -0.0571 -0.3130  0.1792
  951loPI    C214194   3.830  17.959   5.034 -0.2041 -0.1369 -0.2223
  951loPI    C314195   3.693  18.276   4.832  0.0272  0.2282  0.1745
  951loPI   PO414196   3.614  18.248   5.477  0.1310  0.1738  0.1539
  951loPI   GL114197   3.877  18.430   5.880 -0.1217 -0.1219 -0.4300
  951loPI   GL214198   4.046  18.626   5.951  0.0868 -0.1316 -0.0200
  951loPI   C1A14199   3.696  18.422   6.294  0.1215 -0.0059 -0.2803
  951loPI   C2A14200   3.653  18.490   6.713 -0.1326  0.1752 -0.0458
  951loPI   C3A14201   3.418  18.382   6.988  0.1450  0.0103 -0.2947
  951loPI   C4A14202   3.079  18.426   7.165  0.1607  0.2721  0.3925
  951loPI   C5A14203   3.078  18.406   7.581 -0.3035  0.0731 -0.2563
  951loPI   C6A14204   3.099  18.101   7.867 -0.0420  0.0612 -0.3416
  951loPI   C1B14205   4.120  18.623   6.461 -0.1321 -0.1098  0.0672
  951loPI   C2B14206   4.025  18.685   6.939 -0.1220 -0.0351 -0.2769
  951loPI   C3B14207   4.048  18.651   7.377  0.2411  0.1494  0.3245
  951loPI   C4B14208   3.809  18.844   7.721 -0.0094  0.1248 -0.1252
  952loPI    C114209   3.413  12.384   4.865 -0.0516  0.0323  0.2173
  952loPI    C214210   3.111  12.623   4.756 -0.0338  0.0726  0.2563
  952loPI    C314211   3.063  12.226   4.753  0.0325  0.0645 -0.0996
  952loPI   PO414212   3.510  12.445   5.090 -0.2482 -0.2121  0.0322
  952loPI   GL114213   3.605  12.436   5.444  0.2180  0.1620 -0.4509
  952loPI   GL214214   3.627  12.691   5.627  0.0984  0.0632 -0.0017
  952loPI   C1A14215   3.207  12.409   5.831  0.1941 -0.0776  0.1487
  952loPI   C2A14216   3.004  12.541   6.195 -0.3235  0.0253  0.2223
  952loPI   C3A14217   3.084  12.717   6.641  0.4562 -0.2476 -0.0249
  952loPI   C4A14218   3.034  12.753   7.082 -0.2415  0.1147 -0.1037
  952loPI   C5A14219   3.229  13.006   7.448 -0.0044  0.0311  0.0825
  952loPI   C6A14220   3.218  13.148   7.870  0.0877  0.4066 -0.1386
  952loPI   C1B14221   3.500  12.879   6.079  0.0199 -0.2347  0.1320
  952loPI   C2B14222   3.587  12.937   6.585 -0.2245 -0.0428  0.2070
  952loPI   C3B14223   3.508  13.018   6.996  0.3112 -0.0246  0.2876
  952loPI   C4B14224   3.668  13.237   7.502 -0.0749  0.0945  0.0482
  953loPI    C114225  17.814  14.122   4.783 -0.0435 -0.2056 -0.2077
  953loPI    C214226  18.064  14.431   4.832  0.0313 -0.2697 -0.1821
  953loPI    C314227  17.901  14.360   4.473 -0.3101  0.0441 -0.0954
  953loPI   PO414228  17.784  14.061   4.930  0.0762 -0.2404 -0.0639
  953loPI   GL114229  17.904  14.299   5.317  0.3852  0.1130  0.1782
  953loPI   GL214230  18.179  14.567   5.398  0.0074 -0.0180 -0.0538
  953loPI   C1A14231  17.813  14.432   5.705 -0.2360 -0.0219  0.2105
  953loPI   C2A14232  17.635  14.213   6.065 -0.1745  0.1666  0.1024
  953loPI   C3A14233  17.319  14.140   6.447 -0.0211  0.1645 -0.0776
  953loPI   C4A14234  17.336  13.986   6.934 -0.1522 -0.0626  0.1502
  953loPI   C5A14235  17.518  13.891   7.311  0.2272 -0.0895 -0.1764
  953loPI   C6A14236  17.782  13.553   7.364 -0.2464  0.0882 -0.0204
  953loPI   C1B14237  18.205  14.618   5.841  0.0743 -0.2088 -0.0030
  953loPI   C2B14238  18.254  14.984   6.057  0.0545  0.2842  0.0487
  953loPI   C3B14239  18.328  15.189   6.449  0.0021  0.2248  0.0498
  953loPI   C4B14240  18.479  15.509   6.693 -0.0479  0.1004  0.1039
  954loPI    C114241   1.238  16.428   5.033  0.1127  0.0933 -0.0791
  954loPI    C214242   1.221  16.827   5.060  0.0171  0.0868 -0.0377
  954loPI    C314243   0.914  16.623   4.904 -0.0231  0.0127  0.1354
  954loPI   PO414244   1.401  16.213   5.145  0.0869 -0.0353 -0.0547
  954loPI   GL114245   1.540  16.098   5.569  0.0078  0.0064 -0.0686
  954loPI   GL214246   1.863  15.990   5.696  0.0946 -0.1719  0.0735
  954loPI   C1A14247   1.122  16.259   5.763 -0.2691  0.2200 -0.2273
  954loPI   C2A14248   0.848  16.386   6.117 -0.1699 -0.1718  0.2280
  954loPI   C3A14249   0.704  16.246   6.562 -0.0181  0.4981 -0.0342
  954loPI   C4A14250   0.764  16.095   7.001  0.2710 -0.1775 -0.0165
  954loPI   C5A14251   0.674  15.834   7.320  0.2822  0.3003 -0.2279
  954loPI   C6A14252   0.938  15.911   7.527 -0.2578  0.3897 -0.1705
  954loPI   C1B14253   1.474  15.907   6.018  0.0413  0.0030  0.0403
  954loPI   C2B14254   0.999  15.943   6.202  0.1360  0.2362  0.0057
  954loPI   C3B14255   0.682  15.692   6.500  0.2309  0.1883  0.0027
  954loPI   C4B14256   0.402  15.804   6.940  0.1567  0.4224 -0.0807
  955loPI    C114257   2.498   2.801   4.750 -0.1432 -0.1072 -0.1917
  955loPI    C214258   2.810   2.553   4.713  0.0162  0.0935 -0.2073
  955loPI    C314259   2.811   2.906   4.524 -0.0947  0.2178  0.0205
  955loPI   PO414260   2.447   2.779   5.000  0.1649 -0.0290 -0.2982
  955loPI   GL114261   2.158   2.847   5.413 -0.0445  0.2969  0.2392
  955loPI   GL214262   2.102   2.623   5.698  0.2815  0.1804 -0.1897
  955loPI   C1A14263   2.540   2.629   5.720  0.0939  0.0155  0.1237
  955loPI   C2A14264   2.572   2.401   6.107  0.2900  0.0502  0.3856
  955loPI   C3A14265   2.511   2.253   6.492 -0.4705  0.0580 -0.1021
  955loPI   C4A14266   2.656   2.128   6.929  0.0681 -0.1314  0.4822
  955loPI   C5A14267   2.753   2.177   7.362  0.1173 -0.4783 -0.2258
  955loPI   C6A14268   2.527   2.187   7.748  0.0671 -0.0661  0.1349
  955loPI   C1B14269   2.181   2.772   6.145 -0.1589  0.4336 -0.0880
  955loPI   C2B14270   2.277   2.691   6.494  0.2833  0.0367  0.1392
  955loPI   C3B14271   2.254   2.466   6.854  0.0313  0.0318  0.0782
  955loPI   C4B14272   2.249   2.192   7.207  0.0269 -0.0155 -0.0055
  956loPI    C114273  13.529   3.976   4.974  0.2148  0.0343  0.4231
  956loPI    C214274  13.904   3.943   4.836  0.0318 -0.0212 -0.0829
  956loPI    C314275  13.645   4.190   4.656 -0.1984 -0.0366  0.2181
  956loPI   PO414276  13.526   4.116   5.241  0.0929  0.1638 -0.2316
  956loPI   GL114277  13.187   4.139   5.473 -0.4239 -0.1986 -0.0057
  956loPI   GL214278  13.284   4.441   5.568 -0.1406 -0.3919 -0.0336
  956loPI   C1A14279  12.983   3.864   5.786  0.0526 -0.0285  0.1279
  956loPI   C2A14280  12.967   3.953   6.212 -0.0078 -0.0701 -0.0809
  956loPI   C3A14281  12.801   4.131   6.539  0.2480  0.1988  0.0217
  956loPI   C4A14282  12.749   4.326   6.977  0.0697 -0.2667 -0.1508
  956loPI   C5A14283  12.577   4.771   7.148 -0.6228  0.0248  0.1206
  956loPI   C6A14284  12.575   5.081   7.338 -0.0644 -0.1628  0.1505
  956loPI   C1B14285  13.090   4.400   5.895 -0.3298  0.0738 -0.1352
  956loPI   C2B14286  13.084   4.538   6.333 -0.0808 -0.0161  0.2779
  956loPI   C3B14287  13.140   4.498   6.780 -0.0480 -0.3831 -0.0406
  956loPI   C4B14288  13.183   4.466   7.249  0.0027  0.4600 -0.3538
  957loPI    C114289  15.398   3.177   4.680  0.1643  0.1159 -0.0409
  957loPI    C214290  15.276   3.227   4.302  0.0753  0.0131 -0.0264
  957loPI    C314291  15.667   3.228   4.388  0.0867  0.4268 -0.0612
  957loPI   PO414292  15.175   3.340   4.956 -0.1680 -0.1216  0.0449
  957loPI   GL114293  15.107   3.415   5.302 -0.0855 -0.1764 -0.3111
  957loPI   GL214294  14.969   3.522   5.487 -0.0199 -0.1428  0.1552
  957loPI   C1A14295  15.359   3.290   5.732 -0.2560  0.0138 -0.0188
  957loPI   C2A14296  15.347   3.307   6.190 -0.0748 -0.2292  0.0738
  957loPI   C3A14297  15.301   3.431   6.652  0.2608  0.0611 -0.3769
  957loPI   C4A14298  15.301   3.382   7.035  0.0706 -0.0229  0.3564
  957loPI   C5A14299  15.194   3.034   7.054 -0.1805 -0.1570 -0.1319
  957loPI   C6A14300  15.020   2.625   7.200  0.1507 -0.1537 -0.0384
  957loPI   C1B14301  15.059   3.754   5.987 -0.1884 -0.0914 -0.1339
  957loPI   C2B14302  14.929   3.661   6.384  0.2026 -0.1190 -0.0642
  957loPI   C3B14303  14.894   3.764   6.813  0.0614 -0.1940 -0.1598
  957loPI   C4B14304  14.784   3.724   7.223  0.0598  0.3801  0.1280
  958loPI    C114305   1.254  11.146   5.155  0.1889  0.2123 -0.0671
  958loPI    C214306   0.992  11.108   4.856 -0.0023  0.0466  0.1184
  958loPI    C314307   1.372  11.206   4.777 -0.0116 -0.1508 -0.1917
  958loPI   PO414308   1.183  11.271   5.338  0.4148 -0.0072  0.0862
  958loPI   GL114309   1.185  11.579   5.591 -0.1205  0.1012 -0.1435
  958loPI   GL214310   1.183  11.835   5.517 -0.1819 -0.0306  0.0525
  958loPI   C1A14311   1.228  11.442   6.006 -0.4002 -0.0927 -0.0735
  958loPI   C2A14312   1.536  11.445   6.330 -0.0954 -0.1449 -0.1276
  958loPI   C3A14313   1.433  11.508   6.777 -0.4364  0.2143  0.0414
  958loPI   C4A14314   1.119  11.502   7.173  0.1791 -0.1284 -0.0721
  958loPI   C5A14315   0.792  11.676   7.415  0.2710 -0.2111 -0.0211
  958loPI   C6A14316   0.517  11.394   7.627  0.1229 -0.0879 -0.0585
  958loPI   C1B14317   1.218  11.924   5.962  0.0588  0.0534  0.0326
  958loPI   C2B14318   1.307  11.995   6.394  0.1011 -0.0536 -0.2296
  958loPI   C3B14319   1.247  12.058   6.733 -0.1414  0.2427  0.0105
  958loPI   C4B14320   1.296  12.052   7.200 -0.0566 -0.0505  0.0656
  959loPI    C114321  13.493  17.060   4.691 -0.0220 -0.1130 -0.1404
  959loPI    C214322  13.883  17.147   4.681 -0.0399 -0.0090  0.0272
  959loPI    C314323  13.657  17.205   4.356  0.0258  0.2122  0.0192
  959loPI   PO414324  13.428  17.164   4.949  0.3072  0.0846 -0.2182
  959loPI   GL114325  13.357  17.104   5.346  0.0835  0.5414  0.1154
  959loPI   GL214326  13.105  17.035   5.400  0.0392  0.0288  0.0236
  959loPI   C1A14327  13.585  17.050   5.821 -0.0534 -0.4227  0.0328
  959loPI   C2A14328  13.735  17.067   6.180 -0.0168  0.2593 -0.3409
  959loPI   C3A14329  13.817  17.174   6.681  0.1334 -0.0521 -0.1531
  959loPI   C4A14330  13.984  17.306   7.052 -0.4370  0.1272 -0.0439
  959loPI   C5A14331  14.070  17.499   7.385  0.0064  0.2636 -0.1325
  959loPI   C6A14332  14.314  17.661   7.738  0.3769 -0.0485  0.0458
  959loPI   C1B14333  12.967  17.258   5.806 -0.0427 -0.0738  0.1920
  959loPI   C2B14334  12.757  17.240   6.166  0.2084 -0.0452  0.2089
  959loPI   C3B14335  12.742  17.312   6.666 -0.1030 -0.1467  0.0029
  959loPI   C4B14336  12.774  17.562   7.152  0.2147  0.2503  0.0104
  960loPI    C114337   3.997   6.154   5.391 -0.0007  0.1600  0.2069
  960loPI    C214338   4.355   6.276   5.521  0.0809  0.0165  0.1195
  960loPI    C314339   4.205   6.421   5.179  0.1227 -0.0348  0.0793
  960loPI   PO414340   3.913   6.107   5.633 -0.1048  0.0620  0.3007
  960loPI   GL114341   4.019   5.812   6.019 -0.0023  0.0901 -0.0326
  960loPI   GL214342   4.252   5.822   5.829  0.1307  0.1698  0.0438
  960loPI   C1A14343   4.127   5.613   6.365  0.2376 -0.2354 -0.1080
  960loPI   C2A14344   3.968   5.338   6.777  0.0896 -0.0181 -0.0068
  960loPI   C3A14345   3.731   5.260   7.235  0.0109 -0.0791 -0.0605
  960loPI   C4A14346   3.967   5.685   7.350  0.1222  0.3632  0.3134
  960loPI   C5A14347   4.369   5.801   7.659  0.2605 -0.0036  0.1355
  960loPI   C6A14348   4.593   5.413   7.779  0.1725 -0.0240  0.0462
  960loPI   C1B14349   4.407   6.176   6.121  0.2954 -0.0333  0.0667
  960loPI   C2B14350   4.276   6.366   6.589 -0.1191  0.0520  0.2081
  960loPI   C3B14351   4.359   6.524   6.998 -0.3447  0.0646 -0.2292
  960loPI   C4B14352   4.331   6.610   7.514  0.1373 -0.2485 -0.0740
  961loPI    C114353  10.010   4.490   4.712  0.1925  0.1518  0.0848
  961loPI    C214354  10.367   4.513   4.533  0.2523  0.0473  0.1895
  961loPI    C314355  10.083   4.275   4.382  0.2303  0.1220  0.1124
  961loPI   PO414356  10.070   4.449   4.962 -0.3867  0.1902  0.0171
  961loPI   GL114357  10.178   4.299   5.380 -0.1481  0.2063 -0.1953
  961loPI   GL214358  10.312   4.681   5.443 -0.1284  0.0863 -0.2312
  961loPI   C1A14359  10.275   4.060   5.723  0.1285 -0.0873  0.4458
  961loPI   C2A14360  10.303   3.935   6.059  0.0372 -0.2297 -0.0488
  961loPI   C3A14361  10.317   3.706   6.422 -0.1349  0.1002  0.1184
  961loPI   C4A14362  10.257   3.736   6.877  0.3667 -0.6190 -0.0360
  961loPI   C5A14363  10.148   3.824   7.288  0.0666  0.0318  0.0344
  961loPI   C6A14364  10.069   4.015   7.677 -0.1556 -0.1479  0.2314
  961loPI   C1B14365  10.372   4.557   5.824 -0.0178 -0.1331 -0.1506
  961loPI   C2B14366  10.418   4.474   6.208  0.0490 -0.1599 -0.0019
  961loPI   C3B14367  10.620   4.614   6.643 -0.1512  0.0115  0.3702
  961loPI   C4B14368  10.790   4.551   7.015  0.3916  0.0797  0.0190
  962loPI    C114369   7.531   6.482   5.126  0.1311 -0.0046 -0.0461
  962loPI    C214370   7.476   6.600   4.747 -0.1772  0.1666  0.0484
  962loPI    C314371   7.402   6.221   4.851 -0.0401  0.1058 -0.0720
  962loPI   PO414372   7.509   6.759   5.287  0.0594 -0.2892 -0.2095
  962loPI   GL114373   7.725   6.953   5.591 -0.3969 -0.0832 -0.0751
  962loPI   GL214374   7.640   7.159   5.786 -0.0817  0.0618 -0.0196
  962loPI   C1A14375   7.802   6.821   6.078  0.2898 -0.0210 -0.1152
  962loPI   C2A14376   7.914   6.765   6.517  0.0540 -0.1650  0.1308
  962loPI   C3A14377   7.976   6.670   6.912  0.1158  0.0263  0.0254
  962loPI   C4A14378   8.238   6.525   7.198 -0.2812  0.2196  0.0335
  962loPI   C5A14379   8.556   6.602   7.441  0.3172  0.0095  0.0595
  962loPI   C6A14380   8.885   6.695   7.763  0.0159 -0.0513 -0.0908
  962loPI   C1B14381   7.585   7.205   6.311 -0.0178 -0.1204 -0.0701
  962loPI   C2B14382   7.617   7.050   6.737 -0.2593  0.1979  0.0971
  962loPI   C3B14383   7.737   7.097   7.201  0.0228 -0.4132  0.0477
  962loPI   C4B14384   7.741   7.339   7.534 -0.0333 -0.1933 -0.0761
  963loPI    C114385   1.236   3.582   4.870 -0.0350 -0.0049  0.0680
  963loPI    C214386   1.631   3.612   4.924 -0.0012 -0.0973 -0.1175
  963loPI    C314387   1.436   3.894   4.719 -0.0282 -0.0641 -0.0466
  963loPI   PO414388   1.168   3.525   5.155 -0.3334 -0.1826  0.4220
  963loPI   GL114389   1.239   3.527   5.634 -0.1123  0.0276  0.0948
  963loPI   GL214390   0.997   3.722   5.892 -0.0550  0.2967  0.0068
  963loPI   C1A14391   1.453   3.428   6.001  0.0022  0.1170  0.1727
  963loPI   C2A14392   1.317   3.642   6.257 -0.3039 -0.3959 -0.1263
  963loPI   C3A14393   1.166   3.377   6.565 -0.2229 -0.0399 -0.1399
  963loPI   C4A14394   0.947   3.052   6.875  0.0012  0.0319 -0.2966
  963loPI   C5A14395   0.869   2.974   7.320  0.1496  0.0061 -0.0148
  963loPI   C6A14396   0.446   2.705   7.338  0.1586  0.0233 -0.0563
  963loPI   C1B14397   0.892   3.385   6.087  0.1242 -0.0054 -0.0617
  963loPI   C2B14398   0.659   3.112   6.409  0.1371 -0.1014  0.0691
  963loPI   C3B14399   0.686   2.668   6.619 -0.3731  0.0704  0.2198
  963loPI   C4B14400   0.691   2.674   6.963  0.0558 -0.1659 -0.1248
  964loPI    C114401  17.884   6.712   5.126 -0.0774  0.1838 -0.1838
  964loPI    C214402  18.045   6.861   4.791  0.1101  0.0054 -0.1746
  964loPI    C314403  17.650   6.803   4.814  0.1017 -0.0298 -0.3844
  964loPI   PO414404  18.051   6.764   5.358  0.3119  0.0700  0.0567
  964loPI   GL114405  18.450   6.648   5.557 -0.0707  0.0112 -0.0380
  964loPI   GL214406  18.271   6.383   5.638 -0.1090 -0.0973 -0.1124
  964loPI   C1A14407  18.406   6.908   6.020 -0.2076  0.2267 -0.0649
  964loPI   C2A14408  18.551   6.977   6.389 -0.0736 -0.2419  0.3170
  964loPI   C3A14409  18.539   6.804   6.814  0.2539  0.1263 -0.3779
  964loPI   C4A14410  18.421   6.520   7.161 -0.1715  0.3646  0.0273
  964loPI   C5A14411  18.102   6.342   7.401 -0.0781 -0.2060 -0.2565
  964loPI   C6A14412  17.993   5.975   7.576 -0.2233 -0.0013  0.0449
  964loPI   C1B14413  18.371   6.374   6.006  0.2255  0.0933 -0.0656
  964loPI   C2B14414  18.271   6.447   6.372 -0.3345 -0.0716 -0.3172
  964loPI   C3B14415  18.340   6.266   6.704  0.0666  0.0261  0.0653
  964loPI   C4B14416  18.458   6.052   7.067 -0.0333  0.0082 -0.3120
  965loPI    C114417  18.237   2.248   4.517 -0.1915  0.0266  0.0161
  965loPI    C214418  17.947   2.316   4.250 -0.2308 -0.0952  0.0270
  965loPI    C314419  18.229   2.043   4.174 -0.1251  0.0147  0.0216
  965loPI   PO414420  18.133   2.249   4.732 -0.2540 -0.1803  0.0496
  965loPI   GL114421  17.848   2.230   5.007  0.0859 -0.3368  0.4886
  965loPI   GL214422  17.693   2.475   5.220 -0.0377 -0.0751  0.5685
  965loPI   C1A14423  17.739   2.009   5.394 -0.1412 -0.0653 -0.0449
  965loPI   C2A14424  17.500   1.976   5.829 -0.1736 -0.0726  0.2082
  965loPI   C3A14425  17.531   2.055   6.275  0.0865 -0.2723  0.0272
  965loPI   C4A14426  17.536   1.966   6.695  0.1822  0.1253  0.0895
  965loPI   C5A14427  17.728   1.844   7.119  0.1272  0.3905  0.3640
  965loPI   C6A14428  17.956   1.636   7.464  0.0702 -0.2805 -0.0205
  965loPI   C1B14429  17.787   2.433   5.629 -0.1200  0.0037  0.2600
  965loPI   C2B14430  17.788   2.492   6.071  0.0311  0.1632  0.1804
  965loPI   C3B14431  17.817   2.450   6.521 -0.1797  0.1209 -0.1591
  965loPI   C4B14432  17.972   2.440   6.931 -0.0774 -0.2958  0.3482
  966loPI    C114433  10.126   2.852   4.943  0.2010  0.0858  0.3737
  966loPI    C214434   9.862   2.610   4.765  0.2483  0.3070 -0.0092
  966loPI    C314435  10.241   2.492   4.814  0.0590 -0.0690  0.6709
  966loPI   PO414436  10.030   2.986   5.270 -0.1348  0.2740 -0.0973
  966loPI   GL114437  10.257   3.136   5.585 -0.2564 -0.1539 -0.0292
  966loPI   GL214438   9.986   3.142   5.749  0.0411  0.1594 -0.3186
  966loPI   C1A14439  10.621   3.213   5.851  0.3522 -0.0021  0.1063
  966loPI   C2A14440  10.700   3.522   6.096  0.0717  0.0918 -0.0023
  966loPI   C3A14441  10.724   3.499   6.618  0.0160  0.1230  0.4682
  966loPI   C4A14442  10.777   3.262   6.869  0.1446 -0.0411  0.0840
  966loPI   C5A14443  10.698   3.015   7.271 -0.2169 -0.1335 -0.2173
  966loPI   C6A14444  10.697   2.839   7.678 -0.2478  0.2297  0.0542
  966loPI   C1B14445  10.193   3.228   6.174 -0.3486  0.3912 -0.0491
  966loPI   C2B14446  10.222   3.181   6.693 -0.1152  0.2293 -0.2120
  966loPI   C3B14447  10.365   3.342   7.122  0.0855  0.0731  0.1673
  966loPI   C4B14448  10.671   3.616   7.234  0.0628  0.1269  0.1444
  967loPI    C114449   8.117  14.177   5.347  0.4034 -0.0264 -0.1150
  967loPI    C214450   8.310  14.487   5.184  0.0790  0.2528  0.0194
  967loPI    C314451   8.029  14.550   5.461  0.0925 -0.1719  0.1363
  967loPI   PO414452   8.344  14.023   5.437 -0.0997  0.0093  0.0069
  967loPI   GL114453   8.435  13.841   5.872  0.0863  0.1076  0.2130
  967loPI   GL214454   8.654  13.733   5.870 -0.2149 -0.3682 -0.1604
  967loPI   C1A14455   8.502  13.659   6.339  0.1375 -0.0595  0.1087
  967loPI   C2A14456   8.312  13.746   6.707 -0.0235  0.1069 -0.2470
  967loPI   C3A14457   8.077  13.478   7.049  0.1258 -0.0007 -0.0672
  967loPI   C4A14458   7.855  13.200   7.337  0.0856 -0.0268 -0.0033
  967loPI   C5A14459   7.897  12.719   7.428 -0.0471 -0.0059 -0.4014
  967loPI   C6A14460   7.799  12.361   7.650  0.3391  0.0039  0.0918
  967loPI   C1B14461   8.790  13.349   5.980  0.4115 -0.3054  0.1150
  967loPI   C2B14462   8.896  13.283   6.374 -0.0734  0.1455  0.1318
  967loPI   C3B14463   9.010  13.239   6.690  0.1424  0.1031 -0.0283
  967loPI   C4B14464   8.924  13.011   6.973 -0.2126 -0.0831 -0.1157
  968loPI    C114465  12.038  11.114   4.981  0.2702 -0.2226 -0.0711
  968loPI    C214466  12.147  11.283   4.635 -0.3154 -0.0338 -0.1732
  968loPI    C314467  12.099  10.886   4.658 -0.0701 -0.0690 -0.2484
  968loPI   PO414468  12.163  11.253   5.150 -0.0114 -0.1574  0.2896
  968loPI   GL114469  12.178  11.295   5.555 -0.1809  0.0634 -0.3240
  968loPI   GL214470  11.857  11.456   5.557 -0.2397 -0.3708  0.0179
  968loPI   C1A14471  12.447  11.406   5.887 -0.1075 -0.1493  0.0257
  968loPI   C2A14472  12.369  11.417   6.300 -0.3882 -0.1184  0.0584
  968loPI   C3A14473  12.422  11.403   6.783 -0.3455 -0.1540  0.5513
  968loPI   C4A14474  12.469  11.506   7.215  0.1786 -0.0872 -0.1674
  968loPI   C5A14475  12.267  11.603   7.536  0.0850 -0.0436  0.3084
  968loPI   C6A14476  12.084  11.950   7.814 -0.0566  0.1813  0.0019
  968loPI   C1B14477  11.856  11.399   6.004 -0.2055 -0.2092  0.1568
  968loPI   C2B14478  11.945  11.632   6.414 -0.3698  0.4375 -0.1247
  968loPI   C3B14479  12.005  11.725   6.937  0.1606  0.1276  0.1342
  968loPI   C4B14480  11.844  11.782   7.290  0.0230  0.1927  0.1495
  969loPI    C114481   3.328   4.552   5.094 -0.1232 -0.0589 -0.0703
  969loPI    C214482   2.985   4.673   4.927  0.0314  0.1384 -0.2507
  969loPI    C314483   3.333   4.752   4.748  0.1759 -0.0109 -0.0403
  969loPI   PO414484   3.305   4.673   5.347  0.3797 -0.3789  0.3726
  969loPI   GL114485   3.294   4.900   5.633  0.2963 -0.1378  0.1932
  969loPI   GL214486   3.422   5.033   5.916 -0.1200 -0.2412 -0.1594
  969loPI   C1A14487   2.938   4.951   5.977  0.1127  0.0793 -0.0113
  969loPI   C2A14488   2.711   4.791   6.240  0.2188 -0.0178  0.0938
  969loPI   C3A14489   2.618   4.859   6.655 -0.1679  0.0141  0.1135
  969loPI   C4A14490   2.378   5.022   7.010 -0.1493  0.3008 -0.1216
  969loPI   C5A14491   2.166   5.353   7.178  0.0434 -0.1888  0.0215
  969loPI   C6A14492   2.005   5.617   7.478  0.1233  0.1203  0.1609
  969loPI   C1B14493   3.152   5.172   6.351 -0.5360  0.2037 -0.1331
  969loPI   C2B14494   2.933   5.272   6.703  0.0695  0.0559 -0.0749
  969loPI   C3B14495   2.741   5.390   7.122  0.2361  0.1549 -0.5278
  969loPI   C4B14496   2.545   5.607   7.507 -0.0623  0.0176 -0.1566
  970loPI    C114497   9.510  17.782   4.997 -0.0136  0.0559 -0.1315
  970loPI    C214498   9.119  17.792   4.912  0.0117  0.0527 -0.2505
  970loPI    C314499   9.388  17.877   4.628  0.0854  0.5097 -0.0541
  970loPI   PO414500   9.530  17.896   5.245 -0.0335 -0.3448  0.3421
  970loPI   GL114501   9.525  18.168   5.427  0.0087 -0.1058 -0.0897
  970loPI   GL214502   9.533  18.506   5.495  0.2378 -0.0828 -0.0941
  970loPI   C1A14503   9.629  18.136   5.789 -0.1541  0.1282  0.4063
  970loPI   C2A14504   9.602  18.085   6.231  0.0999 -0.0252  0.0916
  970loPI   C3A14505   9.578  18.211   6.699  0.0792 -0.1426  0.1479
  970loPI   C4A14506   9.388  18.333   7.069 -0.1087 -0.1468 -0.0066
  970loPI   C5A14507   9.463  18.472   7.437 -0.0195 -0.2761  0.2715
  970loPI   C6A14508   9.592  18.582   7.809  0.1592 -0.0921  0.1987
  970loPI   C1B14509   9.487  18.739   5.759 -0.0896  0.3061 -0.0197
  970loPI   C2B14510   9.278  18.857   6.145 -0.1960  0.0213  0.2013
  970loPI   C3B14511   9.044  18.967   6.479 -0.1293 -0.1536 -0.4071
  970loPI   C4B14512   8.875  19.041   6.926 -0.1383 -0.0358 -0.1546
  971loPI    C114513  15.181   9.002   4.697 -0.0580  0.0759  0.0634
  971loPI    C214514  15.025   9.350   4.574 -0.2544 -0.1003 -0.1968
  971loPI    C314515  14.816   9.011   4.534  0.0500 -0.2908 -0.2123
  971loPI   PO414516  15.289   9.103   4.915  0.2159  0.2358 -0.0243
  971loPI   GL114517  15.381   9.203   5.239  0.3115  0.0309 -0.2077
  971loPI   GL214518  15.111   9.402   5.421 -0.0720  0.3525 -0.1750
  971loPI   C1A14519  15.400   9.236   5.777 -0.0670 -0.1268  0.0330
  971loPI   C2A14520  15.239   9.170   6.112  0.0322  0.5783 -0.2188
  971loPI   C3A14521  15.140   8.988   6.585 -0.1269  0.2259 -0.3216
  971loPI   C4A14522  14.902   9.002   7.017 -0.2114  0.4040  0.1611
  971loPI   C5A14523  14.679   8.668   7.163  0.0752  0.1448  0.0437
  971loPI   C6A14524  14.291   8.473   7.397 -0.1830  0.2667 -0.3452
  971loPI   C1B14525  14.861   9.439   5.820 -0.0030 -0.2212  0.1723
  971loPI   C2B14526  14.867   9.404   6.343 -0.5956  0.1850 -0.3582
  971loPI   C3B14527  14.768   9.477   6.860  0.2131  0.0690  0.3914
  971loPI   C4B14528  14.928   9.451   7.333  0.1120  0.2171 -0.2299
  972loPI    C114529   7.230   9.118   5.213 -0.0933  0.1709  0.0538
  972loPI    C214530   7.149   8.859   4.920 -0.2609  0.1039  0.1581
  972loPI    C314531   7.434   9.135   4.869 -0.1010 -0.0813  0.0353
  972loPI   PO414532   7.008   9.288   5.254  0.1066 -0.2648 -0.2604
  972loPI   GL114533   6.728   9.410   5.579 -0.1393  0.0843 -0.1419
  972loPI   GL214534   6.470   9.185   5.613 -0.0635 -0.0274  0.1705
  972loPI   C1A14535   6.616   9.523   5.938 -0.1870  0.0970  0.0548
  972loPI   C2A14536   6.625   9.487   6.407  0.1847  0.1514 -0.0599
  972loPI   C3A14537   6.767   9.213   6.643 -0.0765  0.4443 -0.1712
  972loPI   C4A14538   6.999   9.305   7.015 -0.1826  0.1087 -0.0068
  972loPI   C5A14539   7.001   9.436   7.327  0.0866  0.0854 -0.1374
  972loPI   C6A14540   6.859   9.304   7.740  0.1135 -0.2104  0.0318
  972loPI   C1B14541   6.444   9.117   6.034 -0.0505  0.3870  0.1572
  972loPI   C2B14542   6.318   9.016   6.449  0.1621 -0.0225 -0.1847
  972loPI   C3B14543   6.239   9.058   6.852  0.0283 -0.2234  0.1268
  972loPI   C4B14544   6.147   8.803   7.224 -0.1456  0.0458  0.3358
  973loPI    C114545   7.093  13.248   4.929 -0.0512 -0.1602 -0.2679
  973loPI    C214546   6.711  13.337   4.849 -0.0708 -0.0174 -0.0258
  973loPI    C314547   6.928  13.132   4.583 -0.2707  0.0323 -0.2310
  973loPI   PO414548   6.977  13.342   5.299 -0.1147  0.1925  0.1635
  973loPI   GL114549   7.133  13.328   5.785 -0.3237  0.1288  0.3167
  973loPI   GL214550   6.855  13.259   5.745 -0.2351 -0.0413  0.3897
  973loPI   C1A14551   6.964  13.626   5.993  0.2224 -0.2298  0.0168
  973loPI   C2A14552   6.760  13.607   6.332  0.1639  0.2123 -0.1348
  973loPI   C3A14553   6.610  13.426   6.719 -0.0277 -0.0077  0.1361
  973loPI   C4A14554   6.527  13.551   7.105 -0.2935  0.0926 -0.0846
  973loPI   C5A14555   6.163  13.383   7.317  0.0439 -0.0474 -0.1676
  973loPI   C6A14556   5.760  13.205   7.401 -0.1788  0.2761  0.0013
  973loPI   C1B14557   6.559  13.200   6.078 -0.1758  0.0509 -0.2073
  973loPI   C2B14558   6.583  12.996   6.489 -0.1377 -0.0810 -0.0723
  973loPI   C3B14559   6.592  13.019   6.957 -0.0553 -0.0771  0.2999
  973loPI   C4B14560   6.632  13.117   7.364 -0.0753 -0.3113  0.0601
  974loPI    C114561   3.514   6.246   5.349  0.0508  0.1303  0.1210
  974loPI    C214562   3.328   6.423   5.043  0.0059  0.1996  0.1881
  974loPI    C314563   3.720   6.478   5.098  0.0861 -0.0969 -0.0631
  974loPI   PO414564   3.349   6.218   5.543 -0.4547 -0.0856 -0.0269
  974loPI   GL114565   3.037   6.025   5.986 -0.1377 -0.0536 -0.5210
  974loPI   GL214566   3.364   5.965   6.122  0.0816  0.3154 -0.1132
  974loPI   C1A14567   2.876   6.080   6.501 -0.1733 -0.3191 -0.2417
  974loPI   C2A14568   2.644   6.345   6.842 -0.1787  0.3098  0.0718
  974loPI   C3A14569   2.494   6.605   7.178 -0.3934 -0.0188 -0.0359
  974loPI   C4A14570   2.119   6.855   7.199 -0.1641 -0.2014  0.1376
  974loPI   C5A14571   1.751   6.794   7.557  0.0259  0.2962 -0.0997
  974loPI   C6A14572   1.716   6.436   7.925  0.0241  0.1438 -0.2177
  974loPI   C1B14573   3.310   5.906   6.670  0.2194 -0.0638  0.0799
  974loPI   C2B14574   3.226   6.172   6.968 -0.0445  0.1414  0.2727
  974loPI   C3B14575   2.980   6.457   7.230 -0.0509 -0.0576 -0.1528
  974loPI   C4B14576   2.878   6.854   7.425 -0.1585 -0.1385 -0.3086
  975loPI    C114577  12.248   7.549   5.039  0.2037  0.1890  0.0319
  975loPI    C214578  12.064   7.721   4.728 -0.2135  0.0568  0.1993
  975loPI    C314579  12.356   7.455   4.665 -0.0564  0.2873 -0.0704
  975loPI   PO414580  12.154   7.444   5.199  0.0757  0.1291  0.1988
  975loPI   GL114581  11.963   7.059   5.316  0.1549  0.1812  0.0166
  975loPI   GL214582  12.261   6.933   5.512 -0.0224  0.3821  0.0974
  975loPI   C1A14583  11.886   7.196   5.767 -0.0580  0.0282  0.1144
  975loPI   C2A14584  11.931   7.177   6.174 -0.0813 -0.0067  0.1581
  975loPI   C3A14585  11.666   7.387   6.475 -0.2627 -0.1451  0.2891
  975loPI   C4A14586  11.555   7.497   6.782  0.3114  0.2027 -0.0893
  975loPI   C5A14587  11.541   7.692   7.190  0.4501  0.1889  0.1253
  975loPI   C6A14588  11.402   7.897   7.644 -0.2717 -0.2725  0.4583
  975loPI   C1B14589  12.332   7.056   5.897  0.1411 -0.1975  0.0543
  975loPI   C2B14590  12.286   6.835   6.287  0.0398 -0.2926  0.0728
  975loPI   C3B14591  12.072   6.695   6.733 -0.0113 -0.0452 -0.0934
  975loPI   C4B14592  12.032   6.628   7.248  0.0137  0.0762  0.1536
  976loPI    C114593  14.021   0.590   5.028 -0.0054 -0.2697 -0.3099
  976loPI    C214594  13.759   0.568   4.726 -0.2271 -0.0086 -0.1417
  976loPI    C314595  13.910   0.234   4.885 -0.1736 -0.1506 -0.4821
  976loPI   PO414596  13.953   0.834   5.086  0.2679  0.0176  0.1435
  976loPI   GL114597  13.859   0.929   5.400  0.3103  0.0344 -0.0680
  976loPI   GL214598  13.649   1.031   5.620  0.0872 -0.0098 -0.2250
  976loPI   C1A14599  13.950   0.499   5.718 -0.2116  0.2524 -0.3006
  976loPI   C2A14600  13.915   0.474   6.185 -0.0112  0.0129 -0.0715
  976loPI   C3A14601  13.820   0.341   6.699 -0.1116  0.0409  0.2165
  976loPI   C4A14602  13.925  -0.030   6.998 -0.1866 -0.2174 -0.0353
  976loPI   C5A14603  14.122  -0.214   7.539 -0.2713 -0.2186  0.1500
  976loPI   C6A14604  14.400  -0.368   7.847  0.0529 -0.1218  0.1506
  976loPI   C1B14605  13.803   0.972   6.107  0.0927  0.1788 -0.1201
  976loPI   C2B14606  13.898   0.879   6.557  0.0912 -0.0919 -0.2395
  976loPI   C3B14607  13.780   0.741   6.988  0.1738 -0.0209  0.1531
  976loPI   C4B14608  13.679   0.466   7.246  0.1152  0.1825  0.3713
  977loPI    C114609   4.925   0.057   5.471 -0.1298  0.0322 -0.5136
  977loPI    C214610   5.056   0.410   5.604 -0.3901 -0.0398 -0.0437
  977loPI    C314611   5.231   0.072   5.729 -0.1935 -0.0861 -0.4298
  977loPI   PO414612   4.683   0.015   5.516  0.0242  0.0371 -0.1026
  977loPI   GL114613   4.564   0.127   5.921 -0.0236 -0.3519  0.4794
  977loPI   GL214614   4.770   0.309   5.978  0.3200  0.0041  0.1043
  977loPI   C1A14615   4.573  -0.224   6.296 -0.0851 -0.1245  0.1784
  977loPI   C2A14616   4.552  -0.258   6.771 -0.1655 -0.0632 -0.0574
  977loPI   C3A14617   4.495  -0.005   7.093 -0.4346  0.0560 -0.0171
  977loPI   C4A14618   4.025   0.152   7.278 -0.2691  0.1327  0.0557
  977loPI   C5A14619   3.939   0.388   7.606  0.2151 -0.2183 -0.3275
  977loPI   C6A14620   3.763   0.786   7.594  0.1250  0.0240  0.5256
  977loPI   C1B14621   4.816   0.130   6.513  0.1190 -0.0905 -0.0995
  977loPI   C2B14622   5.063   0.085   6.846  0.2131 -0.1716 -0.0900
  977loPI   C3B14623   5.350   0.063   7.074  0.0750  0.4317 -0.1180
  977loPI   C4B14624   5.657   0.214   7.402  0.3147 -0.1384 -0.1527
  978loPI    C114625  10.286  13.328   5.184 -0.0414  0.0048 -0.2331
  978loPI    C214626  10.310  12.929   5.173  0.3489  0.0180 -0.0408
  978loPI    C314627  10.068  13.122   4.920  0.0674 -0.3447 -0.0566
  978loPI   PO414628  10.248  13.413   5.325 -0.1800  0.2416 -0.1912
  978loPI   GL114629  10.391  13.227   5.737  0.2185  0.1098 -0.0474
  978loPI   GL214630  10.156  13.029   5.652 -0.0381 -0.0186  0.0991
  978loPI   C1A14631  10.284  13.477   6.135 -0.1240  0.0312  0.0469
  978loPI   C2A14632  10.016  13.495   6.481 -0.2086  0.1390  0.1267
  978loPI   C3A14633   9.841  13.695   6.853  0.1137  0.3154 -0.0657
  978loPI   C4A14634   9.565  13.821   7.145  0.1476 -0.1753  0.1320
  978loPI   C5A14635   9.399  13.730   7.504  0.2174 -0.2844 -0.2861
  978loPI   C6A14636   9.250  13.440   7.849  0.2488 -0.1893 -0.2154
  978loPI   C1B14637   9.970  12.941   6.145  0.0787  0.2272 -0.1586
  978loPI   C2B14638   9.850  12.987   6.539  0.2680 -0.0149 -0.4210
  978loPI   C3B14639   9.898  13.137   7.022 -0.2244 -0.2040  0.1792
  978loPI   C4B14640   9.750  13.426   7.302  0.1567  0.0420 -0.0453
  979loPI    C114641  17.562  11.327   5.078  0.0286  0.0625  0.0177
  979loPI    C214642  17.568  10.988   5.289 -0.0755 -0.0010 -0.0803
  979loPI    C314643  17.367  11.005   4.944  0.0560  0.1154 -0.1519
  979loPI   PO414644  17.841  11.397   5.223  0.2702 -0.1242  0.0995
  979loPI   GL114645  17.992  11.347   5.656  0.0449 -0.1066 -0.1320
  979loPI   GL214646  18.293  11.335   5.604  0.2528  0.0358  0.1521
  979loPI   C1A14647  17.857  11.256   6.082  0.1582 -0.1146 -0.2370
  979loPI   C2A14648  17.612  11.430   6.374  0.0396  0.1844  0.0064
  979loPI   C3A14649  17.451  11.745   6.516 -0.1423  0.0767 -0.3039
  979loPI   C4A14650  17.172  11.856   6.786 -0.3535 -0.1945  0.2831
  979loPI   C5A14651  16.966  11.976   7.045  0.0174 -0.1702 -0.0199
  979loPI   C6A14652  16.544  11.874   7.341  0.0667 -0.2965  0.0582
  979loPI   C1B14653  18.371  11.303   6.046 -0.0489 -0.2208  0.0666
  979loPI   C2B14654  18.243  11.288   6.514 -0.0978 -0.1987 -0.0885
  979loPI   C3B14655  18.353  11.171   6.903  0.0632  0.2740 -0.1766
  979loPI   C4B14656  18.327  11.000   7.369 -0.2354  0.2494 -0.2133
  980loPI    C114657   8.280  12.649   5.016 -0.3125 -0.0861 -0.0166
  980loPI    C214658   8.383  12.674   4.630 -0.2547  0.1065  0.0102
  980loPI    C314659   8.281  13.004   4.832  0.0867  0.0642  0.2615
  980loPI   PO414660   8.423  12.439   5.102 -0.2879  0.3534  0.0040
  980loPI   GL114661   8.744  12.332   5.325  0.0099 -0.2441  0.1070
  980loPI   GL214662   8.641  12.552   5.562  0.1285  0.0368  0.2025
  980loPI   C1A14663   8.958  12.116   5.532  0.2454  0.1183 -0.0143
  980loPI   C2A14664   9.011  11.944   5.967 -0.2319  0.1261 -0.1284
  980loPI   C3A14665   9.130  11.833   6.449 -0.0725 -0.2534 -0.1088
  980loPI   C4A14666   9.178  11.931   6.875  0.2750 -0.1547 -0.0726
  980loPI   C5A14667   9.095  11.881   7.307  0.0545  0.1667  0.1633
  980loPI   C6A14668   9.243  12.198   7.620 -0.4902 -0.2486 -0.1012
  980loPI   C1B14669   8.517  12.538   5.982 -0.0857 -0.2143 -0.3507
  980loPI   C2B14670   8.460  12.620   6.400  0.1166 -0.0857 -0.2394
  980loPI   C3B14671   8.566  12.699   6.778  0.3397 -0.0985 -0.1941
  980loPI   C4B14672   8.449  12.673   7.161 -0.0190  0.3381  0.0658
  981loPI    C114673   7.186  15.091   5.202 -0.2158 -0.0500 -0.0977
  981loPI    C214674   7.489  15.132   4.945  0.2221  0.1485  0.4316
  981loPI    C314675   7.306  14.779   4.982  0.2899  0.0628  0.0059
  981loPI   PO414676   7.248  15.194   5.389  0.4196 -0.1228  0.0673
  981loPI   GL114677   7.404  15.090   5.699  0.1228  0.1522 -0.1148
  981loPI   GL214678   7.577  15.392   5.733 -0.1737 -0.3427 -0.1926
  981loPI   C1A14679   7.413  15.078   6.133 -0.2556  0.2096  0.0666
  981loPI   C2A14680   7.583  15.251   6.518  0.0482  0.1551  0.2395
  981loPI   C3A14681   7.582  15.226   6.922  0.1243 -0.0767  0.1193
  981loPI   C4A14682   7.907  15.356   7.245 -0.0938  0.1695 -0.3005
  981loPI   C5A14683   7.768  15.566   7.607 -0.1169 -0.1497 -0.0817
  981loPI   C6A14684   7.950  15.572   8.011  0.0754  0.1527 -0.1388
  981loPI   C1B14685   7.712  15.650   6.069  0.3798 -0.2582 -0.0165
  981loPI   C2B14686   7.835  15.684   6.476  0.2066  0.1671 -0.0347
  981loPI   C3B14687   7.865  15.664   6.857 -0.0160 -0.2174 -0.2045
  981loPI   C4B14688   8.038  15.876   7.159  0.0606 -0.0898 -0.2217
  982loPI    C114689  16.879   7.308   4.713 -0.2822  0.0005  0.0713
  982loPI    C214690  16.874   6.928   4.837 -0.1011  0.0388  0.2002
  982loPI    C314691  16.758   7.018   4.465  0.0250 -0.1645  0.1101
  982loPI   PO414692  16.910   7.340   5.105 -0.1632 -0.1703 -0.1663
  982loPI   GL114693  16.742   7.453   5.575  0.0116 -0.0615  0.1702
  982loPI   GL214694  16.916   7.603   5.540 -0.1284  0.0983 -0.1633
  982loPI   C1A14695  16.554   7.482   5.972  0.5191  0.1203 -0.0692
  982loPI   C2A14696  16.505   7.314   6.421 -0.1902  0.1339  0.0079
  982loPI   C3A14697  16.434   7.253   6.855 -0.0055 -0.2851 -0.1736
  982loPI   C4A14698  16.434   6.984   7.301  0.0521 -0.1285  0.0919
  982loPI   C5A14699  16.699   6.672   7.523  0.0240 -0.0299  0.1090
  982loPI   C6A14700  17.008   6.447   7.703 -0.1356 -0.2336  0.1065
  982loPI   C1B14701  17.011   7.665   5.960 -0.1230  0.1065 -0.0712
  982loPI   C2B14702  16.964   7.587   6.356  0.0810 -0.0302  0.1748
  982loPI   C3B14703  16.940   7.241   6.640 -0.0288  0.2703 -0.2231
  982loPI   C4B14704  16.872   7.047   7.061  0.0711 -0.1581 -0.3848
  983loPI    C114705   9.443  12.934   4.982  0.0603 -0.0560  0.0617
  983loPI    C214706   9.329  13.052   4.617 -0.0808 -0.2834  0.0307
  983loPI    C314707   9.706  12.932   4.680  0.0005 -0.0432  0.0094
  983loPI   PO414708   9.325  12.764   5.068 -0.2245  0.3972  0.0389
  983loPI   GL114709   9.114  12.735   5.502  0.2483  0.0669  0.0220
  983loPI   GL214710   8.913  13.036   5.569 -0.0518  0.1330 -0.0698
  983loPI   C1A14711   9.069  12.460   5.842 -0.0187  0.0135  0.1031
  983loPI   C2A14712   8.947  12.284   6.365  0.0197 -0.0174  0.1841
  983loPI   C3A14713   8.706  12.198   6.786  0.1392  0.2903  0.2816
  983loPI   C4A14714   8.694  11.735   6.966  0.1636 -0.2038  0.0161
  983loPI   C5A14715   8.638  11.506   7.310  0.0755  0.0207  0.4269
  983loPI   C6A14716   8.407  11.155   7.356 -0.1625  0.1441  0.2321
  983loPI   C1B14717   8.877  12.874   5.981 -0.1795 -0.2622 -0.0733
  983loPI   C2B14718   8.929  12.784   6.418  0.0053 -0.0217 -0.1579
  983loPI   C3B14719   9.098  12.531   6.801  0.0445  0.1984 -0.1680
  983loPI   C4B14720   9.388  12.343   7.131 -0.2540 -0.0416 -0.0676
  984loPI    C114721   5.062   7.841   5.064  0.0627  0.0146  0.0061
  984loPI    C214722   4.977   8.206   4.923 -0.1735 -0.1173 -0.1999
  984loPI    C314723   4.963   7.888   4.680  0.3009 -0.2315 -0.0889
  984loPI   PO414724   4.876   7.830   5.304 -0.0403 -0.5447 -0.1288
  984loPI   GL114725   4.722   7.938   5.700 -0.0930 -0.0586  0.0432
  984loPI   GL214726   5.093   7.782   5.731  0.2535 -0.3932 -0.1862
  984loPI   C1A14727   4.733   7.991   6.100 -0.1264 -0.0390 -0.0762
  984loPI   C2A14728   4.875   8.044   6.533 -0.1343  0.1128 -0.1832
  984loPI   C3A14729   4.903   8.076   6.918  0.2402  0.0358  0.0592
  984loPI   C4A14730   4.905   8.070   7.266  0.0423  0.1227  0.0614
  984loPI   C5A14731   4.549   8.411   7.502 -0.3632 -0.0457  0.0453
  984loPI   C6A14732   4.504   8.881   7.701  0.3273 -0.0905 -0.1574
  984loPI   C1B14733   5.174   7.806   6.236 -0.1200  0.4001 -0.0133
  984loPI   C2B14734   5.304   7.852   6.742  0.0964 -0.1012  0.0165
  984loPI   C3B14735   5.241   7.721   7.093 -0.2948  0.0488 -0.1764
  984loPI   C4B14736   5.052   7.684   7.604  0.1015  0.0033 -0.2728
  985loPI    C114737  11.286   6.769   5.145 -0.0053 -0.3003 -0.1752
  985loPI    C214738  11.602   6.954   4.983 -0.0394 -0.1922 -0.1196
  985loPI    C314739  11.274   6.887   4.763 -0.1709  0.1565 -0.0364
  985loPI   PO414740  11.143   6.898   5.342  0.2734  0.1908 -0.0022
  985loPI   GL114741  10.884   7.154   5.611  0.3461  0.0119 -0.2582
  985loPI   GL214742  11.025   7.422   5.566  0.0951  0.0712 -0.0761
  985loPI   C1A14743  10.928   7.061   6.059 -0.0035  0.0198 -0.2179
  985loPI   C2A14744  10.972   6.730   6.400  0.0504 -0.0941  0.0777
  985loPI   C3A14745  10.984   6.733   6.866  0.0643  0.1658  0.0506
  985loPI   C4A14746  11.040   6.708   7.356  0.2984 -0.1251  0.0523
  985loPI   C5A14747  10.720   6.605   7.575  0.0518 -0.2655 -0.0761
  985loPI   C6A14748  10.376   6.941   7.501 -0.2456 -0.1642  0.0512
  985loPI   C1B14749  11.320   7.448   5.979  0.0686 -0.0592 -0.0523
  985loPI   C2B14750  11.152   7.470   6.304 -0.2651 -0.1517  0.0512
  985loPI   C3B14751  11.034   7.283   6.790  0.0525 -0.1180 -0.0036
  985loPI   C4B14752  10.773   7.084   7.169 -0.0106 -0.1297  0.2017
  986loPI    C114753   6.977  15.827   5.428  0.0076  0.1429  0.0559
  986loPI    C214754   7.101  15.638   5.098  0.0554  0.3160 -0.0263
  986loPI    C314755   7.349  15.680   5.409 -0.0538 -0.0223  0.1110
  986loPI   PO414756   6.704  15.823   5.417 -0.0015  0.3843  0.2401
  986loPI   GL114757   6.286  15.734   5.583  0.1669 -0.0400 -0.1041
  986loPI   GL214758   5.972  15.544   5.620 -0.2068  0.0710 -0.2184
  986loPI   C1A14759   6.308  15.938   6.027  0.0387  0.5070 -0.0723
  986loPI   C2A14760   6.475  16.046   6.446 -0.1509 -0.0144 -0.3200
  986loPI   C3A14761   6.734  16.056   6.726 -0.1078 -0.0182  0.2144
  986loPI   C4A14762   7.124  16.196   6.783  0.1666  0.1546 -0.2408
  986loPI   C5A14763   7.398  16.534   6.928  0.1154 -0.2204  0.0023
  986loPI   C6A14764   7.514  16.659   7.280 -0.1691 -0.2189  0.2277
  986loPI   C1B14765   6.167  15.476   6.105  0.2494  0.1937 -0.2210
  986loPI   C2B14766   6.153  15.617   6.448 -0.3629  0.3295  0.1291
  986loPI   C3B14767   6.140  15.838   6.849 -0.0907  0.2635  0.1503
  986loPI   C4B14768   6.119  15.707   7.221 -0.1941 -0.0719 -0.4265
  987loPI    C114769   7.542  14.283   5.370 -0.1386 -0.1413 -0.0013
  987loPI    C214770   7.717  14.375   5.022 -0.1471  0.3133  0.1092
  987loPI    C314771   7.373  14.171   5.026 -0.0887  0.2072 -0.1431
  987loPI   PO414772   7.687  14.088   5.563 -0.1281 -0.1164  0.0289
  987loPI   GL114773   7.987  14.032   5.879  0.0258  0.2763  0.1702
  987loPI   GL214774   8.014  14.296   5.853 -0.0620 -0.1864 -0.4410
  987loPI   C1A14775   8.094  14.037   6.298  0.1363  0.0927 -0.1330
  987loPI   C2A14776   8.114  14.362   6.661 -0.1252  0.1262  0.0379
  987loPI   C3A14777   8.204  14.440   7.004 -0.1633  0.2123 -0.0540
  987loPI   C4A14778   8.341  14.655   7.392  0.2429 -0.4039  0.0425
  987loPI   C5A14779   8.563  14.888   7.740 -0.2014  0.3300 -0.2611
  987loPI   C6A14780   8.654  14.957   8.132 -0.2073 -0.0269  0.2729
  987loPI   C1B14781   8.278  14.514   6.123  0.3522  0.1212 -0.2243
  987loPI   C2B14782   8.516  14.493   6.411  0.0810 -0.1317 -0.1647
  987loPI   C3B14783   8.585  14.135   6.575  0.1854  0.3302 -0.2158
  987loPI   C4B14784   8.599  14.026   7.052  0.0311  0.2989  0.1098
  988loPI    C114785  14.474   4.543   4.670  0.1072  0.0705 -0.3866
  988loPI    C214786  14.103   4.398   4.635  0.1452 -0.0841 -0.1720
  988loPI    C314787  14.217   4.711   4.414 -0.0801 -0.0989 -0.3128
  988loPI   PO414788  14.510   4.644   4.891 -0.0787  0.1718 -0.0057
  988loPI   GL114789  14.375   4.769   5.214 -0.0218  0.1930  0.0989
  988loPI   GL214790  14.193   4.678   5.410 -0.3703  0.0977 -0.0214
  988loPI   C1A14791  14.622   4.649   5.581 -0.1668  0.0686 -0.3632
  988loPI   C2A14792  14.917   4.702   5.863 -0.3062  0.0580  0.0566
  988loPI   C3A14793  15.318   4.531   6.182  0.0168 -0.0129  0.2737
  988loPI   C4A14794  15.497   4.514   6.590 -0.0227  0.1409 -0.2114
  988loPI   C5A14795  15.392   4.718   6.982  0.1192  0.0720 -0.2561
  988loPI   C6A14796  15.174   4.891   7.348 -0.0271 -0.1620  0.0460
  988loPI   C1B14797  14.237   4.555   5.862  0.0254 -0.1401 -0.0252
  988loPI   C2B14798  14.584   4.404   6.029 -0.5258 -0.1180 -0.0343
  988loPI   C3B14799  14.935   4.139   6.259  0.2754 -0.0116  0.1887
  988loPI   C4B14800  15.343   3.999   6.481  0.2359 -0.1874  0.0157
  989loPI    C114801  10.963  13.199   4.845  0.1404 -0.3562 -0.1380
  989loPI    C214802  10.568  13.140   4.826  0.0895  0.0049 -0.2821
  989loPI    C314803  10.808  12.975   4.553  0.0248 -0.1030 -0.2742
  989loPI   PO414804  10.991  13.340   4.999 -0.1246  0.0427 -0.2177
  989loPI   GL114805  11.149  13.418   5.468 -0.0766 -0.0004  0.0107
  989loPI   GL214806  11.497  13.331   5.391 -0.0824 -0.0565  0.2880
  989loPI   C1A14807  11.249  13.348   5.940  0.1689  0.0297 -0.2168
  989loPI   C2A14808  11.292  13.468   6.309 -0.1681 -0.1936  0.3208
  989loPI   C3A14809  11.045  13.521   6.685 -0.0835  0.1314  0.1778
  989loPI   C4A14810  10.884  13.635   7.118  0.2060  0.0673 -0.1379
  989loPI   C5A14811  10.947  13.860   7.554 -0.2637 -0.1110 -0.2640
  989loPI   C6A14812  11.081  13.736   7.897 -0.2974  0.0622 -0.2487
  989loPI   C1B14813  11.623  13.117   5.762 -0.3859  0.2231 -0.2611
  989loPI   C2B14814  11.757  13.160   6.203  0.1813  0.0529 -0.0445
  989loPI   C3B14815  11.728  13.151   6.722 -0.1672 -0.5388 -0.2148
  989loPI   C4B14816  11.698  13.326   7.067 -0.1903 -0.1964 -0.1242
  990loPI    C114817  17.484   2.949   4.937  0.0200 -0.0404 -0.0589
  990loPI    C214818  17.362   2.929   5.317  0.3171  0.1327  0.0497
  990loPI    C314819  17.127   3.096   5.039 -0.0171 -0.2377  0.1005
  990loPI   PO414820  17.719   3.065   4.973  0.0738 -0.0701 -0.4387
  990loPI   GL114821  17.879   2.961   5.428  0.0494  0.2443  0.0376
  990loPI   GL214822  18.055   3.195   5.327  0.0074  0.1444 -0.0702
  990loPI   C1A14823  17.897   2.900   5.844 -0.0802 -0.3760 -0.0338
  990loPI   C2A14824  18.117   2.883   6.200 -0.1744 -0.1580  0.3318
  990loPI   C3A14825  18.170   2.920   6.567  0.0681 -0.2111 -0.0263
  990loPI   C4A14826  18.311   2.997   7.015 -0.2803 -0.2486 -0.0651
  990loPI   C5A14827  18.563   3.474   7.206 -0.3125  0.2059 -0.1625
  990loPI   C6A14828  18.481   3.720   7.481 -0.1862  0.2273 -0.0302
  990loPI   C1B14829  17.960   3.387   5.767 -0.1374 -0.0567  0.0778
  990loPI   C2B14830  17.837   3.315   6.189  0.1112  0.0309 -0.1521
  990loPI   C3B14831  17.683   2.935   6.447  0.1324  0.3162  0.4378
  990loPI   C4B14832  17.701   2.817   6.955  0.0274  0.0348  0.0349
  991loPI    C114833   8.612  15.820   5.068 -0.2979 -0.0411 -0.0502
  991loPI    C214834   8.799  15.539   4.854  0.0397  0.0728  0.0881
  991loPI    C314835   8.683  15.880   4.679  0.2809  0.1498  0.0740
  991loPI   PO414836   8.762  15.917   5.178  0.0188 -0.2363 -0.0175
  991loPI   GL114837   8.944  15.990   5.612 -0.0993  0.0791  0.2949
  991loPI   GL214838   9.131  16.278   5.676  0.2676  0.0108 -0.1635
  991loPI   C1A14839   8.836  15.849   6.047  0.1824 -0.1862 -0.2509
  991loPI   C2A14840   8.925  15.731   6.413 -0.3688 -0.1638 -0.1232
  991loPI   C3A14841   8.986  15.715   6.872  0.2078  0.2636  0.3328
  991loPI   C4A14842   8.912  15.443   7.183 -0.1330  0.0858 -0.1230
  991loPI   C5A14843   8.841  15.304   7.616  0.1105 -0.3038 -0.1835
  991loPI   C6A14844   8.494  15.372   7.911  0.0999 -0.0473 -0.0283
  991loPI   C1B14845   9.298  16.582   5.953  0.1148  0.0147  0.3850
  991loPI   C2B14846   9.131  16.680   6.392 -0.0967  0.2095  0.0869
  991loPI   C3B14847   9.076  16.705   6.814 -0.0365 -0.0968 -0.3946
  991loPI   C4B14848   9.183  16.997   7.111  0.0663 -0.2514 -0.2656
  992loPI    C114849  12.668   3.173   5.163  0.2864 -0.1328 -0.0385
  992loPI    C214850  12.737   2.852   4.934 -0.1299 -0.0919 -0.2309
  992loPI    C314851  12.559   2.810   5.290  0.3496 -0.1343  0.0117
  992loPI   PO414852  12.961   3.289   5.232 -0.1725 -0.1119 -0.0814
  992loPI   GL114853  13.150   3.415   5.545  0.0000 -0.0307  0.0724
  992loPI   GL214854  12.956   3.294   5.749 -0.0931  0.0832  0.0344
  992loPI   C1A14855  13.398   3.532   5.812  0.1346  0.1830 -0.0928
  992loPI   C2A14856  13.497   3.314   6.159 -0.0990 -0.0515  0.1341
  992loPI   C3A14857  13.435   3.350   6.587 -0.1572 -0.2452  0.3988
  992loPI   C4A14858  13.565   3.643   6.936 -0.0404 -0.0006 -0.4059
  992loPI   C5A14859  13.790   3.761   7.276  0.0091  0.1815  0.3167
  992loPI   C6A14860  13.980   3.576   7.631 -0.3035  0.4519  0.0299
  992loPI   C1B14861  13.019   3.503   6.213 -0.1105  0.1326  0.1700
  992loPI   C2B14862  13.053   3.676   6.693 -0.3016  0.2366 -0.2795
  992loPI   C3B14863  13.166   3.941   7.010 -0.0354  0.1276 -0.2899
  992loPI   C4B14864  13.217   3.906   7.467  0.0579  0.2166  0.0921
  993loPI    C114865  13.536  13.911   4.630 -0.1136  0.1004 -0.1833
  993loPI    C214866  13.913  13.791   4.687 -0.1103  0.1988  0.0107
  993loPI    C314867  13.793  13.906   4.323 -0.0119 -0.0309 -0.0969
  993loPI   PO414868  13.559  14.103   4.877  0.1779  0.2827  0.0854
  993loPI   GL114869  13.301  14.232   5.200 -0.1857  0.0603  0.1297
  993loPI   GL214870  13.360  14.686   5.280  0.1126  0.0442  0.0312
  993loPI   C1A14871  13.470  14.264   5.565 -0.0951 -0.1805 -0.1129
  993loPI   C2A14872  13.434  14.183   5.947 -0.0240 -0.0616 -0.0453
  993loPI   C3A14873  13.557  13.933   6.168  0.0835  0.0360 -0.0380
  993loPI   C4A14874  13.420  13.802   6.635 -0.0786 -0.0755  0.0093
  993loPI   C5A14875  13.082  13.790   6.898  0.0103  0.2644  0.1058
  993loPI   C6A14876  12.836  13.477   7.185 -0.0586  0.1267  0.2872
  993loPI   C1B14877  13.470  14.833   5.639  0.3858 -0.0373  0.2898
  993loPI   C2B14878  13.464  14.677   6.080 -0.0057  0.1083  0.0585
  993loPI   C3B14879  13.496  14.728   6.605  0.3003 -0.0773 -0.0594
  993loPI   C4B14880  13.443  14.931   6.939  0.0703  0.0450 -0.0685
  994loPI    C114881  11.348  13.773   4.443 -0.0828 -0.0020 -0.1226
  994loPI    C214882  11.286  13.383   4.505  0.0109 -0.0757 -0.4710
  994loPI    C314883  10.981  13.640   4.530 -0.0308 -0.1540 -0.1318
  994loPI   PO414884  11.500  13.870   4.559  0.0027  0.0547  0.2900
  994loPI   GL114885  11.645  13.970   5.038 -0.2003  0.1349  0.2479
  994loPI   GL214886  11.792  13.722   5.196 -0.0357  0.0480 -0.0562
  994loPI   C1A14887  11.514  14.103   5.373 -0.3357  0.2444 -0.0437
  994loPI   C2A14888  11.501  14.281   5.795  0.1219 -0.1695 -0.2488
  994loPI   C3A14889  11.476  14.499   6.213  0.1928 -0.0386  0.1790
  994loPI   C4A14890  11.652  14.571   6.579  0.0867 -0.1007 -0.1262
  994loPI   C5A14891  11.901  14.861   6.831  0.0042  0.0694  0.0579
  994loPI   C6A14892  11.995  15.038   7.131 -0.0534  0.2421  0.2394
  994loPI   C1B14893  11.638  13.704   5.718 -0.1968 -0.0060 -0.0452
  994loPI   C2B14894  11.659  13.728   6.200  0.3093  0.2283  0.0449
  994loPI   C3B14895  11.647  13.643   6.653 -0.1891 -0.1713 -0.1518
  994loPI   C4B14896  11.382  13.679   7.053  0.0832  0.3292  0.3552
  995loPI    C114897  13.670  10.416   5.356 -0.1374 -0.2271 -0.3006
  995loPI    C214898  13.839  10.121   5.565  0.1825  0.0944 -0.0942
  995loPI    C314899  13.875  10.129   5.167 -0.0417 -0.2740 -0.1269
  995loPI   PO414900  13.461  10.515   5.646  0.2074  0.1418  0.1227
  995loPI   GL114901  13.482  10.849   6.054  0.1815  0.2206  0.0456
  995loPI   GL214902  13.712  10.534   6.169 -0.1794 -0.0207 -0.2031
  995loPI   C1A14903  13.287  10.902   6.454  0.0899  0.0013  0.0770
  995loPI   C2A14904  13.229  10.712   6.847 -0.1139  0.0279 -0.0846
  995loPI   C3A14905  13.475  10.561   7.280  0.1042  0.2989 -0.1616
  995loPI   C4A14906  13.639  10.591   7.693  0.1044  0.0032  0.1427
  995loPI   C5A14907  13.823  10.887   8.140 -0.1943 -0.1539  0.1155
  995loPI   C6A14908  13.859  10.854   8.595  0.2462  0.1437  0.2048
  995loPI   C1B14909  13.724  10.559   6.534  0.0932  0.0787 -0.1695
  995loPI   C2B14910  13.761  10.666   6.926 -0.0245 -0.0140  0.3317
  995loPI   C3B14911  13.902  10.926   7.321 -0.0245  0.2475  0.0546
  995loPI   C4B14912  14.211  10.730   7.583  0.1124  0.1630 -0.2843
  996loPI    C114913  15.727  12.601   4.968 -0.0604  0.1501 -0.1501
  996loPI    C214914  15.917  12.377   4.697  0.1281  0.1201  0.0044
  996loPI    C314915  15.936  12.776   4.675 -0.1078  0.1227 -0.2004
  996loPI   PO414916  15.839  12.627   5.151  0.0309  0.1301 -0.0000
  996loPI   GL114917  16.048  12.784   5.545 -0.0927 -0.2047 -0.2023
  996loPI   GL214918  16.420  12.794   5.480 -0.3697 -0.3527  0.1266
  996loPI   C1A14919  16.266  12.670   5.929 -0.0045  0.2564  0.0520
  996loPI   C2A14920  16.385  12.699   6.369  0.1931 -0.1899  0.3128
  996loPI   C3A14921  16.357  12.609   6.906  0.1249 -0.3456  0.1379
  996loPI   C4A14922  16.194  13.000   7.111  0.3606 -0.0609 -0.2471
  996loPI   C5A14923  15.673  13.098   7.172 -0.1513  0.0502  0.1836
  996loPI   C6A14924  15.253  13.146   7.002 -0.0824  0.2086  0.2169
  996loPI   C1B14925  16.603  12.395   5.695 -0.1239 -0.1546  0.0553
  996loPI   C2B14926  16.688  12.305   6.123 -0.2662  0.0903 -0.1747
  996loPI   C3B14927  16.752  12.164   6.554  0.4435  0.0220 -0.2955
  996loPI   C4B14928  16.477  12.104   6.952  0.0809  0.3305  0.2070
  997loPI    C114929  11.068  11.205   4.888 -0.0325 -0.3343  0.0004
  997loPI    C214930  11.244  11.564   4.887 -0.2726 -0.2148  0.0900
  997loPI    C314931  10.891  11.513   4.704 -0.2719 -0.3885  0.1357
  997loPI   PO414932  11.103  11.149   5.198 -0.1548  0.1041  0.0397
  997loPI   GL114933  11.022  11.044   5.640  0.4639  0.2078 -0.1039
  997loPI   GL214934  10.777  11.281   5.571 -0.1246 -0.0988 -0.0001
  997loPI   C1A14935  11.037  10.923   6.163 -0.1677  0.4275  0.0536
  997loPI   C2A14936  10.953  11.075   6.472  0.0005 -0.0296 -0.3626
  997loPI   C3A14937  10.990  11.118   6.909  0.0325  0.0920 -0.1372
  997loPI   C4A14938  11.118  10.807   7.217 -0.1962  0.0434  0.1345
  997loPI   C5A14939  11.341  10.522   7.505  0.0257 -0.1055 -0.1076
  997loPI   C6A14940  11.772  10.589   7.724 -0.2595 -0.2886 -0.0810
  997loPI   C1B14941  10.657  11.234   5.985 -0.2252 -0.0591 -0.0781
  997loPI   C2B14942  10.471  11.007   6.356 -0.1975 -0.0354 -0.3961
  997loPI   C3B14943  10.578  10.748   6.723  0.3314 -0.2183  0.1080
  997loPI   C4B14944  10.585  10.860   7.136 -0.0110 -0.1624  0.1374
  998loPI    C114945  17.653   9.330   5.199 -0.2786 -0.0419  0.0443
  998loPI    C214946  18.051   9.300   5.223 -0.2651  0.2603  0.2380
  998loPI    C314947  17.834   8.985   5.108  0.0405  0.1371 -0.0158
  998loPI   PO414948  17.583   9.544   5.301  0.0296  0.0233  0.1907
  998loPI   GL114949  17.207   9.637   5.643  0.0117  0.0196 -0.2279
  998loPI   GL214950  16.811   9.794   5.611  0.2044  0.3217 -0.1401
  998loPI   C1A14951  17.423   9.481   5.964 -0.0608  0.3175 -0.0968
  998loPI   C2A14952  17.452   9.312   6.321  0.0701  0.0542 -0.0819
  998loPI   C3A14953  17.346   9.117   6.735 -0.0387  0.2086  0.1899
  998loPI   C4A14954  17.414   8.999   7.138  0.1283 -0.1573  0.1663
  998loPI   C5A14955  17.152   8.689   7.485  0.1982  0.0297 -0.0874
  998loPI   C6A14956  16.981   8.329   7.781  0.1053  0.3063  0.0410
  998loPI   C1B14957  16.727   9.829   5.992 -0.1565  0.1034  0.0298
  998loPI   C2B14958  16.645   9.814   6.435 -0.1223  0.2438 -0.0179
  998loPI   C3B14959  16.772   9.703   6.819 -0.1211  0.0179  0.0126
  998loPI   C4B14960  16.520   9.461   7.082  0.0083 -0.2686 -0.0283
  999loPI    C114961   7.664   0.916   4.916 -0.0164 -0.3346  0.0456
  999loPI    C214962   7.340   0.964   4.687 -0.0559 -0.0832  0.1503
  999loPI    C314963   7.699   0.918   4.517 -0.0489  0.3593  0.0344
  999loPI   PO414964   7.662   1.139   5.057 -0.0923 -0.2071 -0.2710
  999loPI   GL114965   7.853   1.134   5.556 -0.1274 -0.2721  0.1017
  999loPI   GL214966   7.720   1.350   5.790 -0.1543  0.0151 -0.1866
  999loPI   C1A14967   7.614   0.899   5.865 -0.1533  0.0663  0.0650
  999loPI   C2A14968   7.307   0.795   6.110  0.1581  0.0409 -0.2459
  999loPI   C3A14969   7.259   0.836   6.545  0.3018  0.0403  0.4471
  999loPI   C4A14970   7.297   0.787   6.944  0.2262 -0.2586 -0.0942
  999loPI   C5A14971   7.527   0.625   7.368 -0.2079  0.1024  0.0022
  999loPI   C6A14972   7.815   0.693   7.587 -0.1930  0.3010  0.0149
  999loPI   C1B14973   7.492   1.244   6.256  0.0779 -0.4431  0.0262
  999loPI   C2B14974   7.314   1.327   6.678 -0.3298 -0.4682 -0.0736
  999loPI   C3B14975   7.154   1.432   7.118  0.0200 -0.2795  0.0480
  999loPI   C4B14976   6.968   1.654   7.286 -0.0992 -0.0444 -0.1007
 1000loPI    C114977  14.052   8.227   4.991  0.0015  0.1738  0.1864
 1000loPI    C214978  14.141   8.587   4.840  0.0820  0.0664 -0.0255
 1000loPI    C314979  13.912   8.333   4.631 -0.0553  0.0308  0.1660
 1000loPI   PO414980  14.114   8.301   5.248 -0.0754 -0.1524  0.0985
 1000loPI   GL114981  14.221   8.200   5.602 -0.2389 -0.0634  0.0071
 1000loPI   GL214982  14.099   7.849   5.804 -0.1200 -0.1143 -0.1518
 1000loPI   C1A14983  14.412   8.492   5.763 -0.0552  0.2459  0.3110
 1000loPI   C2A14984  14.294   8.761   6.201 -0.0480 -0.0352 -0.1574
 1000loPI   C3A14985  14.051   9.076   6.492 -0.1196  0.2445  0.1961
 1000loPI   C4A14986  13.884   9.049   6.884 -0.2175  0.0969 -0.2131
 1000loPI   C5A14987  13.811   8.700   7.127  0.0604 -0.2131 -0.1085
 1000loPI   C6A14988  13.714   8.306   7.065 -0.0587 -0.1979  0.0643
 1000loPI   C1B14989  14.117   7.827   6.213  0.4948 -0.0064 -0.1102
 1000loPI   C2B14990  14.173   7.875   6.601 -0.0049 -0.1300  0.2875
 1000loPI   C3B14991  14.347   8.053   7.050  0.2239  0.1108  0.4747
 1000loPI   C4B14992  14.574   8.033   7.276  0.0091 -0.1486 -0.1231
 1001loPI    C114993  16.933  10.270   4.973 -0.2189 -0.0917 -0.0424
 1001loPI    C214994  16.873  10.660   4.906  0.1475  0.0405  0.3537
 1001loPI    C314995  17.197  10.479   4.757 -0.1327 -0.1718 -0.0150
 1001loPI   PO414996  16.911  10.230   5.254 -0.0462 -0.3332  0.0432
 1001loPI   GL114997  16.875  10.325   5.677  0.1067 -0.1847  0.0682
 1001loPI   GL214998  16.591  10.222   5.667  0.3131  0.2258 -0.0046
 1001loPI   C1A14999  16.895  10.239   6.224  0.0119 -0.1102  0.3394
 1001loPI   C2A15000  17.012  10.224   6.561  0.1349 -0.0543  0.0979
 1001loPI   C3A15001  16.941  10.409   6.940  0.3961 -0.1447  0.1649
 1001loPI   C4A15002  16.913  10.466   7.474 -0.0628  0.0864  0.0422
 1001loPI   C5A15003  16.960  10.750   7.727 -0.1252  0.0204  0.1077
 1001loPI   C6A15004  17.144  10.892   8.126 -0.0107  0.2065 -0.1332
 1001loPI   C1B15005  16.436  10.201   6.158 -0.1928  0.2178  0.0209
 1001loPI   C2B15006  16.416  10.259   6.661  0.0326 -0.1635  0.0433
 1001loPI   C3B15007  16.426  10.021   7.011  0.2971 -0.1995 -0.3277
 1001loPI   C4B15008  16.562   9.848   7.376  0.3867  0.0601  0.0673
 1002loPI    C115009   6.686   2.886   5.484 -0.2548  0.0117  0.2524
 1002loPI    C215010   6.479   2.898   5.143  0.2480  0.2939 -0.0556
 1002loPI    C315011   6.288   2.918   5.493 -0.2660  0.1432 -0.3164
 1002loPI   PO415012   6.912   3.067   5.401  0.0339  0.0520  0.0551
 1002loPI   GL115013   7.236   3.415   5.576  0.3871 -0.1366 -0.3568
 1002loPI   GL215014   7.583   3.360   5.695 -0.0854 -0.1411  0.0365
 1002loPI   C1A15015   7.112   3.419   6.003  0.4133 -0.2143 -0.1627
 1002loPI   C2A15016   7.052   3.278   6.452 -0.1580  0.0675 -0.0764
 1002loPI   C3A15017   6.992   3.391   6.957 -0.1108  0.2176  0.1188
 1002loPI   C4A15018   7.242   3.457   7.346  0.1381 -0.0750  0.0968
 1002loPI   C5A15019   7.279   3.779   7.603  0.2332 -0.1080  0.1330
 1002loPI   C6A15020   7.638   4.046   7.528 -0.2762  0.0645 -0.1052
 1002loPI   C1B15021   7.608   3.305   6.089  0.0183 -0.0504 -0.3685
 1002loPI   C2B15022   7.674   3.328   6.483  0.2704 -0.2447 -0.0486
 1002loPI   C3B15023   7.627   3.429   6.963 -0.0935  0.1438 -0.2972
 1002loPI   C4B15024   7.725   3.592   7.338 -0.1771 -0.1873 -0.0199
 1003loPI    C115025   6.862   0.342   5.250 -0.0207 -0.1223 -0.1961
 1003loPI    C215026   7.025  -0.007   5.357  0.1883 -0.0058 -0.1267
 1003loPI    C315027   7.183   0.203   5.056  0.1100  0.0664 -0.1179
 1003loPI   PO415028   6.851   0.507   5.451  0.2296 -0.4773  0.1351
 1003loPI   GL115029   6.737   0.545   5.848  0.0798  0.1380 -0.1878
 1003loPI   GL215030   7.065   0.410   5.893 -0.1621 -0.0256  0.0102
 1003loPI   C1A15031   6.680   0.657   6.098  0.1130  0.3318  0.2093
 1003loPI   C2A15032   6.779   0.667   6.483  0.0832 -0.1738  0.1978
 1003loPI   C3A15033   6.710   0.661   6.859 -0.2378  0.1550  0.0242
 1003loPI   C4A15034   6.696   0.552   7.224  0.0620 -0.1131  0.1554
 1003loPI   C5A15035   6.605   0.784   7.610  0.3007  0.1551 -0.1489
 1003loPI   C6A15036   6.449   1.216   7.635 -0.0861 -0.1645 -0.0747
 1003loPI   C1B15037   7.144   0.367   6.321  0.3856  0.1123 -0.1478
 1003loPI   C2B15038   7.042   0.220   6.730  0.2293 -0.0426  0.1181
 1003loPI   C3B15039   6.802   0.021   7.033 -0.2454  0.2146  0.0933
 1003loPI   C4B15040   6.550   0.023   7.377 -0.1179  0.0755  0.0695
 1004loPI    C115041   5.022  16.405   5.021  0.2747  0.0971  0.1231
 1004loPI    C215042   5.341  16.340   4.788  0.1110  0.1210 -0.1114
 1004loPI    C315043   4.974  16.344   4.629 -0.0712 -0.5644  0.2535
 1004loPI   PO415044   5.028  16.305   5.256 -0.0736 -0.1984  0.0405
 1004loPI   GL115045   4.820  16.340   5.686 -0.0927 -0.1342 -0.2398
 1004loPI   GL215046   4.822  16.007   5.608  0.1688  0.1415 -0.1082
 1004loPI   C1A15047   4.694  16.200   6.080 -0.0575  0.0050  0.0475
 1004loPI   C2A15048   4.525  16.130   6.491 -0.1766  0.1885  0.0843
 1004loPI   C3A15049   4.401  16.151   6.857  0.4692  0.1074  0.4337
 1004loPI   C4A15050   4.122  16.154   7.182 -0.0066 -0.0678 -0.1006
 1004loPI   C5A15051   3.916  16.160   7.544  0.3448 -0.1798  0.0284
 1004loPI   C6A15052   3.609  16.096   7.823 -0.2503  0.0446 -0.1726
 1004loPI   C1B15053   4.701  15.775   5.953  0.0176  0.2185 -0.2636
 1004loPI   C2B15054   4.727  15.566   6.380  0.0566 -0.2300 -0.0250
 1004loPI   C3B15055   4.743  15.690   6.813  0.1114 -0.0646 -0.5046
 1004loPI   C4B15056   4.766  15.617   7.210  0.0406 -0.2110 -0.1211
 1005loPI    C115057  11.321   2.599   5.062  0.0509 -0.1092 -0.0408
 1005loPI    C215058  11.229   2.732   4.696  0.1367  0.1483  0.0284
 1005loPI    C315059  11.359   2.357   4.746 -0.2435 -0.0139 -0.1528
 1005loPI   PO415060  11.074   2.661   5.181 -0.2353 -0.0811 -0.1731
 1005loPI   GL115061  10.851   2.365   5.479 -0.2340  0.1116  0.2285
 1005loPI   GL215062  10.993   2.079   5.626  0.0120 -0.0925 -0.2370
 1005loPI   C1A15063  10.625   2.463   5.779  0.0986  0.0245  0.3334
 1005loPI   C2A15064  10.314   2.678   6.092  0.0707 -0.0641 -0.4348
 1005loPI   C3A15065  10.195   2.711   6.500  0.0856  0.2503 -0.1102
 1005loPI   C4A15066  10.043   2.704   6.821 -0.0015 -0.1193  0.0893
 1005loPI   C5A15067  10.182   2.883   7.211 -0.1638 -0.4544  0.1129
 1005loPI   C6A15068  10.266   3.122   7.610 -0.0647 -0.3596 -0.1796
 1005loPI   C1B15069  10.901   2.120   5.974  0.0543  0.0037  0.0063
 1005loPI   C2B15070  10.702   2.384   6.350  0.1163 -0.0376  0.1313
 1005loPI   C3B15071  10.448   2.328   6.785  0.2065 -0.1983  0.0260
 1005loPI   C4B15072  10.411   2.391   7.206  0.1368  0.0192  0.0316
 1006loPI    C115073   7.956  17.706   4.944  0.0542 -0.0118  0.0170
 1006loPI    C215074   8.298  17.913   4.946  0.0091  0.0636  0.0022
 1006loPI    C315075   7.993  18.033   4.717  0.1153 -0.2390 -0.3080
 1006loPI   PO415076   7.857  17.624   5.152  0.1965  0.3465  0.0771
 1006loPI   GL115077   7.731  17.782   5.553  0.1528 -0.1096  0.0042
 1006loPI   GL215078   7.477  17.945   5.554 -0.1287 -0.1907  0.0931
 1006loPI   C1A15079   7.766  17.554   5.952 -0.0237 -0.0086  0.2939
 1006loPI   C2A15080   8.162  17.475   6.190  0.3657 -0.0314 -0.0387
 1006loPI   C3A15081   8.489  17.410   6.523  0.2338  0.2515  0.1557
 1006loPI   C4A15082   8.655  17.711   6.760  0.0320 -0.2190 -0.0795
 1006loPI   C5A15083   8.528  17.906   7.149 -0.0630  0.1793 -0.0276
 1006loPI   C6A15084   8.495  17.849   7.537  0.0331 -0.1543 -0.3237
 1006loPI   C1B15085   7.248  17.835   5.879 -0.2046  0.1059 -0.1654
 1006loPI   C2B15086   7.074  17.721   6.319  0.0869  0.0625  0.0544
 1006loPI   C3B15087   6.739  17.695   6.619  0.3140 -0.0174 -0.0995
 1006loPI   C4B15088   6.760  17.366   6.955  0.0239  0.0441  0.1676
 1007loPI    C115089  11.126   5.047   4.709 -0.1818  0.0339 -0.0604
 1007loPI    C215090  11.345   5.198   4.411  0.1002 -0.1407  0.0544
 1007loPI    C315091  11.152   4.851   4.361 -0.0098 -0.0739  0.0119
 1007loPI   PO415092  11.343   5.122   4.921 -0.0287  0.1427 -0.0071
 1007loPI   GL115093  11.344   5.219   5.323 -0.0799  0.2080  0.0323
 1007loPI   GL215094  11.657   5.262   5.506  0.3191 -0.1219  0.0947
 1007loPI   C1A15095  11.179   5.140   5.747  0.1004 -0.1891  0.4641
 1007loPI   C2A15096  11.279   5.202   6.205 -0.1379 -0.2618  0.3033
 1007loPI   C3A15097  11.606   5.385   6.515 -0.3632 -0.2368  0.2899
 1007loPI   C4A15098  11.951   5.363   6.669  0.2261 -0.5526  0.2392
 1007loPI   C5A15099  12.118   5.218   7.039 -0.1079 -0.2222 -0.1124
 1007loPI   C6A15100  12.106   4.864   7.416 -0.0984  0.2306  0.1053
 1007loPI   C1B15101  11.842   5.471   5.775  0.1702 -0.1069 -0.3513
 1007loPI   C2B15102  11.984   5.565   6.205 -0.0740  0.1215 -0.0438
 1007loPI   C3B15103  12.092   5.833   6.498 -0.0412 -0.2821  0.0381
 1007loPI   C4B15104  12.167   5.913   6.956 -0.1288 -0.1908 -0.0823
 1008loPI    C115105   6.148  15.441   5.189 -0.0482  0.2126 -0.0083
 1008loPI    C215106   5.952  15.266   4.887 -0.0527  0.2789 -0.0438
 1008loPI    C315107   5.777  15.559   5.096 -0.1939 -0.0181  0.2629
 1008loPI   PO415108   6.272  15.222   5.327 -0.2139  0.4430  0.0829
 1008loPI   GL115109   6.528  15.347   5.774  0.1556 -0.0580 -0.3783
 1008loPI   GL215110   6.375  15.062   5.832  0.1515  0.0221  0.0817
 1008loPI   C1A15111   6.669  15.463   6.140 -0.2304  0.0872 -0.0989
 1008loPI   C2A15112   6.709  15.570   6.540  0.4236  0.0162 -0.1502
 1008loPI   C3A15113   6.730  15.636   6.937  0.0052  0.0627  0.4060
 1008loPI   C4A15114   6.860  15.914   7.190  0.2978 -0.3415  0.0644
 1008loPI   C5A15115   7.213  16.216   7.320  0.1163 -0.2734  0.3691
 1008loPI   C6A15116   7.412  16.402   7.680  0.1463  0.1047  0.4114
 1008loPI   C1B15117   6.481  15.048   6.307  0.1746 -0.4157 -0.1054
 1008loPI   C2B15118   6.462  15.214   6.683 -0.1697 -0.2602  0.0797
 1008loPI   C3B15119   6.396  15.340   7.107  0.4719  0.0499  0.1760
 1008loPI   C4B15120   6.361  15.415   7.607 -0.1785  0.0729 -0.1586
 1009loPI    C115121  18.876   3.705   4.864  0.1322  0.2219  0.0103
 1009loPI    C215122  18.646   3.970   4.671  0.1048  0.0440 -0.2047
 1009loPI    C315123  18.961   3.806   4.486  0.0303 -0.1903 -0.1281
 1009loPI   PO415124  18.885   3.797   5.089  0.0457  0.0750  0.2173
 1009loPI   GL115125  18.972   3.716   5.413  0.0864 -0.2746 -0.0381
 1009loPI   GL215126  18.960   3.544   5.618  0.1754  0.0410 -0.0645
 1009loPI   C1A15127  18.893   3.986   5.796 -0.1295 -0.2478 -0.0299
 1009loPI   C2A15128  18.747   4.020   6.155 -0.0628 -0.1247 -0.0885
 1009loPI   C3A15129  18.512   4.115   6.611  0.0262 -0.0370 -0.0894
 1009loPI   C4A15130  18.474   4.128   7.028  0.1025 -0.0748 -0.4886
 1009loPI   C5A15131  18.190   4.176   7.435  0.0109 -0.0961  0.5111
 1009loPI   C6A15132  17.818   4.290   7.612 -0.1749  0.1639 -0.2738
 1009loPI   C1B15133  18.886   3.529   6.058  0.1046 -0.2214 -0.0625
 1009loPI   C2B15134  18.903   3.716   6.464  0.0924  0.1807  0.3100
 1009loPI   C3B15135  18.838   3.818   6.981 -0.0046  0.0649 -0.0651
 1009loPI   C4B15136  18.985   4.015   7.283  0.0203 -0.3110 -0.1954
 1010loPI    C115137   9.688   8.486   4.866 -0.0501 -0.0875  0.3186
 1010loPI    C215138   9.701   8.873   4.969 -0.2284  0.0328 -0.0892
 1010loPI    C315139  10.018   8.701   4.796 -0.1568  0.0000  0.0728
 1010loPI   PO415140   9.538   8.364   5.102  0.1626  0.0550  0.2968
 1010loPI   GL115141   9.540   8.181   5.435 -0.0811  0.0282 -0.1457
 1010loPI   GL215142   9.183   8.264   5.553 -0.2201  0.0469 -0.1436
 1010loPI   C1A15143   9.391   7.942   5.871  0.0116 -0.0467 -0.0834
 1010loPI   C2A15144   9.287   8.073   6.230 -0.0313 -0.2745  0.0314
 1010loPI   C3A15145   9.242   8.065   6.650  0.2181 -0.2207  0.0985
 1010loPI   C4A15146   9.231   8.137   7.029  0.4144  0.0698  0.1200
 1010loPI   C5A15147   9.446   8.389   7.237 -0.0379 -0.0985 -0.1179
 1010loPI   C6A15148   9.508   8.170   7.628 -0.1003 -0.1543  0.3444
 1010loPI   C1B15149   9.268   8.470   5.880  0.0811  0.0832  0.2236
 1010loPI   C2B15150   9.372   8.608   6.343  0.2176 -0.0241 -0.0046
 1010loPI   C3B15151   9.470   8.913   6.607 -0.0068 -0.1825 -0.0189
 1010loPI   C4B15152   9.844   9.020   6.793  0.0090 -0.0006  0.0542
 1011loPI    C115153   7.673   1.919   4.952 -0.0656  0.0491 -0.0848
 1011loPI    C215154   7.886   1.606   4.820 -0.1022  0.0402 -0.1231
 1011loPI    C315155   7.777   1.895   4.566  0.0390  0.1473 -0.0633
 1011loPI   PO415156   7.879   2.044   5.200 -0.2073  0.0083  0.1267
 1011loPI   GL115157   7.974   1.915   5.660 -0.4800  0.4565 -0.0046
 1011loPI   GL215158   8.144   1.594   5.622  0.2156 -0.0733 -0.0136
 1011loPI   C1A15159   8.080   1.965   6.102  0.2148 -0.1440 -0.1813
 1011loPI   C2A15160   8.155   1.834   6.464  0.0279 -0.2167  0.1606
 1011loPI   C3A15161   8.142   1.972   6.833 -0.2869 -0.1345  0.3077
 1011loPI   C4A15162   7.999   2.057   7.158 -0.1987  0.3416  0.1469
 1011loPI   C5A15163   7.729   2.269   7.315  0.0240 -0.1757 -0.5703
 1011loPI   C6A15164   7.707   2.620   7.663  0.3005 -0.2588 -0.2171
 1011loPI   C1B15165   7.999   1.466   6.147  0.2188 -0.3688 -0.1352
 1011loPI   C2B15166   7.847   1.516   6.602 -0.1784 -0.0665  0.0401
 1011loPI   C3B15167   7.714   1.699   6.861  0.0508  0.0296 -0.0038
 1011loPI   C4B15168   7.531   1.726   7.276  0.1447 -0.0430 -0.1876
 1012loPI    C115169   9.136   7.216   4.938  0.1701  0.0754  0.0945
 1012loPI    C215170   8.948   7.295   4.595  0.2154  0.1252  0.0809
 1012loPI    C315171   9.322   7.155   4.590  0.1709  0.0033  0.1073
 1012loPI   PO415172   9.110   7.339   5.089 -0.1483 -0.1253  0.0191
 1012loPI   GL115173   9.139   7.799   5.393 -0.1994  0.0729  0.2513
 1012loPI   GL215174   9.477   7.689   5.371 -0.0675  0.0171  0.0105
 1012loPI   C1A15175   8.840   7.934   5.727 -0.4516  0.1399  0.1148
 1012loPI   C2A15176   8.834   7.917   6.196  0.1661 -0.1728 -0.1246
 1012loPI   C3A15177   8.765   7.888   6.576  0.2171  0.1361 -0.2530
 1012loPI   C4A15178   8.760   8.100   6.909 -0.1607 -0.1998  0.2313
 1012loPI   C5A15179   8.672   8.564   7.046  0.2470 -0.3919 -0.2307
 1012loPI   C6A15180   8.722   8.990   7.096  0.1714 -0.0836  0.0371
 1012loPI   C1B15181   9.460   7.503   5.750 -0.0206 -0.0832 -0.0462
 1012loPI   C2B15182   9.707   7.360   6.055 -0.0537  0.1071  0.0325
 1012loPI   C3B15183   9.663   7.350   6.543 -0.4430 -0.0309 -0.0864
 1012loPI   C4B15184   9.562   7.348   6.944 -0.0664 -0.0742  0.3402
 1013loPI    C115185  17.812   8.481   5.347  0.1904 -0.2496 -0.0778
 1013loPI    C215186  18.072   8.551   5.051  0.0934 -0.1323 -0.1364
 1013loPI    C315187  17.679   8.555   4.977  0.0623  0.0736  0.0292
 1013loPI   PO415188  17.862   8.581   5.548 -0.1593 -0.2668  0.2122
 1013loPI   GL115189  17.841   8.603   5.995  0.0394 -0.0538 -0.2513
 1013loPI   GL215190  17.807   8.958   6.032 -0.0373 -0.0291 -0.0934
 1013loPI   C1A15191  17.835   8.318   6.410  0.1203 -0.3904  0.0229
 1013loPI   C2A15192  17.666   8.130   6.837 -0.1629 -0.1455  0.0775
 1013loPI   C3A15193  17.765   7.834   7.195  0.0238 -0.0644 -0.0609
 1013loPI   C4A15194  17.898   7.709   7.657  0.0290 -0.1432 -0.1348
 1013loPI   C5A15195  17.686   7.524   7.981  0.0800 -0.1323 -0.0395
 1013loPI   C6A15196  17.334   7.336   8.170 -0.0390 -0.1600  0.3023
 1013loPI   C1B15197  17.613   8.816   6.409 -0.0201  0.2931  0.0179
 1013loPI   C2B15198  17.673   8.684   6.735  0.0972 -0.0521 -0.1865
 1013loPI   C3B15199  17.770   8.688   7.066  0.1185 -0.0063 -0.3343
 1013loPI   C4B15200  17.742   8.662   7.565  0.0607  0.0237  0.1877
 1014loPI    C115201   9.224  15.349   5.061  0.1269 -0.2437  0.0338
 1014loPI    C215202   9.575  15.507   4.952  0.0951 -0.2626 -0.0971
 1014loPI    C315203   9.334  15.344   4.677 -0.1861  0.0875 -0.0666
 1014loPI   PO415204   9.341  15.283   5.382 -0.2221 -0.4216  0.1663
 1014loPI   GL115205   9.385  15.024   5.695 -0.3118 -0.3442  0.4950
 1014loPI   GL215206   9.109  14.939   5.737 -0.1443  0.0063 -0.0508
 1014loPI   C1A15207   9.460  15.237   6.127  0.1725  0.0182  0.0288
 1014loPI   C2A15208   9.595  15.092   6.450  0.2707  0.2822 -0.0519
 1014loPI   C3A15209   9.695  14.959   6.787  0.1089  0.1717 -0.2275
 1014loPI   C4A15210  10.020  14.722   7.109  0.1454 -0.1453  0.2776
 1014loPI   C5A15211   9.948  14.566   7.558 -0.0990  0.0467  0.0308
 1014loPI   C6A15212   9.894  14.851   7.989 -0.0150 -0.0991  0.0964
 1014loPI   C1B15213   9.336  14.782   6.163 -0.1565  0.0005  0.3223
 1014loPI   C2B15214   9.514  14.527   6.537 -0.1418  0.0460 -0.3671
 1014loPI   C3B15215   9.601  14.354   7.000 -0.0199 -0.3862 -0.0076
 1014loPI   C4B15216   9.989  14.227   7.082  0.3229  0.1253  0.1295
 1015loPI    C115217  17.522  17.211   4.624 -0.3313  0.0318 -0.2462
 1015loPI    C215218  17.538  17.595   4.515 -0.0131  0.1140  0.0697
 1015loPI    C315219  17.833  17.346   4.413 -0.1540 -0.0183 -0.0201
 1015loPI   PO415220  17.438  17.257   4.908 -0.1016  0.0705  0.0391
 1015loPI   GL115221  17.223  16.983   5.247  0.1532  0.1269 -0.1367
 1015loPI   GL215222  17.620  16.917   5.306  0.0370  0.1493 -0.0826
 1015loPI   C1A15223  17.028  16.782   5.696  0.3318 -0.2433  0.1892
 1015loPI   C2A15224  16.874  16.794   6.093  0.2777  0.1865  0.2689
 1015loPI   C3A15225  16.794  16.691   6.536 -0.2266  0.0524  0.2283
 1015loPI   C4A15226  16.804  16.718   6.940  0.0376 -0.1127 -0.3514
 1015loPI   C5A15227  16.837  16.973   7.301 -0.3342 -0.1596 -0.3503
 1015loPI   C6A15228  16.892  17.251   7.517  0.0289  0.0211 -0.1682
 1015loPI   C1B15229  17.457  17.016   5.733 -0.0092 -0.2789 -0.1106
 1015loPI   C2B15230  17.330  16.973   6.057 -0.1999  0.0881  0.1312
 1015loPI   C3B15231  17.221  16.983   6.496  0.0036  0.1300  0.0206
 1015loPI   C4B15232  17.170  16.968   6.939  0.0865  0.1745 -0.0413
 1016loPI    C115233  16.726   1.554   4.761 -0.0143  0.2764 -0.0740
 1016loPI    C215234  16.999   1.827   4.657  0.2846 -0.0546 -0.1787
 1016loPI    C315235  16.906   1.531   4.405  0.1819 -0.2199  0.0494
 1016loPI   PO415236  16.575   1.752   4.933 -0.1797 -0.0533  0.0372
 1016loPI   GL115237  16.183   1.748   5.277  0.1175 -0.2152 -0.0892
 1016loPI   GL215238  15.911   1.917   5.358  0.2523  0.3060  0.2692
 1016loPI   C1A15239  16.123   1.767   5.763 -0.2091 -0.1243 -0.2326
 1016loPI   C2A15240  16.043   1.637   6.150 -0.3230  0.0923 -0.1074
 1016loPI   C3A15241  16.210   1.392   6.498  0.0015 -0.1510 -0.1697
 1016loPI   C4A15242  16.086   1.242   6.943  0.1614  0.1300 -0.3671
 1016loPI   C5A15243  15.961   1.172   7.389  0.0005  0.0411 -0.0495
 1016loPI   C6A15244  16.090   1.289   7.841  0.2053  0.3073 -0.1170
 1016loPI   C1B15245  15.840   2.221   5.739 -0.1632 -0.2011 -0.0467
 1016loPI   C2B15246  15.919   2.112   6.155  0.1031 -0.1705 -0.2312
 1016loPI   C3B15247  16.002   1.978   6.576 -0.0734  0.2103 -0.0262
 1016loPI   C4B15248  16.267   1.745   6.815  0.0598  0.1126  0.2173
 1017loPI    C115249   3.282   2.518   4.887  0.0509 -0.0557  0.3472
 1017loPI    C215250   3.561   2.799   4.829  0.0396 -0.0992  0.0686
 1017loPI    C315251   3.249   2.773   4.581 -0.0320 -0.2712  0.1748
 1017loPI   PO415252   3.228   2.463   5.165  0.1787  0.0069  0.0101
 1017loPI   GL115253   3.166   2.630   5.538 -0.1082 -0.0344  0.0654
 1017loPI   GL215254   2.982   2.911   5.558 -0.0228  0.0863  0.0324
 1017loPI   C1A15255   3.058   2.392   5.899  0.0109 -0.0264 -0.1353
 1017loPI   C2A15256   3.180   2.397   6.323  0.2560 -0.2244 -0.1755
 1017loPI   C3A15257   3.379   2.620   6.727 -0.0989  0.1187  0.1111
 1017loPI   C4A15258   3.616   2.532   7.170 -0.1992 -0.1164 -0.1499
 1017loPI   C5A15259   3.768   2.214   7.477 -0.0690  0.0464 -0.1170
 1017loPI   C6A15260   3.856   1.792   7.327  0.1578  0.0117 -0.2533
 1017loPI   C1B15261   2.961   2.886   6.009  0.0387  0.0333 -0.2949
 1017loPI   C2B15262   2.776   2.726   6.431 -0.0605 -0.0713  0.2892
 1017loPI   C3B15263   2.718   2.611   6.838 -0.1174  0.0606  0.0590
 1017loPI   C4B15264   2.559   2.693   7.285  0.0634 -0.2167 -0.1274
 1018loPI    C115265  15.754   6.429   4.842 -0.0722  0.0387 -0.2192
 1018loPI    C215266  15.456   6.674   4.737 -0.0018  0.2035 -0.0399
 1018loPI    C315267  15.470   6.303   4.590 -0.1090  0.3055 -0.3147
 1018loPI   PO415268  15.786   6.465   5.075 -0.1114  0.2428  0.2764
 1018loPI   GL115269  15.747   6.322   5.429  0.0291 -0.2330 -0.0262
 1018loPI   GL215270  15.494   6.477   5.487  0.1055  0.0396 -0.1658
 1018loPI   C1A15271  15.934   6.322   5.809  0.2294 -0.0415 -0.3139
 1018loPI   C2A15272  15.866   6.347   6.259 -0.2385  0.0315 -0.2075
 1018loPI   C3A15273  15.811   6.240   6.749 -0.1976 -0.0669 -0.1438
 1018loPI   C4A15274  15.992   6.034   7.027  0.0436 -0.0453  0.0699
 1018loPI   C5A15275  16.290   6.013   7.361 -0.2228 -0.1989 -0.0749
 1018loPI   C6A15276  16.365   6.163   7.729 -0.2392 -0.1824  0.0762
 1018loPI   C1B15277  15.559   6.684   5.875  0.1701 -0.2876 -0.0057
 1018loPI   C2B15278  15.335   6.952   6.179  0.1114  0.1263  0.1373
 1018loPI   C3B15279  15.524   7.241   6.415 -0.5303 -0.2245 -0.2079
 1018loPI   C4B15280  15.572   7.593   6.514 -0.0262 -0.1794 -0.1008
 1019loPI    C115281  17.161  18.505   4.780 -0.0556  0.0421 -0.1217
 1019loPI    C215282  16.887  18.683   5.011 -0.1120  0.0382 -0.1849
 1019loPI    C315283  16.858  18.706   4.613 -0.1374 -0.1388 -0.1937
 1019loPI   PO415284  17.226  18.253   5.000 -0.1977 -0.1381  0.1174
 1019loPI   GL115285  17.214  17.979   5.374  0.1679  0.2418 -0.2284
 1019loPI   GL215286  17.475  17.909   5.461  0.0103  0.1157  0.1367
 1019loPI   C1A15287  16.892  17.823   5.688 -0.1522  0.0633 -0.2649
 1019loPI   C2A15288  16.908  17.859   6.099  0.2466 -0.2878 -0.0257
 1019loPI   C3A15289  16.727  17.950   6.424 -0.2494  0.0802  0.1929
 1019loPI   C4A15290  16.809  18.225   6.822 -0.0023  0.2978 -0.2664
 1019loPI   C5A15291  16.783  18.590   7.234 -0.0117 -0.1077 -0.2328
 1019loPI   C6A15292  16.506  18.834   7.501  0.0532 -0.3202 -0.1154
 1019loPI   C1B15293  17.401  18.093   5.824 -0.0893  0.1427 -0.1146
 1019loPI   C2B15294  17.418  18.001   6.240 -0.0110  0.3842  0.2772
 1019loPI   C3B15295  17.208  17.843   6.583  0.2732 -0.1156 -0.2730
 1019loPI   C4B15296  17.277  17.856   7.000  0.2452 -0.0442  0.1394
 1020loPI    C115297   8.701   7.932   5.123 -0.1192  0.1288  0.0596
 1020loPI    C215298   8.791   7.660   4.844 -0.2601 -0.0568  0.1920
 1020loPI    C315299   8.812   8.050   4.758 -0.0706 -0.1083 -0.0041
 1020loPI   PO415300   8.457   7.881   5.188  0.2774 -0.1952  0.0661
 1020loPI   GL115301   8.142   7.609   5.481 -0.0449  0.1191 -0.0122
 1020loPI   GL215302   8.062   7.409   5.671  0.0665 -0.1372 -0.2921
 1020loPI   C1A15303   8.366   7.667   5.882 -0.1992 -0.1222 -0.5135
 1020loPI   C2A15304   8.305   7.664   6.281 -0.0243 -0.1124 -0.3199
 1020loPI   C3A15305   8.318   7.689   6.672 -0.4689 -0.0600 -0.1048
 1020loPI   C4A15306   8.534   7.728   7.043  0.0638 -0.1080 -0.1540
 1020loPI   C5A15307   8.523   7.501   7.440 -0.1045 -0.0661 -0.1079
 1020loPI   C6A15308   8.768   7.510   7.814  0.0891  0.1461  0.0832
 1020loPI   C1B15309   8.024   7.357   6.027  0.0806  0.0009  0.1898
 1020loPI   C2B15310   8.109   7.179   6.340 -0.1133 -0.3541  0.0291
 1020loPI   C3B15311   8.106   7.223   6.770 -0.0615 -0.0789  0.2195
 1020loPI   C4B15312   8.046   7.547   7.108  0.1529  0.3006  0.2538
 1021loPI    C115313  14.520  15.687   4.860 -0.0971  0.0673 -0.2688
 1021loPI    C215314  14.852  15.784   4.660  0.0337  0.0496 -0.0630
 1021loPI    C315315  14.526  15.666   4.461  0.0567  0.3476 -0.2843
 1021loPI   PO415316  14.604  15.503   5.023 -0.0504 -0.0587  0.0608
 1021loPI   GL115317  14.546  15.193   5.438  0.1907  0.1406  0.1739
 1021loPI   GL215318  14.648  15.483   5.509  0.1579 -0.3298 -0.1035
 1021loPI   C1A15319  14.700  15.042   5.849  0.0566 -0.0636  0.0667
 1021loPI   C2A15320  14.537  14.682   6.140  0.0028  0.0284  0.0989
 1021loPI   C3A15321  14.303  14.398   6.253  0.3268  0.1213 -0.0553
 1021loPI   C4A15322  14.274  14.046   6.511 -0.0680 -0.1138  0.1046
 1021loPI   C5A15323  14.407  13.831   6.885 -0.2308 -0.1720  0.1812
 1021loPI   C6A15324  13.987  13.562   7.017  0.4006  0.1198  0.0689
 1021loPI   C1B15325  14.943  15.547   5.782  0.0019 -0.3494  0.1959
 1021loPI   C2B15326  14.993  15.562   6.243 -0.3438 -0.1423 -0.1499
 1021loPI   C3B15327  15.246  15.367   6.584 -0.1728 -0.1020 -0.2171
 1021loPI   C4B15328  15.358  15.487   7.023 -0.0623  0.0847 -0.0120
 1022loPI    C115329   9.766  12.023   5.259  0.0606 -0.1379  0.1638
 1022loPI    C215330   9.977  12.020   4.919 -0.1421 -0.0593  0.0352
 1022loPI    C315331   9.588  11.924   4.914 -0.1917  0.1261  0.2137
 1022loPI   PO415332   9.863  11.930   5.461  0.1014 -0.2831  0.0173
 1022loPI   GL115333  10.218  11.762   5.760  0.1152  0.1583 -0.0539
 1022loPI   GL215334  10.461  11.672   5.805 -0.3849  0.2120  0.1024
 1022loPI   C1A15335   9.994  11.819   6.064  0.1331 -0.2659  0.0966
 1022loPI   C2A15336   9.685  11.849   6.400 -0.2380  0.2553 -0.0215
 1022loPI   C3A15337   9.728  12.015   6.815  0.0103 -0.0992  0.2349
 1022loPI   C4A15338  10.084  12.179   7.082 -0.0881  0.0597  0.1234
 1022loPI   C5A15339  10.112  12.427   7.415  0.0421  0.2319  0.1894
 1022loPI   C6A15340  10.224  12.693   7.722 -0.0066  0.0353  0.0611
 1022loPI   C1B15341  10.416  11.564   6.219 -0.1095  0.2511  0.1060
 1022loPI   C2B15342  10.426  11.333   6.680 -0.1617 -0.1078 -0.1130
 1022loPI   C3B15343  10.632  11.396   7.118 -0.0420  0.3481 -0.1379
 1022loPI   C4B15344  10.641  11.568   7.506 -0.0193  0.2157 -0.3075
 1023loPI    C115345   5.052  15.012   4.758 -0.0124  0.2662  0.1056
 1023loPI    C215346   4.828  15.164   4.463  0.0413  0.2017  0.0313
 1023loPI    C315347   5.179  15.333   4.556  0.0220  0.2251  0.0615
 1023loPI   PO415348   4.926  14.950   4.884 -0.0044 -0.1298 -0.0452
 1023loPI   GL115349   4.957  15.051   5.289 -0.0243  0.1602  0.0773
 1023loPI   GL215350   5.147  14.953   5.415  0.3477  0.1536 -0.1953
 1023loPI   C1A15351   4.727  15.140   5.713 -0.2452  0.4867 -0.0208
 1023loPI   C2A15352   4.812  15.067   6.116  0.0592 -0.0182 -0.2246
 1023loPI   C3A15353   4.686  15.046   6.505  0.0090  0.5014  0.1701
 1023loPI   C4A15354   4.809  15.205   6.818  0.0713  0.2588  0.0783
 1023loPI   C5A15355   4.970  15.190   7.209  0.0648  0.1916 -0.0604
 1023loPI   C6A15356   4.995  14.989   7.610  0.0896  0.0286  0.1790
 1023loPI   C1B15357   5.129  14.697   5.775 -0.0611 -0.1749 -0.2431
 1023loPI   C2B15358   4.949  14.613   6.125 -0.0467  0.1489 -0.1322
 1023loPI   C3B15359   4.858  14.561   6.587  0.1629  0.0678 -0.2648
 1023loPI   C4B15360   4.643  14.687   6.882 -0.0580 -0.0441  0.2886
 1024loPI    C115361   1.275   2.757   5.080 -0.3577  0.1350 -0.1749
 1024loPI    C215362   1.371   3.054   4.830  0.0955  0.1303 -0.0150
 1024loPI    C315363   1.423   2.673   4.718 -0.0731  0.1187 -0.0568
 1024loPI   PO415364   1.236   3.033   5.328  0.3828 -0.0410 -0.2291
 1024loPI   GL115365   1.217   3.025   5.710 -0.1721  0.0137 -0.0465
 1024loPI   GL215366   0.927   2.992   5.832 -0.2605  0.0705  0.2711
 1024loPI   C1A15367   1.256   2.930   6.172 -0.2114  0.1516  0.4226
 1024loPI   C2A15368   1.313   2.780   6.665  0.0455  0.1523 -0.1201
 1024loPI   C3A15369   1.351   2.624   7.067  0.2479 -0.0396 -0.0975
 1024loPI   C4A15370   1.102   2.498   7.427  0.2444  0.0735 -0.0839
 1024loPI   C5A15371   0.696   2.308   7.509 -0.0315 -0.1195 -0.1638
 1024loPI   C6A15372   0.437   1.979   7.788  0.0811  0.1828  0.0025
 1024loPI   C1B15373   0.669   2.689   5.999  0.0307 -0.1819 -0.0450
 1024loPI   C2B15374   0.348   2.692   6.248  0.1835 -0.1047  0.0936
 1024loPI   C3B15375  -0.100   2.809   6.198 -0.2229  0.0940 -0.2023
 1024loPI   C4B15376  -0.057   3.047   5.838 -0.1446  0.2947  0.0414
 1025loPI    C115377   8.888   2.265   4.719 -0.1253  0.0182  0.1687
 1025loPI    C215378   8.518   2.378   4.619 -0.0034  0.2503 -0.0310
 1025loPI    C315379   8.826   2.626   4.558  0.1965  0.0275  0.0579
 1025loPI   PO415380   8.803   2.074   4.925  0.1386  0.0341 -0.1692
 1025loPI   GL115381   8.804   2.178   5.382 -0.0397 -0.2330 -0.4274
 1025loPI   GL215382   8.662   2.445   5.518 -0.2408  0.3745 -0.1051
 1025loPI   C1A15383   8.991   2.006   5.782 -0.0185 -0.2915 -0.3153
 1025loPI   C2A15384   8.825   1.846   6.176  0.1027  0.1075  0.2357
 1025loPI   C3A15385   8.772   1.851   6.601 -0.0820  0.2340 -0.0706
 1025loPI   C4A15386   8.621   1.722   6.974  0.2448  0.1940 -0.0809
 1025loPI   C5A15387   8.332   1.659   7.309 -0.0165  0.0570 -0.1612
 1025loPI   C6A15388   8.023   1.941   7.604 -0.1111 -0.0174 -0.2366
 1025loPI   C1B15389   8.488   2.594   5.870  0.0407  0.1187 -0.4346
 1025loPI   C2B15390   8.092   2.515   6.113 -0.2848 -0.0721 -0.1022
 1025loPI   C3B15391   7.912   2.292   6.465  0.1583  0.2645  0.0364
 1025loPI   C4B15392   7.688   2.224   6.824  0.0788  0.2024  0.2797
 1026loPI    C115393   9.480  13.047   5.479  0.0012  0.1575  0.0224
 1026loPI    C215394   9.655  13.287   5.210 -0.0911  0.1524 -0.0426
 1026loPI    C315395   9.830  12.943   5.316 -0.0455  0.1634 -0.0820
 1026loPI   PO415396   9.377  13.252   5.629  0.0613  0.3481 -0.0993
 1026loPI   GL115397   9.378  13.219   6.042  0.4091 -0.1093  0.0310
 1026loPI   GL215398   9.673  13.379   6.126  0.1247  0.0930 -0.1319
 1026loPI   C1A15399   9.401  12.938   6.379 -0.0512  0.0247 -0.0882
 1026loPI   C2A15400   9.408  12.912   6.780  0.2582  0.4145  0.0273
 1026loPI   C3A15401   9.374  12.846   7.266 -0.0379  0.0794 -0.0310
 1026loPI   C4A15402   9.563  12.995   7.630  0.0193  0.2178  0.1354
 1026loPI   C5A15403   9.805  13.174   7.940 -0.1515  0.0133  0.0749
 1026loPI   C6A15404   9.622  13.245   8.351 -0.0248  0.0186 -0.0236
 1026loPI   C1B15405   9.413  13.469   6.446 -0.0671  0.2127  0.0653
 1026loPI   C2B15406   9.394  13.492   6.839  0.0895  0.0263 -0.3693
 1026loPI   C3B15407   9.248  13.305   7.268 -0.5385 -0.5195  0.0421
 1026loPI   C4B15408   8.998  13.132   7.491 -0.1282 -0.0091 -0.1419
 1027loPI    C115409  13.287   3.550   4.718 -0.0185  0.0768 -0.0232
 1027loPI    C215410  12.938   3.356   4.740  0.0652 -0.0476  0.2455
 1027loPI    C315411  13.039   3.547   4.404 -0.1939 -0.1368  0.1141
 1027loPI   PO415412  13.394   3.330   4.937  0.2395 -0.1150  0.0467
 1027loPI   GL115413  13.462   3.140   5.306  0.0227  0.2062  0.3739
 1027loPI   GL215414  13.734   3.160   5.446  0.1338 -0.0450  0.0320
 1027loPI   C1A15415  13.338   3.000   5.768 -0.0539  0.0446  0.2853
 1027loPI   C2A15416  13.049   3.036   6.151 -0.1825  0.1626  0.0111
 1027loPI   C3A15417  12.966   3.147   6.564 -0.3037 -0.4738 -0.2447
 1027loPI   C4A15418  13.003   3.191   6.984 -0.1973 -0.1446  0.0016
 1027loPI   C5A15419  13.138   3.412   7.334  0.0671  0.1101 -0.0983
 1027loPI   C6A15420  13.451   3.453   7.639 -0.0518  0.0977 -0.2156
 1027loPI   C1B15421  13.924   3.180   5.913  0.1336  0.3685  0.0099
 1027loPI   C2B15422  13.985   3.283   6.418  0.0485  0.2031  0.2921
 1027loPI   C3B15423  14.019   3.368   6.902  0.2533  0.1164 -0.1090
 1027loPI   C4B15424  14.166   3.337   7.224  0.1326  0.0408  0.1719
 1028loPI    C115425   1.443  12.630   4.981 -0.0973 -0.1392  0.1682
 1028loPI    C215426   1.814  12.641   4.833 -0.1129  0.0191  0.1393
 1028loPI    C315427   1.674  12.304   4.996  0.0634 -0.0247  0.2020
 1028loPI   PO415428   1.422  12.948   5.093  0.2598 -0.1244 -0.0497
 1028loPI   GL115429   1.136  13.163   5.291 -0.1825 -0.0462 -0.0712
 1028loPI   GL215430   0.889  13.399   5.177  0.3919 -0.0803 -0.1280
 1028loPI   C1A15431   1.166  13.291   5.813  0.0566  0.2793 -0.0796
 1028loPI   C2A15432   1.202  13.420   6.199  0.0925  0.2305  0.1796
 1028loPI   C3A15433   1.040  13.567   6.524 -0.0656  0.1301  0.2448
 1028loPI   C4A15434   1.130  13.600   6.960  0.0488  0.1571 -0.2506
 1028loPI   C5A15435   1.128  13.653   7.386 -0.1196 -0.1621 -0.3771
 1028loPI   C6A15436   0.837  13.672   7.726 -0.2708 -0.1270 -0.1390
 1028loPI   C1B15437   0.720  13.400   5.570 -0.2027  0.0306 -0.1898
 1028loPI   C2B15438   0.680  13.375   5.931  0.0468 -0.0798 -0.0497
 1028loPI   C3B15439   0.632  13.298   6.347 -0.3799 -0.0599  0.3308
 1028loPI   C4B15440   0.660  13.367   6.820  0.0495 -0.0462  0.1433
 1029loPI    C115441   0.874  12.637   4.687  0.2367 -0.1008  0.0185
 1029loPI    C215442   0.934  13.000   4.843  0.3245 -0.0858 -0.0487
 1029loPI    C315443   1.121  12.895   4.506  0.1404 -0.1197 -0.1417
 1029loPI   PO415444   0.825  12.468   4.967 -0.1281 -0.3350  0.1356
 1029loPI   GL115445   0.987  12.690   5.224  0.0223 -0.2069 -0.5605
 1029loPI   GL215446   0.677  12.870   5.308  0.2964  0.1516  0.2220
 1029loPI   C1A15447   1.060  12.829   5.696  0.1627 -0.0792 -0.0935
 1029loPI   C2A15448   1.049  12.850   6.192 -0.0181 -0.3682 -0.0663
 1029loPI   C3A15449   1.102  13.048   6.555 -0.1526 -0.1071 -0.0419
 1029loPI   C4A15450   1.099  13.063   7.037 -0.0740 -0.0152 -0.1694
 1029loPI   C5A15451   0.778  13.207   7.315 -0.0675  0.2869 -0.0655
 1029loPI   C6A15452   0.762  12.756   7.555 -0.1764  0.1967 -0.3328
 1029loPI   C1B15453   0.496  12.803   5.709 -0.0356  0.0620  0.1553
 1029loPI   C2B15454   0.561  12.871   6.116 -0.0654 -0.0824  0.0576
 1029loPI   C3B15455   0.642  12.815   6.521  0.0041  0.2324  0.2346
 1029loPI   C4B15456   0.715  12.863   6.941 -0.1373  0.2400 -0.0008
 1030loPI    C115457   4.003   4.014   5.241 -0.0759 -0.1087 -0.1772
 1030loPI    C215458   3.900   3.722   4.988  0.0352 -0.1232 -0.2064
 1030loPI    C315459   4.058   4.062   4.848  0.2875 -0.2122 -0.1434
 1030loPI   PO415460   4.110   3.897   5.426 -0.0977  0.2408  0.2025
 1030loPI   GL115461   4.519   4.059   5.737  0.1960  0.0838 -0.0669
 1030loPI   GL215462   4.285   3.988   5.984  0.1049  0.2480 -0.2184
 1030loPI   C1A15463   4.905   3.914   6.023  0.0135  0.1067  0.2812
 1030loPI   C2A15464   4.964   3.722   6.391 -0.3574 -0.0313 -0.0385
 1030loPI   C3A15465   4.939   3.488   6.810 -0.2430 -0.1905 -0.0016
 1030loPI   C4A15466   5.132   3.290   7.230 -0.2149 -0.0757  0.0125
 1030loPI   C5A15467   5.027   3.111   7.601  0.0715 -0.0663 -0.1238
 1030loPI   C6A15468   4.733   3.209   7.992 -0.0591  0.3862  0.3087
 1030loPI   C1B15469   4.498   4.034   6.300  0.1222 -0.1015 -0.1784
 1030loPI   C2B15470   4.584   3.815   6.788  0.0272 -0.0490  0.1545
 1030loPI   C3B15471   4.525   3.527   7.160  0.1044 -0.0135 -0.0749
 1030loPI   C4B15472   4.607   3.453   7.554 -0.0709  0.1489 -0.1744
 1031loPI    C115473   6.934  13.740   4.960 -0.0694  0.0706 -0.2650
 1031loPI    C215474   7.319  13.682   4.867 -0.0282  0.2518 -0.2120
 1031loPI    C315475   7.040  13.674   4.580 -0.0082 -0.0569 -0.2261
 1031loPI   PO415476   6.927  13.963   5.162 -0.2925 -0.0788  0.0335
 1031loPI   GL115477   6.786  13.992   5.563 -0.0478  0.0256  0.3082
 1031loPI   GL215478   6.628  13.680   5.465  0.2543  0.1129 -0.1313
 1031loPI   C1A15479   6.785  14.136   6.073  0.0431 -0.0958 -0.3170
 1031loPI   C2A15480   6.922  14.164   6.462 -0.1244  0.0060 -0.1391
 1031loPI   C3A15481   7.011  14.386   6.802  0.1799 -0.0371  0.0468
 1031loPI   C4A15482   7.079  14.475   7.231  0.2004  0.1792  0.0936
 1031loPI   C5A15483   6.831  14.573   7.515  0.1818 -0.1553 -0.3079
 1031loPI   C6A15484   6.411  14.320   7.708 -0.2365 -0.4987 -0.0052
 1031loPI   C1B15485   6.421  13.631   5.854 -0.1929 -0.0611  0.0444
 1031loPI   C2B15486   6.301  13.742   6.239  0.1254  0.0315  0.0917
 1031loPI   C3B15487   6.410  13.941   6.589  0.3278 -0.0206  0.3626
 1031loPI   C4B15488   6.703  13.940   6.838 -0.1586  0.0173 -0.2808
 1032loPI    C115489   4.508   7.126   5.048  0.0546  0.1621  0.1738
 1032loPI    C215490   4.643   7.498   4.989  0.0742  0.0930 -0.2519
 1032loPI    C315491   4.252   7.420   4.955  0.0597  0.0879 -0.0829
 1032loPI   PO415492   4.746   7.089   5.286 -0.2241  0.1368 -0.2053
 1032loPI   GL115493   4.810   7.356   5.666 -0.4801 -0.1854 -0.1573
 1032loPI   GL215494   4.806   7.050   5.795  0.0867 -0.1645  0.1017
 1032loPI   C1A15495   4.751   7.520   6.140  0.1018  0.2012  0.1398
 1032loPI   C2A15496   4.879   7.525   6.567  0.2518  0.4042  0.1184
 1032loPI   C3A15497   4.888   7.439   6.940 -0.1090 -0.0647 -0.4515
 1032loPI   C4A15498   5.043   7.331   7.349  0.0860 -0.0256  0.2120
 1032loPI   C5A15499   4.807   7.236   7.662 -0.2743  0.1397 -0.4314
 1032loPI   C6A15500   4.549   7.540   7.911 -0.2610 -0.0236 -0.0894
 1032loPI   C1B15501   4.763   7.046   6.298  0.0370 -0.0321  0.1001
 1032loPI   C2B15502   4.878   6.957   6.712  0.0064  0.0172 -0.0641
 1032loPI   C3B15503   4.725   6.997   7.174 -0.2083  0.3321 -0.0180
 1032loPI   C4B15504   4.515   7.430   7.311 -0.1278  0.1577  0.1372
 1033loPI    C115505   4.218  18.094   5.308  0.1728  0.0941  0.3017
 1033loPI    C215506   4.140  18.395   5.057 -0.1671 -0.1608  0.0927
 1033loPI    C315507   4.496  18.213   5.045 -0.0025  0.1508  0.1399
 1033loPI   PO415508   4.092  18.132   5.520 -0.0285  0.1486  0.0983
 1033loPI   GL115509   4.386  18.174   5.839 -0.2167 -0.1854  0.0070
 1033loPI   GL215510   4.685  18.081   6.008 -0.1226  0.2298  0.0572
 1033loPI   C1A15511   4.195  18.156   6.219  0.0506 -0.0087 -0.0722
 1033loPI   C2A15512   4.177  18.150   6.661 -0.0034 -0.3840 -0.0672
 1033loPI   C3A15513   3.916  18.250   7.093 -0.0536  0.2054  0.1320
 1033loPI   C4A15514   4.069  18.159   7.489 -0.0732 -0.3212  0.1121
 1033loPI   C5A15515   4.134  18.027   8.006  0.0770  0.2323 -0.0243
 1033loPI   C6A15516   3.982  18.152   8.425 -0.1392 -0.0866  0.3425
 1033loPI   C1B15517   4.729  18.229   6.448 -0.2315 -0.0954 -0.1686
 1033loPI   C2B15518   4.615  18.221   6.883  0.2026 -0.1332  0.1281
 1033loPI   C3B15519   4.668  18.381   7.320 -0.0774  0.0800 -0.0211
 1033loPI   C4B15520   4.613  18.315   7.763  0.1638 -0.2473  0.0658
 1034loPI    C115521   2.195  13.309   4.850 -0.0754 -0.0088  0.0249
 1034loPI    C215522   1.944  13.611   4.924  0.0140  0.0917 -0.0789
 1034loPI    C315523   2.192  13.629   4.610  0.1045 -0.0360 -0.0155
 1034loPI   PO415524   2.359  13.278   5.105 -0.2440  0.2646  0.3349
 1034loPI   GL115525   2.544  13.132   5.592  0.1225 -0.0965  0.0274
 1034loPI   GL215526   2.334  12.862   5.482  0.2596  0.0202 -0.0045
 1034loPI   C1A15527   2.612  13.324   5.991  0.3432 -0.0570 -0.1331
 1034loPI   C2A15528   2.780  13.493   6.359  0.1623  0.1660  0.2677
 1034loPI   C3A15529   2.589  13.435   6.729  0.0477  0.0665 -0.1130
 1034loPI   C4A15530   2.407  13.477   7.179 -0.1835  0.1415 -0.1313
 1034loPI   C5A15531   2.463  13.410   7.546  0.1147  0.0843  0.1423
 1034loPI   C6A15532   2.700  13.146   7.889 -0.0001 -0.0831  0.0838
 1034loPI   C1B15533   2.270  12.606   5.870  0.0075 -0.3372 -0.0383
 1034loPI   C2B15534   2.083  12.753   6.258 -0.3316  0.4327  0.2580
 1034loPI   C3B15535   2.032  12.755   6.737  0.0099 -0.3517 -0.0638
 1034loPI   C4B15536   2.091  12.698   7.159  0.0532  0.2586 -0.2991
 1035loPI    C115537   1.348  13.471   4.964  0.0750  0.0751  0.1079
 1035loPI    C215538   1.459  13.735   4.685  0.1825  0.0155  0.0941
 1035loPI    C315539   1.309  13.380   4.577 -0.3268  0.2177  0.1097
 1035loPI   PO415540   1.517  13.431   5.090  0.1911 -0.0885 -0.2219
 1035loPI   GL115541   1.727  13.473   5.504 -0.0458  0.0844  0.1844
 1035loPI   GL215542   2.084  13.365   5.528 -0.1106  0.2510 -0.0836
 1035loPI   C1A15543   1.831  13.472   5.940  0.0041  0.0912 -0.3563
 1035loPI   C2A15544   1.679  13.540   6.277  0.4823 -0.5255  0.0905
 1035loPI   C3A15545   1.588  13.607   6.660  0.4380  0.1156 -0.0959
 1035loPI   C4A15546   1.498  13.336   6.916 -0.0940  0.1008 -0.0602
 1035loPI   C5A15547   1.442  13.257   7.347  0.0715 -0.2157 -0.1045
 1035loPI   C6A15548   1.608  13.541   7.749 -0.2626 -0.1051  0.2363
 1035loPI   C1B15549   2.141  13.112   5.902  0.1812  0.0540 -0.1437
 1035loPI   C2B15550   2.114  13.244   6.348  0.1451  0.1298  0.0525
 1035loPI   C3B15551   1.961  13.249   6.719  0.1041 -0.1323  0.0170
 1035loPI   C4B15552   1.950  13.151   7.108 -0.0323 -0.2024 -0.1339
 1036loPI    C115553  10.940   5.712   5.124  0.0051  0.2663 -0.1123
 1036loPI    C215554  11.163   5.923   4.867  0.0052  0.1119 -0.2404
 1036loPI    C315555  11.066   5.543   4.783  0.1512  0.0038  0.0680
 1036loPI   PO415556  10.971   5.949   5.370 -0.2569 -0.2941  0.1552
 1036loPI   GL115557  11.012   6.085   5.772 -0.2868 -0.2298 -0.3206
 1036loPI   GL215558  11.287   5.743   5.724  0.2097 -0.0877  0.2113
 1036loPI   C1A15559  10.759   5.903   6.135  0.1390  0.1674  0.0834
 1036loPI   C2A15560  10.602   5.839   6.610  0.0524 -0.0443 -0.0468
 1036loPI   C3A15561  10.482   5.540   6.934  0.3203  0.0534 -0.2869
 1036loPI   C4A15562  10.440   5.529   7.345 -0.2078  0.3671  0.0966
 1036loPI   C5A15563  10.187   5.483   7.732  0.4004 -0.1585 -0.1233
 1036loPI   C6A15564  10.438   5.718   8.025  0.0312 -0.1536 -0.1294
 1036loPI   C1B15565  11.238   5.716   6.186  0.0600 -0.1939  0.1387
 1036loPI   C2B15566  11.094   5.919   6.584 -0.1703 -0.1479  0.1750
 1036loPI   C3B15567  10.937   5.759   6.957  0.1295  0.2888  0.1975
 1036loPI   C4B15568  10.960   5.407   7.234  0.3166  0.0213 -0.2114
 1037loPI    C115569  16.928  11.027   5.236  0.1073 -0.2010 -0.3247
 1037loPI    C215570  16.698  10.728   5.369 -0.0147  0.0578  0.0659
 1037loPI    C315571  16.538  11.019   5.146  0.0506 -0.0341 -0.1032
 1037loPI   PO415572  17.051  11.162   5.463 -0.0615 -0.2966  0.2259
 1037loPI   GL115573  17.087  10.975   5.742 -0.2338  0.1775  0.4303
 1037loPI   GL215574  17.275  10.611   5.812 -0.2828  0.1727 -0.2161
 1037loPI   C1A15575  16.871  10.814   6.099  0.1134  0.1381  0.0482
 1037loPI   C2A15576  16.824  10.792   6.616  0.2467 -0.0758  0.0662
 1037loPI   C3A15577  16.976  10.893   7.044 -0.1375  0.0290 -0.2434
 1037loPI   C4A15578  17.186  11.051   7.400  0.0663 -0.1994  0.2126
 1037loPI   C5A15579  17.546  10.727   7.538  0.2892  0.0007 -0.0312
 1037loPI   C6A15580  17.961  10.604   7.547  0.1429 -0.3789 -0.3464
 1037loPI   C1B15581  17.327  10.640   6.225 -0.1568  0.4435  0.1425
 1037loPI   C2B15582  17.289  10.849   6.599  0.0546  0.0716 -0.0349
 1037loPI   C3B15583  17.416  11.005   6.802  0.2136 -0.0418 -0.0343
 1037loPI   C4B15584  17.714  11.338   6.879 -0.4022  0.2111 -0.1566
 1038loPI    C115585  10.087  15.015   4.662 -0.0165  0.0551  0.0508
 1038loPI    C215586   9.884  15.359   4.645 -0.0130  0.0606  0.1189
 1038loPI    C315587   9.729  15.028   4.483 -0.0017  0.1011  0.0245
 1038loPI   PO415588  10.131  14.991   4.937  0.3194  0.1332 -0.1902
 1038loPI   GL115589  10.278  14.795   5.366 -0.3101  0.0261 -0.0880
 1038loPI   GL215590  10.155  14.411   5.471  0.2570 -0.0466  0.0207
 1038loPI   C1A15591  10.066  14.880   5.766 -0.1954 -0.0113 -0.0324
 1038loPI   C2A15592  10.002  15.172   6.165  0.1398  0.1309  0.0796
 1038loPI   C3A15593  10.021  15.275   6.616  0.1173  0.2009  0.1204
 1038loPI   C4A15594   9.951  15.394   7.075 -0.1951 -0.0140 -0.1583
 1038loPI   C5A15595   9.804  15.726   7.359 -0.1842 -0.2191 -0.1442
 1038loPI   C6A15596   9.578  15.896   7.726 -0.0340 -0.0245  0.0426
 1038loPI   C1B15597  10.195  14.306   5.868 -0.1391 -0.2349  0.2149
 1038loPI   C2B15598  10.400  14.454   6.215 -0.0058  0.1076  0.2062
 1038loPI   C3B15599  10.524  14.367   6.623  0.0738  0.6424  0.3200
 1038loPI   C4B15600  10.434  14.435   7.015 -0.0610 -0.0893  0.1296
 1039loPI    C115601  11.644  15.015   4.214  0.0082  0.2356  0.1063
 1039loPI    C215602  11.362  15.019   3.931 -0.0092  0.2202  0.1233
 1039loPI    C315603  11.748  14.994   3.829 -0.0244  0.0346  0.1072
 1039loPI   PO415604  11.504  14.948   4.411 -0.1739  0.0399  0.0713
 1039loPI   GL115605  11.518  14.782   4.862 -0.0987  0.1405 -0.1140
 1039loPI   GL215606  11.544  15.144   4.900 -0.1108 -0.1741 -0.1446
 1039loPI   C1A15607  11.344  14.693   5.318 -0.2563  0.1859 -0.0560
 1039loPI   C2A15608  11.435  14.789   5.767 -0.2657  0.1640 -0.0255
 1039loPI   C3A15609  11.742  14.997   6.222  0.1282 -0.1749 -0.1759
 1039loPI   C4A15610  11.946  15.336   6.489  0.3020 -0.0543 -0.1205
 1039loPI   C5A15611  11.996  15.462   6.897  0.0667  0.0442 -0.3408
 1039loPI   C6A15612  12.184  15.455   7.327  0.0162  0.2231 -0.3113
 1039loPI   C1B15613  11.691  15.060   5.322  0.1049 -0.2662 -0.0660
 1039loPI   C2B15614  11.743  15.137   5.751 -0.3418 -0.2558 -0.0355
 1039loPI   C3B15615  11.638  15.459   6.031 -0.0667  0.2344 -0.0430
 1039loPI   C4B15616  11.402  15.467   6.563 -0.0254  0.0129 -0.0507
 1040loPI    C115617   5.292   6.340   4.935 -0.0892  0.1732  0.1931
 1040loPI    C215618   5.030   6.526   4.697 -0.0939 -0.1516 -0.0635
 1040loPI    C315619   5.126   6.144   4.628  0.2402 -0.1189  0.1951
 1040loPI   PO415620   5.278   6.391   5.267  0.3832  0.0214 -0.0427
 1040loPI   GL115621   5.487   6.129   5.467  0.0232  0.1322 -0.0130
 1040loPI   GL215622   5.274   6.343   5.764  0.0237 -0.0265 -0.0208
 1040loPI   C1A15623   5.542   5.936   5.861  0.1087 -0.1142 -0.3490
 1040loPI   C2A15624   5.738   5.984   6.223  0.0447  0.3630  0.1317
 1040loPI   C3A15625   6.046   6.135   6.498 -0.0187 -0.2496 -0.0061
 1040loPI   C4A15626   6.340   6.287   6.905  0.0038  0.1428 -0.0582
 1040loPI   C5A15627   6.268   6.295   7.406  0.2492  0.1394  0.0545
 1040loPI   C6A15628   6.358   6.555   7.801 -0.2390  0.0396 -0.3607
 1040loPI   C1B15629   5.204   6.160   6.160 -0.0704 -0.2586  0.0507
 1040loPI   C2B15630   5.397   6.088   6.547  0.3086 -0.0940 -0.0355
 1040loPI   C3B15631   5.271   6.085   6.925  0.0847  0.0708  0.0515
 1040loPI   C4B15632   5.364   5.853   7.271  0.1032 -0.0177  0.0037
 1041loPI    C115633  13.555  15.038   4.838 -0.1239 -0.0210  0.0397
 1041loPI    C215634  13.168  15.059   4.938 -0.1990 -0.0275 -0.2421
 1041loPI    C315635  13.279  15.107   4.556  0.0826  0.0123 -0.1572
 1041loPI   PO415636  13.691  15.109   5.117 -0.1628 -0.0961 -0.0269
 1041loPI   GL115637  13.706  15.334   5.585 -0.3972 -0.0925  0.0736
 1041loPI   GL215638  13.945  15.126   5.553  0.2154 -0.1774  0.0545
 1041loPI   C1A15639  13.601  15.167   5.982 -0.1453  0.3292  0.1024
 1041loPI   C2A15640  13.671  15.149   6.383 -0.2817 -0.0617 -0.0411
 1041loPI   C3A15641  13.794  15.273   6.748 -0.2539 -0.2853 -0.2287
 1041loPI   C4A15642  13.706  15.398   7.059  0.0251 -0.0598 -0.5562
 1041loPI   C5A15643  13.871  15.291   7.389  0.0440  0.2037  0.3053
 1041loPI   C6A15644  14.065  15.640   7.610 -0.0578  0.0227  0.1008
 1041loPI   C1B15645  14.274  15.257   5.912  0.1629 -0.0006  0.2047
 1041loPI   C2B15646  14.180  15.231   6.273  0.1356  0.0413  0.0502
 1041loPI   C3B15647  14.278  14.994   6.627  0.0470  0.1708 -0.0307
 1041loPI   C4B15648  14.574  14.781   6.854  0.2192  0.2552  0.1300
 1042loPI    C115649   7.804  17.131   5.280  0.0177 -0.0920  0.1340
 1042loPI    C215650   7.958  16.948   4.959  0.5324  0.2453  0.1765
 1042loPI    C315651   7.676  17.228   4.913  0.1944 -0.1034  0.0684
 1042loPI   PO415652   7.883  17.036   5.448 -0.0506 -0.1415  0.1760
 1042loPI   GL115653   8.012  16.776   5.726  0.0812  0.1361 -0.2782
 1042loPI   GL215654   8.327  16.630   5.704  0.0856 -0.0988 -0.4365
 1042loPI   C1A15655   8.235  16.893   6.140 -0.0149 -0.2810 -0.0962
 1042loPI   C2A15656   8.271  16.623   6.415 -0.1206 -0.0329 -0.1680
 1042loPI   C3A15657   8.585  16.573   6.765  0.0875 -0.1348 -0.2634
 1042loPI   C4A15658   8.646  16.638   7.177  0.1228 -0.2676 -0.0826
 1042loPI   C5A15659   8.906  16.860   7.536  0.0704  0.0927 -0.1382
 1042loPI   C6A15660   9.317  16.843   7.525 -0.1377 -0.3604 -0.0391
 1042loPI   C1B15661   8.510  16.397   5.992 -0.2665  0.1836  0.1255
 1042loPI   C2B15662   8.676  16.288   6.283  0.0747  0.1256 -0.1498
 1042loPI   C3B15663   9.016  16.213   6.548 -0.1492  0.1032  0.1104
 1042loPI   C4B15664   9.003  16.190   6.981  0.1747 -0.1648  0.3123
 1043loPI    C115665   1.755  15.917   4.947  0.0150 -0.0153 -0.0567
 1043loPI    C215666   2.026  16.129   4.744  0.1385 -0.0483  0.0728
 1043loPI    C315667   1.920  15.765   4.616  0.1470 -0.0308  0.0158
 1043loPI   PO415668   1.869  15.913   5.224 -0.2137  0.0592 -0.0537
 1043loPI   GL115669   1.869  15.514   5.463 -0.0438 -0.0576  0.0472
 1043loPI   GL215670   2.175  15.574   5.544 -0.2117  0.0657 -0.0616
 1043loPI   C1A15671   1.727  15.512   5.882  0.2336  0.1048 -0.2155
 1043loPI   C2A15672   1.821  15.559   6.284 -0.0526  0.1824 -0.1334
 1043loPI   C3A15673   1.920  15.273   6.579 -0.1903 -0.2947  0.0576
 1043loPI   C4A15674   1.960  15.319   6.927 -0.3075 -0.0594  0.0018
 1043loPI   C5A15675   1.729  15.539   7.290  0.0555  0.2760  0.1303
 1043loPI   C6A15676   1.348  15.723   7.503 -0.3261 -0.0453  0.1350
 1043loPI   C1B15677   2.195  15.766   5.979 -0.1508  0.1818 -0.2109
 1043loPI   C2B15678   1.942  16.063   6.223  0.0844  0.1280  0.0697
 1043loPI   C3B15679   1.572  15.980   6.570  0.0283 -0.0075 -0.1303
 1043loPI   C4B15680   1.524  15.574   6.812 -0.2180  0.0247 -0.2277
 1044loPI    C115681   6.574  11.705   4.989  0.1794 -0.1004  0.2613
 1044loPI    C215682   6.334  11.412   4.860  0.2376 -0.0211 -0.0344
 1044loPI    C315683   6.647  11.527   4.638  0.2484  0.2271  0.1051
 1044loPI   PO415684   6.608  11.612   5.297  0.0692 -0.0061 -0.3540
 1044loPI   GL115685   6.579  11.676   5.772 -0.0420  0.4034 -0.0489
 1044loPI   GL215686   6.835  11.686   5.910  0.3640 -0.1694  0.2243
 1044loPI   C1A15687   6.160  11.743   5.971  0.2275  0.0787 -0.0889
 1044loPI   C2A15688   5.794  11.699   6.066  0.2348 -0.0364  0.0883
 1044loPI   C3A15689   5.657  11.678   6.408  0.2731  0.3541  0.4879
 1044loPI   C4A15690   5.718  11.647   6.856 -0.5124 -0.3425  0.0566
 1044loPI   C5A15691   5.472  11.620   7.278 -0.2424  0.2420  0.0094
 1044loPI   C6A15692   5.123  11.488   7.431  0.0719 -0.3102 -0.0493
 1044loPI   C1B15693   6.761  11.824   6.278 -0.2534  0.1210 -0.0972
 1044loPI   C2B15694   6.774  12.025   6.666  0.0350  0.0437  0.1028
 1044loPI   C3B15695   6.798  12.307   6.980  0.2383 -0.0577 -0.1154
 1044loPI   C4B15696   6.542  12.548   7.284 -0.0703 -0.1633 -0.3698
 1045loPI    C115697   0.389   1.045   4.706 -0.1718 -0.0164 -0.1550
 1045loPI    C215698   0.626   1.237   4.447 -0.0799 -0.0577 -0.1022
 1045loPI    C315699   0.635   0.838   4.469 -0.0128 -0.0492  0.0357
 1045loPI   PO415700   0.414   1.202   4.934 -0.1550  0.0276  0.1368
 1045loPI   GL115701   0.176   1.195   5.316 -0.0963  0.0426  0.3047
 1045loPI   GL215702   0.186   0.962   5.549 -0.0891 -0.0225  0.1700
 1045loPI   C1A15703   0.238   1.425   5.731  0.2637  0.2326  0.0126
 1045loPI   C2A15704   0.245   1.864   6.013 -0.0632  0.1014  0.4346
 1045loPI   C3A15705   0.076   1.928   6.446  0.2620  0.2083  0.1730
 1045loPI   C4A15706   0.040   1.697   6.884 -0.1821 -0.1853 -0.1819
 1045loPI   C5A15707   0.194   1.259   7.045 -0.1818 -0.3058  0.1195
 1045loPI   C6A15708   0.069   1.087   7.458  0.1112 -0.0969 -0.1037
 1045loPI   C1B15709   0.053   1.032   6.004  0.0427  0.0834 -0.5601
 1045loPI   C2B15710  -0.363   1.063   6.189  0.2031  0.1058  0.3420
 1045loPI   C3B15711  -0.585   0.844   6.576 -0.0455 -0.1959  0.4176
 1045loPI   C4B15712  -0.574   0.539   6.950 -0.0337  0.0651  0.1100
 1046loPI    C115713  14.553   8.613   5.278  0.1420 -0.1666 -0.0537
 1046loPI    C215714  14.624   8.566   4.888 -0.2579 -0.0635 -0.1433
 1046loPI    C315715  14.640   8.251   5.133 -0.0046 -0.1287 -0.2406
 1046loPI   PO415716  14.375   8.873   5.275  0.1212 -0.2761  0.1028
 1046loPI   GL115717  14.295   9.143   5.682  0.0878 -0.0396  0.0752
 1046loPI   GL215718  14.039   9.200   5.655 -0.2166  0.0752 -0.1268
 1046loPI   C1A15719  14.419   9.232   6.119 -0.0928  0.0459  0.2153
 1046loPI   C2A15720  14.400   9.456   6.568  0.0451 -0.1622 -0.0097
 1046loPI   C3A15721  14.386   9.785   6.915 -0.1233  0.3172 -0.6356
 1046loPI   C4A15722  14.434  10.111   7.176  0.0094  0.0239  0.1237
 1046loPI   C5A15723  14.457  10.237   7.554 -0.1549  0.1847 -0.0669
 1046loPI   C6A15724  14.669  10.537   7.818  0.0367 -0.0516 -0.0227
 1046loPI   C1B15725  13.885   9.189   6.043 -0.0078  0.1084  0.0575
 1046loPI   C2B15726  13.580   9.226   6.255 -0.0739  0.0032  0.3708
 1046loPI   C3B15727  13.516   9.216   6.582 -0.3211 -0.0993 -0.0975
 1046loPI   C4B15728  13.505   9.474   6.963  0.1303 -0.0066  0.1078
 1047loPI    C115729  12.177   4.120   4.844  0.1063  0.0554  0.1269
 1047loPI    C215730  12.052   3.753   4.747  0.2839 -0.0280  0.2097
 1047loPI    C315731  12.263   3.967   4.484  0.1017  0.0525  0.1270
 1047loPI   PO415732  12.374   4.060   5.047 -0.4177 -0.3140 -0.0707
 1047loPI   GL115733  12.659   4.043   5.428 -0.2550 -0.2570  0.0718
 1047loPI   GL215734  12.678   3.732   5.364  0.0323 -0.2119  0.1267
 1047loPI   C1A15735  12.538   4.150   5.792 -0.0822  0.0025  0.1607
 1047loPI   C2A15736  12.462   3.969   6.220  0.0131 -0.1698 -0.2699
 1047loPI   C3A15737  12.565   3.657   6.384  0.0681 -0.2570  0.0383
 1047loPI   C4A15738  12.521   3.520   6.837  0.0800 -0.1338  0.2576
 1047loPI   C5A15739  12.618   3.322   7.237  0.2985  0.0997  0.1040
 1047loPI   C6A15740  12.626   2.902   7.292  0.1279  0.0575  0.4410
 1047loPI   C1B15741  12.548   3.640   5.897  0.2569 -0.1213  0.2460
 1047loPI   C2B15742  12.562   3.250   6.043  0.0888 -0.0591 -0.1920
 1047loPI   C3B15743  12.439   3.122   6.469  0.2704 -0.0709  0.0548
 1047loPI   C4B15744  12.544   3.051   6.828 -0.1415 -0.0325  0.1822
 1048loPI    C115745   2.617   8.853   4.983  0.1443 -0.0688 -0.1371
 1048loPI    C215746   2.725   8.534   5.199 -0.0394 -0.0774 -0.0561
 1048loPI    C315747   2.478   8.490   4.888  0.0081 -0.0268 -0.1011
 1048loPI   PO415748   2.467   9.074   5.164 -0.6134 -0.0014 -0.0834
 1048loPI   GL115749   2.437   9.312   5.506  0.1382  0.0780  0.4853
 1048loPI   GL215750   2.270   9.536   5.473  0.0092 -0.2074 -0.3023
 1048loPI   C1A15751   2.700   9.370   5.882  0.0445  0.2689  0.0070
 1048loPI   C2A15752   2.840   9.231   6.311  0.1684 -0.0315  0.1480
 1048loPI   C3A15753   2.760   9.358   6.680  0.1665  0.2860 -0.1191
 1048loPI   C4A15754   2.882   9.327   7.059  0.4671  0.4134  0.1150
 1048loPI   C5A15755   3.076   9.132   7.388 -0.3178  0.0829 -0.2465
 1048loPI   C6A15756   3.297   8.853   7.573 -0.0078 -0.1922 -0.3608
 1048loPI   C1B15757   2.405   9.818   5.885  0.1327  0.0775  0.0425
 1048loPI   C2B15758   2.582   9.992   6.156  0.1314 -0.1980 -0.1745
 1048loPI   C3B15759   2.574   9.993   6.560  0.2099  0.3085 -0.1184
 1048loPI   C4B15760   2.520  10.019   7.012 -0.2570 -0.1080 -0.0479
 1049loPI    C115761  13.019   8.260   5.203 -0.1720  0.0241  0.3646
 1049loPI    C215762  12.865   8.629   5.219 -0.2841 -0.0140  0.1912
 1049loPI    C315763  12.684   8.346   5.002 -0.0710 -0.1095  0.1358
 1049loPI   PO415764  13.061   8.222   5.434  0.0489 -0.1566 -0.1723
 1049loPI   GL115765  13.195   8.530   5.771 -0.0936  0.0893 -0.0362
 1049loPI   GL215766  12.866   8.581   5.703  0.1312  0.0046  0.1392
 1049loPI   C1A15767  13.440   8.341   6.091  0.3382  0.2222  0.0917
 1049loPI   C2A15768  13.246   8.097   6.467  0.3837 -0.1229  0.0133
 1049loPI   C3A15769  13.274   8.248   6.833  0.1796  0.0150 -0.0131
 1049loPI   C4A15770  13.245   8.305   7.267 -0.0621  0.0316 -0.1802
 1049loPI   C5A15771  13.244   8.448   7.689 -0.0456 -0.1455  0.0976
 1049loPI   C6A15772  13.079   8.355   8.065 -0.1676  0.0026  0.0161
 1049loPI   C1B15773  12.814   8.350   6.142 -0.0069  0.1365  0.2238
 1049loPI   C2B15774  12.770   8.332   6.616  0.2196 -0.1005  0.0791
 1049loPI   C3B15775  12.801   8.462   6.944  0.0699  0.0039  0.0553
 1049loPI   C4B15776  12.859   8.698   7.291 -0.1979  0.0724 -0.1951
 1050loPI    C115777  15.715  18.690   4.770 -0.1215  0.0188 -0.0602
 1050loPI    C215778  15.540  18.809   4.431  0.0361 -0.1081 -0.1872
 1050loPI    C315779  15.496  18.432   4.557 -0.0531 -0.0510 -0.0464
 1050loPI   PO415780  15.544  18.871   4.980  0.2891  0.1158 -0.0732
 1050loPI   GL115781  15.209  18.966   5.341 -0.1184  0.2106  0.0875
 1050loPI   GL215782  15.045  18.634   5.262  0.0400 -0.0422 -0.1684
 1050loPI   C1A15783  15.105  19.372   5.614 -0.3690 -0.0407 -0.0917
 1050loPI   C2A15784  15.043  19.521   5.972  0.1207  0.0809  0.1686
 1050loPI   C3A15785  14.937  19.500   6.376 -0.0169 -0.0927  0.3261
 1050loPI   C4A15786  15.112  19.499   6.828  0.0767  0.1816  0.1218
 1050loPI   C5A15787  15.510  19.576   6.887 -0.2529 -0.5454  0.2475
 1050loPI   C6A15788  15.632  20.047   6.849 -0.1069 -0.0214  0.1848
 1050loPI   C1B15789  15.143  18.423   5.690 -0.2269 -0.0154 -0.2269
 1050loPI   C2B15790  15.240  18.398   6.022 -0.0238 -0.0907 -0.1054
 1050loPI   C3B15791  15.585  18.324   6.198  0.2303 -0.2795 -0.0364
 1050loPI   C4B15792  15.980  18.485   6.317  0.0487 -0.1780  0.0447
 1051loPI    C115793  17.753  11.849   5.040 -0.0983  0.2881  0.4075
 1051loPI    C215794  17.798  12.141   4.771 -0.2186 -0.0019  0.0643
 1051loPI    C315795  18.094  11.879   4.833 -0.3993 -0.2778 -0.2094
 1051loPI   PO415796  17.657  11.909   5.215  0.1322 -0.1745  0.1528
 1051loPI   GL115797  17.777  11.789   5.581  0.0610 -0.3574 -0.1329
 1051loPI   GL215798  18.011  11.869   5.756 -0.0101  0.3897 -0.0208
 1051loPI   C1A15799  17.556  11.775   5.970 -0.0249 -0.1883  0.2626
 1051loPI   C2A15800  17.228  11.635   6.126  0.1758  0.1439  0.0301
 1051loPI   C3A15801  16.847  11.704   6.420  0.0748 -0.0326 -0.1044
 1051loPI   C4A15802  16.676  11.633   6.802 -0.2666 -0.1954 -0.2854
 1051loPI   C5A15803  16.301  11.536   7.008  0.1014  0.0464  0.0675
 1051loPI   C6A15804  16.191  11.127   7.153  0.0983 -0.2137 -0.0735
 1051loPI   C1B15805  18.046  11.705   6.139 -0.1545 -0.1689 -0.1133
 1051loPI   C2B15806  18.063  11.734   6.598 -0.2594 -0.1294 -0.0622
 1051loPI   C3B15807  18.002  11.735   7.011 -0.2632 -0.1320  0.1058
 1051loPI   C4B15808  18.099  11.443   7.297  0.2357 -0.1368 -0.1157
 1052loPI    C115809  17.420   3.403   4.744 -0.1739  0.1007 -0.2070
 1052loPI    C215810  17.752   3.346   4.527  0.0142 -0.0515  0.1134
 1052loPI    C315811  17.438   3.536   4.367  0.2422  0.0658 -0.2040
 1052loPI   PO415812  17.422   3.532   5.067 -0.2620  0.1097 -0.0060
 1052loPI   GL115813  17.580   3.350   5.439  0.2332 -0.6090  0.2616
 1052loPI   GL215814  17.529   3.622   5.584  0.1587  0.1693  0.2246
 1052loPI   C1A15815  17.520   3.182   5.821 -0.0431  0.1658 -0.0678
 1052loPI   C2A15816  17.350   3.331   6.246  0.1085 -0.0609  0.0815
 1052loPI   C3A15817  17.455   3.552   6.602  0.1977  0.0849  0.1658
 1052loPI   C4A15818  17.658   3.795   6.855  0.1692 -0.0683  0.1207
 1052loPI   C5A15819  17.602   3.974   7.195 -0.1081 -0.0105  0.0585
 1052loPI   C6A15820  17.345   4.137   7.399  0.1259 -0.1396  0.0963
 1052loPI   C1B15821  17.406   3.760   6.078  0.1063 -0.1600 -0.0156
 1052loPI   C2B15822  17.570   4.044   6.407 -0.1625 -0.1570  0.2020
 1052loPI   C3B15823  17.581   4.311   6.770  0.5687 -0.1642 -0.0252
 1052loPI   C4B15824  17.654   4.834   6.855 -0.2160  0.1891  0.4592
 1053loPI    C115825  11.188  16.437   4.609  0.1224  0.1751 -0.0099
 1053loPI    C215826  11.017  16.086   4.519  0.1877  0.1520 -0.0444
 1053loPI    C315827  10.873  16.425   4.362  0.1207  0.1415 -0.0062
 1053loPI   PO415828  11.376  16.403   4.636  0.1191  0.0919 -0.1521
 1053loPI   GL115829  11.505  16.357   5.122  0.2731 -0.4041 -0.0550
 1053loPI   GL215830  11.775  16.174   5.334  0.0436  0.1127 -0.0541
 1053loPI   C1A15831  11.373  16.313   5.563 -0.1643  0.1544  0.1297
 1053loPI   C2A15832  11.251  15.978   5.823 -0.0750 -0.0811  0.1352
 1053loPI   C3A15833  11.133  15.697   6.055  0.4486  0.2241 -0.4043
 1053loPI   C4A15834  10.736  15.415   6.089  0.0098 -0.0320 -0.0380
 1053loPI   C5A15835  10.485  14.970   6.088  0.2416 -0.1245  0.2182
 1053loPI   C6A15836  10.556  14.616   5.792  0.0266  0.3166  0.1956
 1053loPI   C1B15837  11.759  16.106   5.759  0.1769  0.1315 -0.0135
 1053loPI   C2B15838  11.903  15.818   6.164 -0.0793 -0.0101  0.2430
 1053loPI   C3B15839  11.840  15.801   6.556  0.0151 -0.0373  0.0345
 1053loPI   C4B15840  11.659  15.804   6.887  0.0799  0.1183  0.0488
 1054loPI    C115841  18.047  13.615   4.710 -0.0033  0.0024 -0.1571
 1054loPI    C215842  17.797  13.718   4.416  0.1229  0.2137 -0.1928
 1054loPI    C315843  18.146  13.909   4.457  0.2215  0.0095 -0.0640
 1054loPI   PO415844  17.871  13.541   4.902  0.0661  0.2243 -0.1782
 1054loPI   GL115845  17.561  13.665   5.262  0.0594 -0.1485 -0.3677
 1054loPI   GL215846  17.128  13.721   5.386  0.2208  0.1619  0.0844
 1054loPI   C1A15847  17.720  13.400   5.628 -0.0548  0.2323 -0.0924
 1054loPI   C2A15848  17.996  13.305   5.909 -0.1998  0.0872 -0.0789
 1054loPI   C3A15849  18.085  13.300   6.426  0.1306 -0.3507 -0.2133
 1054loPI   C4A15850  18.200  13.537   6.769 -0.1387 -0.1891  0.3473
 1054loPI   C5A15851  18.284  13.438   7.105 -0.1382  0.1124  0.0343
 1054loPI   C6A15852  18.306  13.361   7.539 -0.0218  0.1537 -0.1404
 1054loPI   C1B15853  16.761  13.671   5.742  0.0810  0.0775 -0.3243
 1054loPI   C2B15854  16.666  13.602   6.214  0.1615 -0.0258  0.2354
 1054loPI   C3B15855  16.745  13.538   6.617  0.0067  0.2459 -0.0848
 1054loPI   C4B15856  16.940  13.422   6.938  0.0478 -0.0177  0.0798
 1055loPI    C115857   4.653  10.523   5.066  0.0669 -0.0881  0.1672
 1055loPI    C215858   4.272  10.562   5.181  0.0680  0.1158  0.1053
 1055loPI    C315859   4.380  10.255   4.949 -0.0491  0.0315  0.1614
 1055loPI   PO415860   4.768  10.486   5.353  0.1670  0.0411  0.0013
 1055loPI   GL115861   4.726  10.330   5.752  0.2878 -0.1413  0.2160
 1055loPI   GL215862   4.551  10.529   5.815 -0.1626  0.0896  0.0143
 1055loPI   C1A15863   5.045  10.488   6.014 -0.1220 -0.3338  0.0253
 1055loPI   C2A15864   5.352  10.621   6.388  0.1761  0.1140 -0.1256
 1055loPI   C3A15865   5.354  10.606   6.805 -0.2197 -0.0761  0.0235
 1055loPI   C4A15866   5.118  10.527   7.037 -0.0838 -0.2524  0.0893
 1055loPI   C5A15867   5.047  10.188   7.211  0.1074  0.0794 -0.1878
 1055loPI   C6A15868   5.168  10.052   7.552 -0.0088 -0.1383 -0.2902
 1055loPI   C1B15869   4.252  10.585   6.128 -0.0419 -0.1500  0.1259
 1055loPI   C2B15870   4.114  10.684   6.475 -0.3023 -0.5160  0.3367
 1055loPI   C3B15871   3.799  10.663   6.733 -0.1610  0.1684 -0.1307
 1055loPI   C4B15872   3.696  10.808   7.143 -0.2838 -0.4478 -0.1242
 1056loPI    C115873  15.206   0.638   4.714 -0.0060  0.0549  0.0367
 1056loPI    C215874  14.897   0.385   4.699  0.0337  0.0101 -0.0321
 1056loPI    C315875  15.271   0.245   4.684  0.0550  0.0782 -0.1479
 1056loPI   PO415876  15.111   0.786   4.911 -0.1465 -0.0041 -0.0604
 1056loPI   GL115877  15.322   0.852   5.263 -0.0679  0.2050 -0.0253
 1056loPI   GL215878  14.963   0.962   5.358 -0.1902 -0.0685  0.0351
 1056loPI   C1A15879  15.391   0.862   5.705 -0.1048 -0.0775  0.3858
 1056loPI   C2A15880  15.189   1.148   6.005  0.1515  0.0800  0.3709
 1056loPI   C3A15881  15.071   1.411   6.247 -0.0908 -0.0343  0.2624
 1056loPI   C4A15882  15.304   1.455   6.641 -0.0144  0.1024 -0.0672
 1056loPI   C5A15883  15.249   1.577   7.052  0.0678  0.1290 -0.1543
 1056loPI   C6A15884  15.089   1.490   7.438 -0.3394  0.1159  0.0883
 1056loPI   C1B15885  14.739   1.025   5.756  0.3366  0.4338 -0.1978
 1056loPI   C2B15886  14.735   1.035   6.251  0.3041  0.0672  0.0449
 1056loPI   C3B15887  14.375   1.117   6.591  0.0315 -0.1359  0.3319
 1056loPI   C4B15888  14.251   0.893   6.939  0.0896  0.2818  0.0102
 1057loPI    C115889  10.504   3.226   5.014  0.1705  0.0675 -0.2125
 1057loPI    C215890  10.504   3.549   4.778  0.0012  0.1790 -0.0634
 1057loPI    C315891  10.160   3.413   4.929  0.0753 -0.0558 -0.1021
 1057loPI   PO415892  10.655   3.268   5.145 -0.0925 -0.3590 -0.0643
 1057loPI   GL115893  10.888   3.422   5.469  0.1101 -0.0509 -0.0505
 1057loPI   GL215894  10.960   3.725   5.675  0.2431 -0.0186 -0.2578
 1057loPI   C1A15895  11.116   3.269   5.821  0.2942 -0.0037 -0.1366
 1057loPI   C2A15896  11.089   3.209   6.251  0.1641 -0.0644  0.0139
 1057loPI   C3A15897  11.279   3.256   6.614  0.3123 -0.2174  0.1254
 1057loPI   C4A15898  11.535   3.060   6.865 -0.1644  0.0114 -0.1318
 1057loPI   C5A15899  11.587   2.811   7.144  0.0682  0.2758 -0.0483
 1057loPI   C6A15900  11.435   2.398   7.229  0.0063 -0.1101  0.1546
 1057loPI   C1B15901  11.121   3.840   6.061  0.1820 -0.1605  0.2667
 1057loPI   C2B15902  11.085   3.836   6.478  0.0267  0.0253 -0.0081
 1057loPI   C3B15903  11.136   3.695   6.854  0.1907 -0.1522 -0.2355
 1057loPI   C4B15904  11.184   3.393   7.150  0.1196 -0.3546 -0.3135
 1058loPI    C115905  15.373   1.819   4.751  0.1937 -0.0480 -0.0329
 1058loPI    C215906  15.284   1.571   4.450 -0.1397 -0.1104  0.1123
 1058loPI    C315907  15.427   1.936   4.373 -0.0437 -0.1943 -0.1147
 1058loPI   PO415908  15.156   1.780   4.956  0.0777  0.0963  0.2919
 1058loPI   GL115909  14.965   1.595   5.341  0.0357 -0.0188  0.0388
 1058loPI   GL215910  14.836   1.907   5.336 -0.1043  0.2306 -0.0370
 1058loPI   C1A15911  14.956   1.415   5.683 -0.2068  0.0860  0.1734
 1058loPI   C2A15912  14.681   1.426   5.958  0.2536 -0.4495 -0.1456
 1058loPI   C3A15913  14.559   1.553   6.393 -0.2531 -0.1427 -0.1591
 1058loPI   C4A15914  14.446   1.679   6.846  0.5048  0.4337  0.1469
 1058loPI   C5A15915  14.143   1.891   7.208  0.2588  0.1489  0.3269
 1058loPI   C6A15916  13.971   1.909   7.604 -0.3895  0.1110 -0.1350
 1058loPI   C1B15917  14.601   1.797   5.648  0.0885  0.0067 -0.1090
 1058loPI   C2B15918  14.578   1.977   6.083  0.1221 -0.1128  0.0752
 1058loPI   C3B15919  14.589   2.095   6.532 -0.1386 -0.0116 -0.1537
 1058loPI   C4B15920  14.660   2.244   6.990  0.1932 -0.0708  0.0602
 1059loPI    C115921  15.008   6.761   5.030 -0.1255  0.0072 -0.0799
 1059loPI    C215922  15.026   6.957   4.682 -0.1791  0.0155 -0.0781
 1059loPI    C315923  14.993   6.559   4.685  0.0597 -0.0058 -0.0810
 1059loPI   PO415924  15.239   6.879   5.171 -0.1823 -0.2620 -0.3217
 1059loPI   GL115925  15.113   6.889   5.640  0.1589  0.1529 -0.0239
 1059loPI   GL215926  14.941   6.843   5.923  0.2027  0.2104  0.0142
 1059loPI   C1A15927  15.362   7.155   5.747  0.0328 -0.2146 -0.0361
 1059loPI   C2A15928  15.701   7.198   5.885  0.0769 -0.0320  0.1692
 1059loPI   C3A15929  16.077   7.425   6.145  0.2284  0.3189  0.0838
 1059loPI   C4A15930  16.020   7.393   6.575 -0.2059  0.4307 -0.0692
 1059loPI   C5A15931  15.912   7.117   6.853 -0.0121 -0.2955 -0.3060
 1059loPI   C6A15932  16.156   6.776   6.886 -0.1466 -0.3470  0.0546
 1059loPI   C1B15933  14.958   6.731   6.482  0.0504  0.0304  0.0859
 1059loPI   C2B15934  15.273   6.767   6.654  0.1628 -0.1329 -0.1791
 1059loPI   C3B15935  15.414   7.104   6.940 -0.0418 -0.0967 -0.2240
 1059loPI   C4B15936  15.563   7.467   6.993 -0.0605  0.1564 -0.0678
 1060loPI    C115937  11.812  10.610   4.998 -0.0744 -0.0130  0.0043
 1060loPI    C215938  11.958  10.373   4.710 -0.1520 -0.0472 -0.0070
 1060loPI    C315939  11.607  10.558   4.659 -0.1183  0.0261  0.0248
 1060loPI   PO415940  11.938  10.574   5.218 -0.0215  0.3883 -0.3363
 1060loPI   GL115941  12.033  10.749   5.649 -0.2146 -0.0754 -0.3155
 1060loPI   GL215942  12.127  10.370   5.665 -0.1512 -0.1884 -0.1210
 1060loPI   C1A15943  12.055  10.944   6.012  0.1496  0.1785  0.0871
 1060loPI   C2A15944  11.985  11.100   6.398  0.3174  0.2115 -0.1633
 1060loPI   C3A15945  11.905  11.228   6.800 -0.0262 -0.1919 -0.0397
 1060loPI   C4A15946  11.970  11.219   7.270  0.1952  0.1055  0.1664
 1060loPI   C5A15947  12.188  11.094   7.657  0.0169  0.1079 -0.1075
 1060loPI   C6A15948  12.517  10.822   7.825 -0.1528 -0.0682 -0.0164
 1060loPI   C1B15949  11.853  10.430   6.027  0.1224 -0.1108 -0.2027
 1060loPI   C2B15950  11.873  10.456   6.424 -0.1052 -0.1458 -0.2299
 1060loPI   C3B15951  11.851  10.687   6.892 -0.0235  0.2169 -0.2310
 1060loPI   C4B15952  12.117  10.704   7.304  0.0972 -0.0325 -0.0710
 1061loPI    C115953   4.426   5.173   5.424  0.0381  0.0424 -0.0196
 1061loPI    C215954   4.165   4.954   5.635  0.2018 -0.0812  0.0567
 1061loPI    C315955   4.077   5.065   5.261  0.1779 -0.4044 -0.0366
 1061loPI   PO415956   4.489   5.384   5.556  0.0852 -0.0982 -0.1974
 1061loPI   GL115957   4.659   5.472   5.984 -0.2252  0.0050  0.0640
 1061loPI   GL215958   4.408   5.281   6.037 -0.2634 -0.0767 -0.2210
 1061loPI   C1A15959   4.628   5.477   6.435  0.1535  0.2758  0.2506
 1061loPI   C2A15960   4.444   5.372   6.895 -0.0118  0.2865  0.1129
 1061loPI   C3A15961   4.355   5.294   7.323  0.2378  0.1960 -0.1285
 1061loPI   C4A15962   4.565   4.954   7.601  0.1204  0.1920 -0.0994
 1061loPI   C5A15963   4.353   4.502   7.655  0.0093 -0.0575  0.0935
 1061loPI   C6A15964   4.606   4.030   7.451 -0.1128  0.0428  0.0152
 1061loPI   C1B15965   4.296   5.083   6.467 -0.1764  0.0228 -0.1395
 1061loPI   C2B15966   4.001   4.795   6.546  0.2255  0.1166  0.1289
 1061loPI   C3B15967   3.698   4.535   6.444  0.1326  0.1159  0.0111
 1061loPI   C4B15968   3.405   4.320   6.616 -0.0755 -0.2126 -0.0133
 1062loPI    C115969  16.042  18.339   5.244 -0.0993 -0.0888 -0.1361
 1062loPI    C215970  15.930  17.955   5.264  0.2278 -0.1887 -0.1604
 1062loPI    C315971  16.246  18.060   5.042  0.0135  0.1270 -0.3252
 1062loPI   PO415972  15.929  18.464   5.168  0.3096  0.2565  0.0613
 1062loPI   GL115973  15.762  18.863   5.408  0.1294 -0.3585  0.0452
 1062loPI   GL215974  15.543  18.661   5.435 -0.1485  0.1152  0.3223
 1062loPI   C1A15975  16.031  19.096   5.744 -0.1077  0.0497  0.3988
 1062loPI   C2A15976  15.959  19.220   6.182 -0.0018 -0.1013  0.2167
 1062loPI   C3A15977  15.845  19.209   6.600  0.3167  0.0183 -0.1149
 1062loPI   C4A15978  15.869  19.149   6.977  0.6439 -0.0069  0.1048
 1062loPI   C5A15979  16.068  19.191   7.291  0.0907 -0.1256 -0.0822
 1062loPI   C6A15980  16.436  19.436   7.560 -0.0752 -0.0054  0.1519
 1062loPI   C1B15981  15.399  18.861   5.775 -0.0366 -0.0195 -0.1717
 1062loPI   C2B15982  15.557  18.804   6.213 -0.1487  0.2079  0.0431
 1062loPI   C3B15983  15.616  18.722   6.596 -0.1870  0.2619  0.0606
 1062loPI   C4B15984  15.832  18.501   6.837  0.0468  0.2041  0.1065
 1063loPI    C115985   4.708  11.503   4.864 -0.1909  0.1672  0.2049
 1063loPI    C215986   4.569  11.305   4.546  0.1592 -0.1516  0.2432
 1063loPI    C315987   4.863  11.572   4.501  0.0387 -0.0142  0.2659
 1063loPI   PO415988   4.505  11.479   5.084 -0.1249 -0.0220 -0.2957
 1063loPI   GL115989   4.351  11.746   5.351  0.2027 -0.1054 -0.4033
 1063loPI   GL215990   4.595  11.544   5.568  0.3451  0.0990 -0.1453
 1063loPI   C1A15991   3.941  11.818   5.641 -0.0416  0.0626 -0.0300
 1063loPI   C2A15992   4.046  11.824   6.081  0.2261 -0.1554 -0.2162
 1063loPI   C3A15993   3.932  12.158   6.426 -0.0210 -0.2140  0.0177
 1063loPI   C4A15994   3.907  12.130   6.896  0.0379  0.3160 -0.3959
 1063loPI   C5A15995   3.882  11.718   7.074 -0.4143  0.2318 -0.0564
 1063loPI   C6A15996   3.695  11.295   7.092 -0.2150 -0.2581 -0.0165
 1063loPI   C1B15997   4.854  11.267   5.757 -0.0559  0.0302  0.1411
 1063loPI   C2B15998   5.010  10.996   6.078 -0.1781  0.2023  0.2503
 1063loPI   C3B15999   5.004  11.111   6.562 -0.1731  0.1294  0.1352
 1063loPI   C4B16000   4.882  11.236   6.958 -0.0807 -0.0811 -0.2511
 1064loPI    C116001   3.200   1.807   5.051 -0.2214  0.0259  0.0620
 1064loPI    C216002   3.423   2.034   4.808 -0.1774  0.0236  0.1003
 1064loPI    C316003   3.028   2.092   4.828 -0.2160 -0.1368 -0.1536
 1064loPI   PO416004   3.216   1.680   5.338  0.1990  0.2130 -0.0087
 1064loPI   GL116005   3.139   1.801   5.738 -0.1736  0.0256 -0.1295
 1064loPI   GL216006   3.114   1.548   5.871  0.0739 -0.0736  0.1491
 1064loPI   C1A16007   3.353   1.994   6.024 -0.1644 -0.1980 -0.1651
 1064loPI   C2A16008   3.509   2.077   6.468 -0.2985 -0.0666 -0.1580
 1064loPI   C3A16009   3.824   2.095   6.626 -0.0420 -0.2711  0.0300
 1064loPI   C4A16010   4.028   2.205   6.993  0.0771  0.1974 -0.0876
 1064loPI   C5A16011   4.197   2.558   7.189 -0.1788  0.0607  0.5420
 1064loPI   C6A16012   4.138   3.010   7.343 -0.0216  0.1637 -0.0300
 1064loPI   C1B16013   3.419   1.473   6.164 -0.0650  0.2155  0.0300
 1064loPI   C2B16014   3.573   1.469   6.668 -0.2671  0.0327  0.1153
 1064loPI   C3B16015   3.904   1.396   6.995 -0.0645  0.1065 -0.1555
 1064loPI   C4B16016   4.047   1.281   7.320  0.0296  0.1527  0.0868
 1065loPI    C116017   3.461  18.730   5.349 -0.0621  0.1015 -0.0005
 1065loPI    C216018   3.428  18.656   4.958  0.0118  0.0057  0.0112
 1065loPI    C316019   3.434  19.034   5.090  0.0612  0.0394 -0.0868
 1065loPI   PO416020   3.254  18.622   5.535 -0.0834  0.3794 -0.0587
 1065loPI   GL116021   3.372  18.516   5.930  0.3882  0.1870  0.3663
 1065loPI   GL216022   3.293  18.766   6.093 -0.0967 -0.1388 -0.0047
 1065loPI   C1A16023   3.228  18.204   6.164 -0.1568  0.0373  0.1839
 1065loPI   C2A16024   2.841  18.017   6.316 -0.2881 -0.0631  0.1309
 1065loPI   C3A16025   2.526  18.239   6.539  0.2082  0.0523  0.0168
 1065loPI   C4A16026   2.387  18.414   6.952  0.1832  0.0975  0.0924
 1065loPI   C5A16027   2.179  18.467   7.322  0.1540  0.0771  0.1207
 1065loPI   C6A16028   2.282  18.506   7.713  0.1848  0.3296 -0.3243
 1065loPI   C1B16029   3.278  18.575   6.459  0.1046  0.1693  0.0063
 1065loPI   C2B16030   3.024  18.288   6.670 -0.4390  0.1442  0.0827
 1065loPI   C3B16031   2.720  18.033   6.958 -0.1303 -0.1776 -0.1020
 1065loPI   C4B16032   2.477  17.809   7.267 -0.3346 -0.0534  0.0522
 1066loPI    C116033  18.740  15.383   4.561  0.2347 -0.1203  0.0258
 1066loPI    C216034  19.080  15.407   4.352  0.1090  0.1341 -0.1550
 1066loPI    C316035  18.735  15.335   4.164  0.0727 -0.2214  0.0394
 1066loPI   PO416036  18.849  15.134   4.772 -0.0585  0.0577 -0.2778
 1066loPI   GL116037  18.859  15.003   5.151 -0.1622  0.1757  0.2579
 1066loPI   GL216038  19.120  15.051   5.332  0.1139 -0.1230  0.0922
 1066loPI   C1A16039  18.699  14.962   5.615  0.1375  0.3043  0.3061
 1066loPI   C2A16040  18.840  15.002   5.945 -0.1119 -0.0104 -0.0472
 1066loPI   C3A16041  18.860  15.074   6.339  0.0882  0.0392 -0.2138
 1066loPI   C4A16042  18.985  15.184   6.748  0.1655  0.2073  0.1254
 1066loPI   C5A16043  19.285  14.970   7.136  0.0184  0.1696  0.2565
 1066loPI   C6A16044  19.710  14.938   7.300  0.1388  0.2270 -0.2169
 1066loPI   C1B16045  19.289  15.167   5.719 -0.2920  0.0361 -0.0556
 1066loPI   C2B16046  19.366  15.145   6.099  0.1976  0.0467  0.1116
 1066loPI   C3B16047  19.354  15.175   6.438 -0.1498 -0.2344 -0.0977
 1066loPI   C4B16048  19.152  15.610   6.472 -0.2863  0.1411 -0.1213
 1067loPI    C116049   2.253   6.705   5.058  0.0876  0.0514 -0.0046
 1067loPI    C216050   2.003   7.011   5.117  0.1559  0.1331 -0.1345
 1067loPI    C316051   2.136   6.930   4.749  0.2326  0.0206 -0.0827
 1067loPI   PO416052   2.338   6.707   5.279  0.0434  0.1895 -0.0053
 1067loPI   GL116053   2.193   6.566   5.636  0.0440 -0.1346 -0.2550
 1067loPI   GL216054   2.443   6.681   5.825  0.3575 -0.0065 -0.2297
 1067loPI   C1A16055   2.058   6.641   6.044  0.0880  0.2031 -0.1890
 1067loPI   C2A16056   2.259   6.509   6.407  0.1107  0.2067 -0.0895
 1067loPI   C3A16057   2.353   6.722   6.712  0.1900  0.2305 -0.1379
 1067loPI   C4A16058   2.413   7.188   6.669  0.2121 -0.1908 -0.2016
 1067loPI   C5A16059   2.622   7.474   6.688  0.0062 -0.2402  0.2046
 1067loPI   C6A16060   2.695   7.770   7.044 -0.0460 -0.2807  0.2320
 1067loPI   C1B16061   2.429   6.926   6.161  0.0924 -0.0684  0.1628
 1067loPI   C2B16062   2.457   7.394   6.203  0.1127  0.0697 -0.1252
 1067loPI   C3B16063   2.445   7.789   6.191 -0.4731  0.2305 -0.0097
 1067loPI   C4B16064   2.379   8.207   6.102  0.0644  0.2078  0.2251
 1068loPI    C116065  11.135  18.952   5.176  0.1150  0.0862  0.0097
 1068loPI    C216066  10.935  19.220   4.958 -0.2543 -0.2334 -0.0544
 1068loPI    C316067  11.124  18.917   4.778  0.1473 -0.0318  0.0186
 1068loPI   PO416068  11.270  19.109   5.316 -0.0237 -0.0749  0.3023
 1068loPI   GL116069  11.407  19.020   5.649 -0.0910  0.2362 -0.0581
 1068loPI   GL216070  11.189  19.331   5.765  0.2927 -0.0959 -0.0014
 1068loPI   C1A16071  11.275  18.969   6.089  0.1892 -0.2281  0.1115
 1068loPI   C2A16072  11.004  19.090   6.386  0.1288 -0.1282  0.0254
 1068loPI   C3A16073  10.700  19.088   6.680  0.0568  0.3288 -0.0081
 1068loPI   C4A16074  10.414  19.102   7.006  0.2271 -0.1682  0.1475
 1068loPI   C5A16075  10.158  18.995   7.312  0.1053 -0.3816  0.0744
 1068loPI   C6A16076   9.744  19.012   7.465 -0.3387  0.1219 -0.0755
 1068loPI   C1B16077  10.894  19.335   5.909 -0.1435 -0.1582 -0.1053
 1068loPI   C2B16078  10.556  19.315   6.182 -0.3386  0.0494  0.4478
 1068loPI   C3B16079  10.414  19.455   6.618 -0.1108 -0.0483  0.1670
 1068loPI   C4B16080  10.067  19.531   6.915 -0.2817  0.0529  0.1261
 1069loPI    C116081  12.589  17.796   4.835 -0.1508  0.1195 -0.1516
 1069loPI    C216082  12.822  18.085   4.687  0.1756 -0.0715 -0.0205
 1069loPI    C316083  12.746  17.758   4.469  0.2860 -0.1484  0.0546
 1069loPI   PO416084  12.487  17.917   5.037  0.0555  0.0255 -0.0158
 1069loPI   GL116085  12.284  18.191   5.367  0.0529 -0.0915 -0.1435
 1069loPI   GL216086  12.025  18.170   5.413  0.0252  0.3455  0.0598
 1069loPI   C1A16087  12.314  18.351   5.755  0.2039 -0.1766  0.0196
 1069loPI   C2A16088  12.364  18.332   6.064  0.1969  0.0222  0.1720
 1069loPI   C3A16089  12.193  18.316   6.564 -0.0520  0.3307 -0.2258
 1069loPI   C4A16090  12.060  18.023   6.790  0.0321  0.0670  0.2989
 1069loPI   C5A16091  11.729  17.772   6.820  0.1456  0.0791  0.1137
 1069loPI   C6A16092  11.309  17.701   6.712  0.2108 -0.0338 -0.3017
 1069loPI   C1B16093  11.774  18.513   5.639 -0.0599  0.2457  0.4170
 1069loPI   C2B16094  11.733  18.833   5.917 -0.0422 -0.4258 -0.0866
 1069loPI   C3B16095  11.713  19.020   6.479 -0.0862 -0.1798  0.0647
 1069loPI   C4B16096  11.753  19.248   6.872 -0.0003 -0.0919  0.2614
 1070loPI    C116097   7.429   9.585   5.054  0.2405  0.3946 -0.0099
 1070loPI    C216098   7.481   9.587   4.657  0.0848 -0.1491 -0.0412
 1070loPI    C316099   7.115   9.531   4.810  0.1226  0.1903  0.1834
 1070loPI   PO416100   7.574   9.469   5.227  0.0786 -0.0712 -0.2351
 1070loPI   GL116101   7.444   9.310   5.621  0.0234 -0.4194 -0.1419
 1070loPI   GL216102   7.242   9.472   5.735  0.0506  0.0452 -0.1760
 1070loPI   C1A16103   7.513   9.143   5.964  0.2624 -0.4861 -0.1192
 1070loPI   C2A16104   7.658   8.948   6.327  0.4847 -0.3995  0.2160
 1070loPI   C3A16105   7.511   8.670   6.575  0.1338  0.0110  0.0842
 1070loPI   C4A16106   7.646   8.595   7.016  0.2219  0.0397  0.0634
 1070loPI   C5A16107   7.881   8.297   7.256 -0.0957  0.0612  0.0624
 1070loPI   C6A16108   7.969   7.960   7.495 -0.0759  0.0627 -0.2994
 1070loPI   C1B16109   7.089   9.581   6.138  0.2971 -0.0123  0.3021
 1070loPI   C2B16110   7.183   9.807   6.567  0.0941  0.0359 -0.0114
 1070loPI   C3B16111   7.306   9.734   6.926  0.1049 -0.0863  0.0535
 1070loPI   C4B16112   7.478   9.580   7.351 -0.1089 -0.0389 -0.3136
 1071loPI    C116113   4.212  17.692   4.986  0.1041 -0.0567 -0.0934
 1071loPI    C216114   4.429  17.749   4.655 -0.0468 -0.0059 -0.1845
 1071loPI    C316115   4.040  17.657   4.626 -0.0518 -0.0379 -0.0216
 1071loPI   PO416116   4.118  17.533   5.317  0.1176  0.2965  0.1224
 1071loPI   GL116117   4.140  17.428   5.725 -0.0138 -0.3363 -0.2436
 1071loPI   GL216118   4.139  17.719   5.856  0.5887  0.3699 -0.0365
 1071loPI   C1A16119   4.117  17.271   6.127  0.2937 -0.2000  0.4015
 1071loPI   C2A16120   4.261  17.215   6.495 -0.1710 -0.0633 -0.1429
 1071loPI   C3A16121   4.207  17.182   6.896 -0.2254 -0.1492  0.0838
 1071loPI   C4A16122   3.862  17.155   7.106  0.1313 -0.0155  0.0425
 1071loPI   C5A16123   3.718  17.094   7.489  0.2406  0.3236  0.0424
 1071loPI   C6A16124   3.562  17.330   7.790  0.0210 -0.0684  0.0638
 1071loPI   C1B16125   4.028  17.707   6.298 -0.0668  0.3061 -0.1273
 1071loPI   C2B16126   3.995  17.679   6.744 -0.0213 -0.4121 -0.0633
 1071loPI   C3B16127   3.924  17.671   7.124 -0.1613  0.2730  0.0668
 1071loPI   C4B16128   3.941  17.710   7.538 -0.0393 -0.2294  0.0449
 1072loPI    C116129  14.838   3.720   4.831 -0.3136  0.0703  0.1070
 1072loPI    C216130  14.898   4.107   4.751  0.1178 -0.0082  0.0232
 1072loPI    C316131  14.994   3.830   4.480 -0.1575 -0.1785  0.0956
 1072loPI   PO416132  14.743   3.797   5.147 -0.1746 -0.0456  0.0043
 1072loPI   GL116133  14.642   3.931   5.516  0.3495 -0.2214 -0.1918
 1072loPI   GL216134  14.428   4.225   5.553  0.0623  0.0021 -0.0940
 1072loPI   C1A16135  14.533   3.755   5.948 -0.2751 -0.1215 -0.2172
 1072loPI   C2A16136  14.441   3.929   6.377 -0.0540  0.1200 -0.1397
 1072loPI   C3A16137  14.512   4.218   6.668  0.0148 -0.1922 -0.3270
 1072loPI   C4A16138  14.681   4.218   7.079  0.0611 -0.6486  0.1316
 1072loPI   C5A16139  15.075   4.396   7.351  0.3299 -0.0583 -0.0859
 1072loPI   C6A16140  15.300   4.510   7.730 -0.0604 -0.1895 -0.0840
 1072loPI   C1B16141  14.061   4.106   5.683 -0.1801 -0.0471  0.2357
 1072loPI   C2B16142  13.981   4.212   6.114  0.0368  0.2850  0.0187
 1072loPI   C3B16143  14.045   4.230   6.479  0.1679  0.2478  0.0606
 1072loPI   C4B16144  14.006   4.413   6.808 -0.0718 -0.0608  0.0208
 1073loPI    C116145   4.526   3.018   4.914 -0.0645  0.0566 -0.0037
 1073loPI    C216146   4.501   2.729   4.638 -0.3257  0.1386 -0.0694
 1073loPI    C316147   4.669   3.080   4.545 -0.1337  0.0585 -0.0304
 1073loPI   PO416148   4.628   2.853   5.117 -0.2370 -0.0157 -0.1226
 1073loPI   GL116149   4.504   2.564   5.488 -0.2081  0.1999  0.1534
 1073loPI   GL216150   4.832   2.754   5.585 -0.2056  0.5912  0.3499
 1073loPI   C1A16151   4.566   2.518   5.969 -0.0534  0.4052  0.0436
 1073loPI   C2A16152   4.554   2.515   6.402 -0.1031  0.0437 -0.0609
 1073loPI   C3A16153   4.524   2.622   6.809  0.4777  0.0541  0.3014
 1073loPI   C4A16154   4.744   2.366   7.137  0.0248  0.0312 -0.0205
 1073loPI   C5A16155   5.090   2.144   7.141 -0.0448  0.3525 -0.0377
 1073loPI   C6A16156   5.451   2.436   7.079 -0.0892  0.2997  0.2514
 1073loPI   C1B16157   4.966   3.145   5.831  0.1429 -0.0494 -0.1026
 1073loPI   C2B16158   5.109   3.260   6.256 -0.0410 -0.2239  0.0340
 1073loPI   C3B16159   5.305   3.184   6.623 -0.1005  0.1485 -0.0856
 1073loPI   C4B16160   5.632   3.044   6.840 -0.1417 -0.0595 -0.0322
 1074loPI    C116161   2.335  13.734   5.222 -0.0258 -0.0097 -0.0295
 1074loPI    C216162   2.340  13.975   4.903 -0.0486  0.1065  0.0577
 1074loPI    C316163   2.595  13.668   4.925 -0.1232  0.0305 -0.1241
 1074loPI   PO416164   2.144  13.889   5.404  0.0198 -0.1989  0.0306
 1074loPI   GL116165   2.252  13.781   5.800 -0.2036 -0.2110 -0.1842
 1074loPI   GL216166   2.539  13.653   5.643 -0.0125 -0.1332  0.0744
 1074loPI   C1A16167   2.264  13.720   6.241  0.1142 -0.0760  0.0733
 1074loPI   C2A16168   2.071  13.733   6.785  0.1472 -0.2534 -0.0083
 1074loPI   C3A16169   1.883  13.640   7.098 -0.3285  0.1111 -0.0762
 1074loPI   C4A16170   1.564  13.787   7.286  0.2690 -0.4091  0.0804
 1074loPI   C5A16171   1.418  14.098   7.569  0.4900  0.0491 -0.0389
 1074loPI   C6A16172   0.908  14.183   7.604 -0.0165 -0.0641 -0.0434
 1074loPI   C1B16173   2.850  13.748   5.958 -0.3361  0.0866 -0.0896
 1074loPI   C2B16174   2.781  14.014   6.293 -0.5172 -0.1700 -0.0976
 1074loPI   C3B16175   2.547  13.997   6.700 -0.1100  0.0669 -0.1631
 1074loPI   C4B16176   2.384  14.043   7.063 -0.1417 -0.0421 -0.0263
 1075loPI    C116177  17.169   1.206   4.763 -0.1184  0.3690 -0.1381
 1075loPI    C216178  17.304   1.209   4.386 -0.3347  0.1537 -0.2199
 1075loPI    C316179  17.065   0.913   4.511  0.0610  0.0016  0.2043
 1075loPI   PO416180  17.317   1.487   4.829  0.0841  0.3683 -0.2092
 1075loPI   GL116181  17.443   1.580   5.237 -0.2024  0.0623  0.1001
 1075loPI   GL216182  17.232   1.883   5.250  0.6734  0.2033 -0.1513
 1075loPI   C1A16183  17.683   1.524   5.596  0.1979  0.0105  0.0007
 1075loPI   C2A16184  17.812   1.604   5.962 -0.1357  0.3093 -0.1332
 1075loPI   C3A16185  17.703   1.620   6.396  0.0704  0.0039 -0.1599
 1075loPI   C4A16186  17.708   1.390   6.760  0.3665  0.0858  0.1414
 1075loPI   C5A16187  17.613   1.292   7.149 -0.3662  0.0795 -0.0191
 1075loPI   C6A16188  17.464   1.464   7.612 -0.0707 -0.1044 -0.1375
 1075loPI   C1B16189  16.995   2.038   5.732 -0.0159  0.1358 -0.2424
 1075loPI   C2B16190  17.033   1.981   6.191  0.1276  0.1621  0.1280
 1075loPI   C3B16191  17.087   2.122   6.573 -0.0578  0.2332 -0.1483
 1075loPI   C4B16192  17.175   2.122   7.038  0.2676  0.3261  0.0847
 1076loPI    C116193   9.773   4.059   5.137 -0.3123 -0.1844  0.1917
 1076loPI    C216194   9.770   3.755   4.877  0.3707  0.0630 -0.1297
 1076loPI    C316195   9.692   4.126   4.751  0.0903  0.1029  0.1501
 1076loPI   PO416196   9.767   3.983   5.367 -0.0743  0.1594  0.0776
 1076loPI   GL116197   9.723   3.801   5.718  0.1702 -0.1580 -0.1227
 1076loPI   GL216198   9.561   3.513   5.730 -0.1990  0.1070 -0.1622
 1076loPI   C1A16199   9.880   3.690   6.157 -0.0346  0.1536  0.1672
 1076loPI   C2A16200   9.874   3.546   6.561 -0.0606 -0.2074 -0.1991
 1076loPI   C3A16201   9.843   3.495   6.992 -0.0525 -0.0069  0.2825
 1076loPI   C4A16202   9.924   3.262   7.364 -0.2505 -0.4730 -0.0788
 1076loPI   C5A16203  10.004   3.499   7.840 -0.1205  0.1323 -0.1561
 1076loPI   C6A16204  10.270   3.719   8.205 -0.0081 -0.2163 -0.0953
 1076loPI   C1B16205   9.536   3.293   6.063 -0.3285  0.0112 -0.0747
 1076loPI   C2B16206   9.289   3.288   6.404  0.1027  0.0352 -0.1499
 1076loPI   C3B16207   8.965   3.090   6.692 -0.0530 -0.1388 -0.0333
 1076loPI   C4B16208   8.740   2.672   6.843  0.0781 -0.0480  0.0639
 1077loPI    C116209   0.466   3.454   5.075 -0.0087 -0.2779 -0.2659
 1077loPI    C216210   0.756   3.686   4.928  0.0109 -0.0823  0.0723
 1077loPI    C316211   0.398   3.678   4.751  0.0413  0.1298 -0.0019
 1077loPI   PO416212   0.450   3.532   5.256 -0.0179 -0.2886 -0.0389
 1077loPI   GL116213   0.537   3.575   5.743  0.2093  0.3078 -0.1081
 1077loPI   GL216214   0.410   3.862   5.655 -0.1571  0.1498  0.0495
 1077loPI   C1A16215   0.357   3.240   6.048 -0.2539  0.0028  0.2448
 1077loPI   C2A16216   0.131   3.189   6.395  0.1881 -0.0581  0.1259
 1077loPI   C3A16217   0.136   2.870   6.613 -0.0762 -0.1605 -0.0333
 1077loPI   C4A16218   0.135   2.631   6.884 -0.0934 -0.1525 -0.0593
 1077loPI   C5A16219   0.058   2.434   7.364  0.5653  0.0988  0.1185
 1077loPI   C6A16220   0.106   2.612   7.787  0.0294  0.2669  0.2345
 1077loPI   C1B16221   0.310   3.794   6.122 -0.1988  0.0037 -0.0285
 1077loPI   C2B16222   0.485   3.583   6.407 -0.2022  0.1207  0.3294
 1077loPI   C3B16223   0.378   3.440   6.765  0.1276  0.1726 -0.0711
 1077loPI   C4B16224   0.381   3.093   7.015 -0.0558  0.0297  0.0511
 1078loPI    C116225   2.405   2.065   4.678  0.1345 -0.0069  0.0619
 1078loPI    C216226   2.395   2.363   4.412 -0.0533  0.1026  0.1892
 1078loPI    C316227   2.678   2.082   4.386 -0.2035 -0.0154 -0.2623
 1078loPI   PO416228   2.399   2.241   5.000 -0.0231 -0.1224 -0.1790
 1078loPI   GL116229   2.334   2.026   5.429 -0.1315 -0.1011 -0.3966
 1078loPI   GL216230   2.194   2.075   5.603 -0.0164 -0.1031 -0.2749
 1078loPI   C1A16231   2.654   1.982   5.803  0.0506 -0.2754  0.3301
 1078loPI   C2A16232   2.833   1.858   6.160  0.3529  0.0571  0.2005
 1078loPI   C3A16233   2.943   1.988   6.514  0.1426  0.2090  0.1705
 1078loPI   C4A16234   3.109   2.222   6.952 -0.1650  0.1597 -0.5647
 1078loPI   C5A16235   3.322   2.136   7.409 -0.0532 -0.1498  0.0099
 1078loPI   C6A16236   3.461   1.781   7.629  0.3323 -0.1570  0.0529
 1078loPI   C1B16237   2.080   2.288   6.018  0.1914  0.1535 -0.1186
 1078loPI   C2B16238   2.002   2.223   6.435 -0.0021  0.1719  0.3541
 1078loPI   C3B16239   1.821   2.170   6.878  0.0845  0.0078 -0.1070
 1078loPI   C4B16240   1.610   2.223   7.261  0.1269  0.4017  0.0039
 1079loPI    C116241  18.151  12.539   4.703 -0.0481 -0.2954  0.0276
 1079loPI    C216242  17.938  12.748   4.435  0.0739  0.0064  0.1616
 1079loPI    C316243  18.338  12.768   4.433  0.0773 -0.0211  0.3412
 1079loPI   PO416244  18.095  12.539   4.962 -0.2434  0.1111 -0.0945
 1079loPI   GL116245  18.001  12.776   5.331  0.0801  0.2017 -0.0847
 1079loPI   GL216246  18.202  13.017   5.390 -0.1398 -0.1268 -0.0899
 1079loPI   C1A16247  17.788  12.833   5.822 -0.3806 -0.0798 -0.2712
 1079loPI   C2A16248  17.697  13.100   6.207  0.0905 -0.0501 -0.0021
 1079loPI   C3A16249  17.634  13.219   6.591 -0.1333 -0.0199  0.2238
 1079loPI   C4A16250  17.531  13.453   6.884 -0.1152  0.1816  0.2368
 1079loPI   C5A16251  17.265  13.495   7.257 -0.0542 -0.2804 -0.2904
 1079loPI   C6A16252  17.034  13.333   7.614 -0.0310 -0.2481  0.0898
 1079loPI   C1B16253  18.268  12.745   5.751  0.2778 -0.2497 -0.1559
 1079loPI   C2B16254  18.175  12.866   6.151 -0.1973 -0.2698 -0.1782
 1079loPI   C3B16255  18.059  12.776   6.628 -0.1328  0.0672 -0.0664
 1079loPI   C4B16256  18.238  12.627   6.994 -0.2788 -0.2133 -0.0641
 1080loPI    C116257  16.052   5.577   4.838  0.2492 -0.1891  0.1850
 1080loPI    C216258  16.399   5.398   4.751  0.1832 -0.1612 -0.1477
 1080loPI    C316259  16.292   5.732   4.559 -0.0075 -0.1438 -0.0143
 1080loPI   PO416260  15.985   5.430   5.089 -0.1857 -0.0796 -0.0920
 1080loPI   GL116261  16.039   5.367   5.507 -0.1041 -0.0303 -0.1349
 1080loPI   GL216262  16.378   5.199   5.352  0.1824 -0.0747  0.0377
 1080loPI   C1A16263  15.735   5.291   5.868 -0.1463  0.2197 -0.0033
 1080loPI   C2A16264  15.665   5.334   6.300 -0.1549  0.0363  0.0490
 1080loPI   C3A16265  15.668   5.054   6.709 -0.2289  0.2634 -0.0641
 1080loPI   C4A16266  15.986   4.755   6.763 -0.0227 -0.0275  0.4792
 1080loPI   C5A16267  16.020   4.751   7.094 -0.0798 -0.0757  0.0031
 1080loPI   C6A16268  16.213   5.061   7.287  0.0797  0.1241  0.1183
 1080loPI   C1B16269  16.471   5.562   5.676  0.1239  0.0796  0.0364
 1080loPI   C2B16270  16.743   5.487   6.017 -0.1049  0.0914  0.1093
 1080loPI   C3B16271  16.777   5.377   6.463 -0.0442 -0.1093  0.2958
 1080loPI   C4B16272  16.900   5.272   6.873 -0.0798 -0.2128 -0.1223
 1081loPI    C116273   0.078   2.080   4.863  0.0210 -0.2262 -0.1957
 1081loPI    C216274  -0.205   2.261   4.646  0.0429 -0.0717 -0.0964
 1081loPI    C316275   0.089   2.062   4.463 -0.0639 -0.1333 -0.2026
 1081loPI   PO416276  -0.117   1.981   5.037 -0.0849 -0.1555 -0.1526
 1081loPI   GL116277  -0.293   1.605   5.244 -0.1650 -0.0070 -0.2904
 1081loPI   GL216278  -0.396   1.858   5.487  0.1172 -0.0493 -0.1296
 1081loPI   C1A16279  -0.278   1.400   5.697 -0.1074  0.3788  0.0112
 1081loPI   C2A16280  -0.152   1.523   6.128  0.2606  0.0337 -0.0765
 1081loPI   C3A16281  -0.368   1.531   6.618 -0.3801  0.2114 -0.1150
 1081loPI   C4A16282  -0.347   1.498   7.097 -0.0915 -0.0773  0.1312
 1081loPI   C5A16283  -0.522   1.584   7.415  0.0862  0.0613 -0.3002
 1081loPI   C6A16284  -0.565   1.786   7.790  0.0886  0.0588 -0.0995
 1081loPI   C1B16285  -0.319   1.949   5.924 -0.3340 -0.1596  0.4894
 1081loPI   C2B16286  -0.395   1.956   6.293 -0.2269  0.2140 -0.1064
 1081loPI   C3B16287  -0.379   1.999   6.737  0.0529 -0.0364 -0.1361
 1081loPI   C4B16288  -0.274   2.023   7.240 -0.0771 -0.1842  0.3409
 1082loPI    C116289  11.090   4.247   4.790 -0.0849  0.0937  0.0056
 1082loPI    C216290  10.951   4.291   4.417 -0.1586 -0.0998  0.0092
 1082loPI    C316291  11.345   4.265   4.482 -0.1281  0.2289 -0.0233
 1082loPI   PO416292  11.019   4.350   4.898  0.0947  0.0766 -0.1506
 1082loPI   GL116293  11.136   4.720   5.151 -0.0950  0.1988  0.1284
 1082loPI   GL216294  10.898   4.806   5.112 -0.1461  0.0475  0.0685
 1082loPI   C1A16295  11.304   4.622   5.632  0.0708 -0.0076  0.0160
 1082loPI   C2A16296  11.317   4.577   6.063 -0.0079 -0.1259 -0.1004
 1082loPI   C3A16297  11.087   4.375   6.308  0.1893  0.5204 -0.1666
 1082loPI   C4A16298  11.239   4.224   6.778  0.1460 -0.0811  0.1927
 1082loPI   C5A16299  11.465   4.505   7.050 -0.2363 -0.0229 -0.1370
 1082loPI   C6A16300  11.740   4.437   7.296 -0.1994 -0.0032  0.0379
 1082loPI   C1B16301  10.829   4.831   5.535  0.0234 -0.1336 -0.1941
 1082loPI   C2B16302  10.826   4.775   5.928 -0.0398  0.2599  0.0017
 1082loPI   C3B16303  10.961   4.910   6.439 -0.0581  0.0277 -0.1249
 1082loPI   C4B16304  11.215   4.700   6.645  0.0784  0.2593  0.0422
 1083loPI    C116305   2.215   9.866   4.871  0.0413  0.0666 -0.0140
 1083loPI    C216306   2.600   9.885   4.767  0.0274 -0.3016 -0.1478
 1083loPI    C316307   2.339  10.147   4.615  0.2498  0.0616  0.0791
 1083loPI   PO416308   2.134   9.934   5.134  0.2858 -0.0816 -0.0438
 1083loPI   GL116309   2.141  10.088   5.505  0.2818  0.1644 -0.1951
 1083loPI   GL216310   2.410  10.198   5.455 -0.0091 -0.1536  0.0696
 1083loPI   C1A16311   1.924   9.847   5.817  0.1065  0.2627 -0.0446
 1083loPI   C2A16312   1.949   9.553   6.196 -0.1407  0.1978  0.0667
 1083loPI   C3A16313   1.981   9.370   6.563 -0.1839 -0.0674 -0.3445
 1083loPI   C4A16314   2.266   9.160   6.748  0.0102  0.1309 -0.0356
 1083loPI   C5A16315   2.397   9.185   7.121  0.3956  0.2783 -0.1024
 1083loPI   C6A16316   2.300   9.570   7.429 -0.3339  0.1211  0.3637
 1083loPI   C1B16317   2.625  10.255   5.754  0.0604  0.0384  0.1238
 1083loPI   C2B16318   2.629  10.615   6.017  0.0675 -0.0435 -0.1982
 1083loPI   C3B16319   2.291  10.755   6.264  0.0965 -0.3217  0.0929
 1083loPI   C4B16320   2.134  10.939   6.596  0.2072 -0.0763 -0.0579
 1084loPI    C116321   0.313  16.625   5.051  0.0451  0.3145  0.0618
 1084loPI    C216322   0.076  16.342   4.898  0.3841  0.0473  0.0200
 1084loPI    C316323   0.229  16.624   4.660  0.1985  0.1558  0.0280
 1084loPI   PO416324   0.464  16.507   5.205  0.0438  0.0476 -0.3640
 1084loPI   GL116325   0.414  16.031   5.214  0.3619  0.0290 -0.1462
 1084loPI   GL216326   0.140  15.934   5.249  0.1129 -0.0737 -0.0159
 1084loPI   C1A16327   0.497  15.940   5.648  0.1404 -0.0040 -0.2154
 1084loPI   C2A16328   0.454  15.992   6.119 -0.2624  0.2883 -0.1635
 1084loPI   C3A16329   0.203  16.078   6.511  0.0041  0.1451  0.1665
 1084loPI   C4A16330   0.036  16.251   6.881 -0.0768 -0.1301 -0.0461
 1084loPI   C5A16331  -0.075  16.124   7.311  0.1714  0.1613  0.0007
 1084loPI   C6A16332  -0.283  15.984   7.547 -0.2267 -0.1106 -0.0720
 1084loPI   C1B16333   0.040  15.978   5.708 -0.2174  0.1790  0.3270
 1084loPI   C2B16334  -0.037  16.034   6.059 -0.3228  0.0447  0.0411
 1084loPI   C3B16335  -0.368  16.301   6.196 -0.1455  0.0478  0.1455
 1084loPI   C4B16336  -0.727  16.425   5.975  0.0134  0.0777  0.0686
 1085loPI    C116337   5.416  14.624   5.013  0.1345 -0.1164  0.1155
 1085loPI    C216338   5.641  14.464   4.724 -0.0191  0.0284 -0.0870
 1085loPI    C316339   5.244  14.421   4.715 -0.0546  0.3349 -0.0914
 1085loPI   PO416340   5.614  14.827   5.115  0.1334  0.1073 -0.1061
 1085loPI   GL116341   5.709  15.099   5.379  0.0976  0.1917 -0.0839
 1085loPI   GL216342   5.943  15.028   5.585  0.1481  0.3195 -0.1386
 1085loPI   C1A16343   5.451  15.101   5.779  0.2676 -0.0628  0.4193
 1085loPI   C2A16344   5.329  14.970   6.139 -0.2493 -0.0449 -0.0255
 1085loPI   C3A16345   5.223  14.897   6.525  0.3000  0.2911 -0.0631
 1085loPI   C4A16346   5.160  14.806   6.843  0.1677 -0.0209 -0.1243
 1085loPI   C5A16347   5.028  14.644   7.176  0.3086 -0.3285  0.2099
 1085loPI   C6A16348   4.736  14.264   7.284 -0.2073  0.2713 -0.1287
 1085loPI   C1B16349   5.889  15.095   6.092  0.3792  0.0449  0.1896
 1085loPI   C2B16350   5.985  15.161   6.472 -0.1226  0.0024 -0.2811
 1085loPI   C3B16351   5.935  15.354   6.901 -0.0671  0.0317  0.0636
 1085loPI   C4B16352   5.658  15.539   7.103  0.0362  0.0506  0.1103
 1086loPI    C116353   2.276  16.728   4.918 -0.0218 -0.1676 -0.1136
 1086loPI    C216354   2.371  16.911   4.575 -0.2910 -0.0172 -0.1104
 1086loPI    C316355   2.091  16.625   4.578 -0.0466 -0.2595 -0.0724
 1086loPI   PO416356   2.385  16.993   5.080  0.1939 -0.1521 -0.2760
 1086loPI   GL116357   2.374  17.206   5.540 -0.0585  0.2277 -0.1325
 1086loPI   GL216358   2.155  17.081   5.700  0.4620 -0.3346 -0.1645
 1086loPI   C1A16359   2.645  17.293   5.939 -0.0545 -0.0029 -0.1236
 1086loPI   C2A16360   2.495  17.618   6.207 -0.1537  0.2810  0.1666
 1086loPI   C3A16361   2.524  17.736   6.572  0.2092  0.4312 -0.0855
 1086loPI   C4A16362   2.201  17.963   6.873 -0.2364  0.3645 -0.0292
 1086loPI   C5A16363   2.011  17.950   7.311 -0.3557 -0.2511  0.2902
 1086loPI   C6A16364   1.944  18.149   7.702 -0.0805 -0.0824 -0.0832
 1086loPI   C1B16365   1.892  16.821   6.008 -0.0194  0.0091  0.0461
 1086loPI   C2B16366   1.723  16.805   6.411  0.2329 -0.1064  0.1418
 1086loPI   C3B16367   1.467  16.899   6.702 -0.0446  0.0264 -0.0666
 1086loPI   C4B16368   1.057  17.020   6.871 -0.0084  0.2376 -0.0236
 1087loPI    C116369  13.390   9.931   5.036 -0.2159 -0.1361 -0.0833
 1087loPI    C216370  13.247  10.303   5.014 -0.1095 -0.0792  0.1492
 1087loPI    C316371  13.436  10.143   4.700 -0.1868  0.0488  0.0358
 1087loPI   PO416372  13.437   9.870   5.224 -0.4737  0.1424 -0.0472
 1087loPI   GL116373  13.383   9.994   5.627  0.2363 -0.0419 -0.0223
 1087loPI   GL216374  13.087  10.019   5.614 -0.4350  0.1540 -0.1495
 1087loPI   C1A16375  13.541   9.891   6.045  0.0353 -0.2594 -0.0044
 1087loPI   C2A16376  13.390   9.707   6.490 -0.1423  0.0414  0.2009
 1087loPI   C3A16377  13.059   9.720   6.832 -0.2119  0.0176 -0.1797
 1087loPI   C4A16378  13.036   9.732   7.251 -0.2029 -0.3050 -0.0796
 1087loPI   C5A16379  13.156  10.029   7.565 -0.1288  0.3014  0.0166
 1087loPI   C6A16380  13.179  10.385   7.736  0.3730  0.0005 -0.3918
 1087loPI   C1B16381  13.139  10.155   6.018  0.1349 -0.2054  0.0602
 1087loPI   C2B16382  13.348  10.261   6.384 -0.4620 -0.0250  0.1387
 1087loPI   C3B16383  13.376  10.233   6.806 -0.1756  0.0917  0.0374
 1087loPI   C4B16384  13.063  10.277   7.165  0.0532 -0.3521 -0.0092
 1088loPI    C116385   2.909  10.810   4.652  0.3031  0.0267  0.1981
 1088loPI    C216386   2.854  10.416   4.617  0.0158  0.0721  0.1115
 1088loPI    C316387   3.222  10.570   4.589  0.0975 -0.1603 -0.1373
 1088loPI   PO416388   2.826  10.845   4.993  0.1892 -0.2344 -0.1339
 1088loPI   GL116389   2.967  11.097   5.329 -0.0937 -0.0967  0.2719
 1088loPI   GL216390   3.181  11.268   5.338  0.0734  0.2563 -0.0083
 1088loPI   C1A16391   2.933  11.087   5.738 -0.0549  0.1431 -0.0468
 1088loPI   C2A16392   2.917  10.940   6.225  0.2119 -0.3089 -0.1729
 1088loPI   C3A16393   2.651  10.667   6.552 -0.2260 -0.0349  0.1069
 1088loPI   C4A16394   2.345  10.426   6.791  0.0106  0.3221  0.0346
 1088loPI   C5A16395   2.302  10.618   7.228  0.0313 -0.1420  0.5277
 1088loPI   C6A16396   2.010  10.629   7.492  0.0578 -0.0086 -0.0627
 1088loPI   C1B16397   3.119  11.542   5.702 -0.1185  0.0255  0.1184
 1088loPI   C2B16398   2.921  11.457   6.132 -0.0849 -0.0706  0.0092
 1088loPI   C3B16399   2.902  11.564   6.577 -0.1075 -0.1770 -0.3250
 1088loPI   C4B16400   2.771  11.451   6.968  0.1045  0.1006 -0.1491
 1089loPI    C116401   2.735   6.451   5.476  0.0571 -0.1036  0.0053
 1089loPI    C216402   2.951   6.227   5.225  0.0304 -0.0797 -0.0392
 1089loPI    C316403   2.817   6.585   5.108  0.0379 -0.0583  0.0174
 1089loPI   PO416404   2.843   6.435   5.664 -0.2045  0.0844 -0.0735
 1089loPI   GL116405   2.946   6.663   5.913  0.0779 -0.2006 -0.0867
 1089loPI   GL216406   3.155   6.488   6.163  0.2860  0.3136 -0.0075
 1089loPI   C1A16407   3.018   6.977   6.184  0.0491 -0.0367 -0.1549
 1089loPI   C2A16408   2.952   7.088   6.554  0.3418 -0.2178 -0.1732
 1089loPI   C3A16409   2.769   7.034   6.926 -0.0940 -0.0324 -0.3406
 1089loPI   C4A16410   2.492   7.171   7.218  0.1881  0.0865  0.0717
 1089loPI   C5A16411   2.472   6.949   7.624 -0.1062  0.2391 -0.2072
 1089loPI   C6A16412   2.212   6.667   7.662  0.2257 -0.0953 -0.5689
 1089loPI   C1B16413   3.468   6.508   6.545 -0.0359  0.0003  0.1592
 1089loPI   C2B16414   3.623   6.438   6.895 -0.1364  0.1037 -0.1947
 1089loPI   C3B16415   3.967   6.331   7.232  0.3240  0.0291  0.2640
 1089loPI   C4B16416   4.035   6.183   7.555  0.0975 -0.1908 -0.1495
 1090loPI    C116417   8.397   1.691   4.914 -0.0407  0.0460  0.0466
 1090loPI    C216418   8.307   1.960   4.632 -0.1798  0.0716  0.1145
 1090loPI    C316419   8.364   1.577   4.533  0.1485  0.1469 -0.0015
 1090loPI   PO416420   8.294   1.767   5.114 -0.2068  0.1139  0.1273
 1090loPI   GL116421   8.544   1.762   5.399  0.0635  0.0134  0.1327
 1090loPI   GL216422   8.751   1.627   5.545  0.0622 -0.1336  0.4271
 1090loPI   C1A16423   8.507   2.048   5.770 -0.2901  0.2995  0.1558
 1090loPI   C2A16424   8.511   2.284   6.282  0.0142  0.0243  0.0349
 1090loPI   C3A16425   8.484   2.270   6.663  0.1647  0.1093 -0.2635
 1090loPI   C4A16426   8.499   2.302   7.214 -0.1203 -0.0368  0.1853
 1090loPI   C5A16427   8.259   2.391   7.520  0.0623 -0.1293  0.0493
 1090loPI   C6A16428   8.251   2.823   7.635 -0.1630  0.0873  0.1487
 1090loPI   C1B16429   8.566   1.323   5.780  0.0391 -0.3277 -0.1101
 1090loPI   C2B16430   8.475   1.417   6.118  0.0084 -0.4700  0.2543
 1090loPI   C3B16431   8.430   1.421   6.551 -0.1380 -0.0005 -0.3473
 1090loPI   C4B16432   8.160   1.401   6.934 -0.0271 -0.0277 -0.0952
 1091loPI    C116433   5.695   9.950   5.258  0.1298 -0.1339 -0.0353
 1091loPI    C216434   5.899   9.762   4.970 -0.0412 -0.1159 -0.1704
 1091loPI    C316435   5.621  10.033   4.873  0.0997  0.1006  0.0192
 1091loPI   PO416436   5.849   9.965   5.459  0.1454  0.1127 -0.1751
 1091loPI   GL116437   5.651   9.763   5.796  0.2973 -0.1906 -0.1354
 1091loPI   GL216438   5.467   9.655   6.057 -0.0626 -0.0324  0.1893
 1091loPI   C1A16439   5.888   9.866   6.166 -0.1207  0.1207  0.1584
 1091loPI   C2A16440   5.877   9.940   6.615  0.2672  0.4874  0.0913
 1091loPI   C3A16441   6.024   9.856   7.087  0.1164  0.1573 -0.2530
 1091loPI   C4A16442   6.022   9.634   7.528  0.2925 -0.0201 -0.1573
 1091loPI   C5A16443   6.369   9.502   7.777  0.1691 -0.0687  0.1041
 1091loPI   C6A16444   6.612   9.613   8.211  0.0430  0.0928 -0.0682
 1091loPI   C1B16445   5.412   9.983   6.355  0.0917 -0.1065 -0.0220
 1091loPI   C2B16446   5.232  10.162   6.603  0.1361  0.2423 -0.2304
 1091loPI   C3B16447   4.947  10.103   6.743  0.1520  0.0421 -0.3566
 1091loPI   C4B16448   4.559   9.981   7.062  0.4240  0.1697 -0.0692
 1092loPI    C116449   0.349   9.467   5.117 -0.0581  0.0897 -0.3707
 1092loPI    C216450   0.080   9.230   4.939  0.1278 -0.3946 -0.0287
 1092loPI    C316451   0.442   9.279   4.776  0.0336 -0.2062 -0.1861
 1092loPI   PO416452   0.337   9.430   5.404  0.1408  0.0826  0.0989
 1092loPI   GL116453   0.540   9.296   5.661 -0.1629  0.2805  0.2853
 1092loPI   GL216454   0.749   9.380   5.810 -0.1932 -0.0861  0.0986
 1092loPI   C1A16455   0.166   9.013   5.886 -0.3067  0.1871 -0.1172
 1092loPI   C2A16456  -0.158   8.940   6.248  0.2089  0.0094  0.0858
 1092loPI   C3A16457  -0.227   8.930   6.628  0.1972 -0.0204 -0.3282
 1092loPI   C4A16458  -0.299   8.953   7.155 -0.1395 -0.0354  0.2341
 1092loPI   C5A16459  -0.018   9.173   7.436  0.3814 -0.0709 -0.1877
 1092loPI   C6A16460  -0.089   9.586   7.526 -0.1293  0.0590 -0.0035
 1092loPI   C1B16461   1.139   9.212   6.085 -0.2191 -0.1089  0.0651
 1092loPI   C2B16462   1.203   9.047   6.511  0.0483  0.0157 -0.0992
 1092loPI   C3B16463   1.196   8.869   6.839 -0.2110 -0.0660 -0.1016
 1092loPI   C4B16464   1.608   8.693   7.100 -0.0446 -0.1308  0.0459
 1093loPI    C116465  13.557  18.095   4.621 -0.0045 -0.0269 -0.0337
 1093loPI    C216466  13.892  18.278   4.502 -0.0876  0.0533 -0.1463
 1093loPI    C316467  13.632  18.142   4.231 -0.3528  0.3742 -0.0589
 1093loPI   PO416468  13.657  17.994   4.902  0.1952  0.1172 -0.1056
 1093loPI   GL116469  13.608  17.811   5.234 -0.2289  0.0582  0.1258
 1093loPI   GL216470  13.355  17.594   5.224 -0.2361 -0.1373 -0.0102
 1093loPI   C1A16471  13.813  17.767   5.711  0.3021  0.2258 -0.1671
 1093loPI   C2A16472  13.686  17.645   6.168 -0.0291  0.0155  0.0744
 1093loPI   C3A16473  13.581  17.748   6.562 -0.1658 -0.0885 -0.2346
 1093loPI   C4A16474  13.703  17.662   6.936 -0.0173  0.1002 -0.1436
 1093loPI   C5A16475  13.940  17.957   7.249 -0.1552  0.1447 -0.3114
 1093loPI   C6A16476  14.135  18.166   7.540 -0.2343 -0.0717 -0.4623
 1093loPI   C1B16477  13.443  17.480   5.669  0.0357  0.0422 -0.1038
 1093loPI   C2B16478  13.312  17.361   6.158  0.2873  0.1901  0.0124
 1093loPI   C3B16479  13.292  17.289   6.581  0.3708  0.1712  0.2104
 1093loPI   C4B16480  13.255  17.374   7.007  0.0830  0.2870 -0.1250
 1094loPI    C116481   8.545  18.227   5.274 -0.0110 -0.1238  0.0688
 1094loPI    C216482   8.725  18.539   5.099  0.1137 -0.2473 -0.0258
 1094loPI    C316483   8.752  18.175   4.935 -0.1946 -0.2749 -0.0222
 1094loPI   PO416484   8.371  18.268   5.412  0.0717  0.0179  0.0901
 1094loPI   GL116485   8.264  18.480   5.727  0.1398 -0.1104 -0.0173
 1094loPI   GL216486   8.309  18.920   5.848 -0.1202 -0.0602 -0.0251
 1094loPI   C1A16487   8.350  18.418   6.099  0.0394  0.0281  0.0620
 1094loPI   C2A16488   8.156  18.418   6.548 -0.3902 -0.1776  0.1608
 1094loPI   C3A16489   7.966  18.519   7.029  0.1136  0.0842 -0.0884
 1094loPI   C4A16490   7.909  18.636   7.490 -0.2870  0.0113  0.0240
 1094loPI   C5A16491   7.803  18.799   7.859  0.1216 -0.0734 -0.0797
 1094loPI   C6A16492   7.811  18.611   8.250  0.0494 -0.1455  0.1908
 1094loPI   C1B16493   8.126  18.921   6.328  0.0117  0.3575 -0.0428
 1094loPI   C2B16494   7.994  18.886   6.727  0.1447 -0.2682  0.0976
 1094loPI   C3B16495   7.858  19.070   7.076  0.0235 -0.1419 -0.1141
 1094loPI   C4B16496   7.720  19.105   7.400  0.2722  0.0840 -0.1232
 1095loPI    C116497   3.611   8.956   4.933  0.3644 -0.0055 -0.0909
 1095loPI    C216498   3.624   9.255   4.667 -0.1331  0.3107  0.2228
 1095loPI    C316499   3.782   9.304   5.031 -0.2249  0.1949  0.2792
 1095loPI   PO416500   3.339   8.918   5.011 -0.1180 -0.0406 -0.1148
 1095loPI   GL116501   3.072   8.965   5.382  0.0195 -0.0599 -0.3657
 1095loPI   GL216502   2.884   8.905   5.491 -0.1422 -0.2334  0.0994
 1095loPI   C1A16503   3.050   8.951   5.944  0.2169 -0.1636 -0.1020
 1095loPI   C2A16504   3.247   9.029   6.273 -0.1680  0.1852 -0.0440
 1095loPI   C3A16505   3.165   9.065   6.744  0.1303  0.0730 -0.3434
 1095loPI   C4A16506   3.476   9.027   7.084  0.3676 -0.3610  0.0727
 1095loPI   C5A16507   3.772   8.785   7.327 -0.1726 -0.2792 -0.2604
 1095loPI   C6A16508   4.000   8.642   7.630  0.1534 -0.1824 -0.1974
 1095loPI   C1B16509   2.585   8.790   5.780 -0.0923 -0.0490  0.0192
 1095loPI   C2B16510   2.464   8.763   6.282  0.0420 -0.1393  0.0586
 1095loPI   C3B16511   2.363   8.380   6.582 -0.1589  0.0113 -0.0831
 1095loPI   C4B16512   2.434   7.951   6.683 -0.1952 -0.3297 -0.1446
 1096loPI    C116513   0.507  13.207   4.902  0.2055  0.0182  0.0389
 1096loPI    C216514   0.526  13.102   4.516  0.1042  0.1034  0.0103
 1096loPI    C316515   0.364  12.852   4.783  0.4500 -0.0855  0.0489
 1096loPI   PO416516   0.424  13.433   4.975  0.0883 -0.0537 -0.2380
 1096loPI   GL116517   0.311  13.707   5.329  0.3098  0.1844 -0.1734
 1096loPI   GL216518   0.173  13.980   5.325 -0.0051 -0.0178  0.0519
 1096loPI   C1A16519   0.404  13.807   5.737 -0.0235  0.2400 -0.0487
 1096loPI   C2A16520   0.414  13.755   6.169  0.6144  0.1527 -0.4449
 1096loPI   C3A16521   0.261  13.665   6.648 -0.0319 -0.2706  0.4850
 1096loPI   C4A16522   0.120  13.831   6.970 -0.0107  0.0103 -0.0779
 1096loPI   C5A16523   0.132  13.903   7.370 -0.1172  0.1191  0.2056
 1096loPI   C6A16524   0.429  14.011   7.561 -0.1505  0.1625  0.3371
 1096loPI   C1B16525   0.023  14.145   5.782  0.0781  0.1675  0.0215
 1096loPI   C2B16526   0.008  14.231   6.179  0.1886  0.0955 -0.0361
 1096loPI   C3B16527  -0.234  14.260   6.567 -0.1858  0.2066 -0.1354
 1096loPI   C4B16528  -0.422  13.939   6.950  0.1765 -0.1396  0.1055
 1097loPI    C116529  14.277   3.679   4.669  0.0970 -0.2054 -0.0078
 1097loPI    C216530  14.471   3.991   4.512 -0.0638 -0.0027  0.1883
 1097loPI    C316531  14.421   3.657   4.297  0.1930  0.0694  0.0111
 1097loPI   PO416532  14.348   3.604   4.856  0.0290  0.2812  0.0546
 1097loPI   GL116533  14.272   3.709   5.286 -0.1746  0.1467 -0.1516
 1097loPI   GL216534  14.004   3.858   5.301  0.0882  0.3896  0.4294
 1097loPI   C1A16535  14.330   3.353   5.647 -0.2434  0.0427  0.0195
 1097loPI   C2A16536  14.371   3.334   6.104  0.1668 -0.1427  0.0120
 1097loPI   C3A16537  14.457   3.449   6.508 -0.0293  0.0837 -0.1595
 1097loPI   C4A16538  14.454   3.649   6.812  0.1164 -0.1307 -0.0534
 1097loPI   C5A16539  14.286   3.771   7.311  0.0092  0.3042  0.0393
 1097loPI   C6A16540  14.149   4.196   7.231 -0.3296 -0.2407  0.0647
 1097loPI   C1B16541  13.942   3.588   5.657 -0.0309 -0.3140  0.1090
 1097loPI   C2B16542  13.895   3.619   6.043  0.2209  0.4448 -0.0243
 1097loPI   C3B16543  13.971   3.751   6.488  0.0256  0.0482  0.0504
 1097loPI   C4B16544  14.027   3.908   6.845 -0.1617  0.3239 -0.2362
 1098loPI    C116545  16.771   8.535   5.274 -0.1187  0.0642  0.1704
 1098loPI    C216546  16.758   8.884   5.079 -0.0795  0.0438  0.1309
 1098loPI    C316547  16.435   8.649   5.089 -0.0706  0.0286  0.0598
 1098loPI   PO416548  16.875   8.610   5.563 -0.0467  0.2430  0.1717
 1098loPI   GL116549  17.203   8.774   5.790  0.2823  0.1792  0.0429
 1098loPI   GL216550  17.389   8.411   5.635  0.2988  0.3398 -0.1408
 1098loPI   C1A16551  17.195   8.948   6.163  0.0492  0.1993 -0.1368
 1098loPI   C2A16552  17.005   8.720   6.569  0.2263  0.4726 -0.1519
 1098loPI   C3A16553  17.035   8.610   6.954  0.4616  0.2281 -0.0617
 1098loPI   C4A16554  17.333   8.336   7.172  0.0149  0.0693  0.1372
 1098loPI   C5A16555  17.491   8.189   7.545  0.2479 -0.1092 -0.0856
 1098loPI   C6A16556  17.549   8.053   7.869 -0.2690  0.2337 -0.1680
 1098loPI   C1B16557  17.355   8.477   6.078  0.1425  0.1809 -0.0114
 1098loPI   C2B16558  17.345   8.296   6.538  0.0551  0.1990 -0.2425
 1098loPI   C3B16559  17.027   8.092   6.853  0.0355  0.1759 -0.0309
 1098loPI   C4B16560  17.054   7.876   7.299  0.2314  0.1222  0.1643
 1099loPI    C116561  15.780   4.402   4.924 -0.2707  0.0955  0.1274
 1099loPI    C216562  15.691   4.748   4.745  0.2069  0.1803  0.0405
 1099loPI    C316563  15.814   4.436   4.527 -0.1377 -0.0209  0.1280
 1099loPI   PO416564  15.943   4.415   5.095 -0.2776 -0.0437  0.0266
 1099loPI   GL116565  16.347   4.297   5.211  0.2568 -0.3253 -0.0342
 1099loPI   GL216566  16.299   4.652   5.378  0.2066 -0.0911  0.0615
 1099loPI   C1A16567  16.429   4.079   5.715 -0.1603 -0.2251  0.0072
 1099loPI   C2A16568  16.370   4.060   6.105  0.0170  0.2302 -0.0125
 1099loPI   C3A16569  16.278   3.918   6.505 -0.0496 -0.2418 -0.1817
 1099loPI   C4A16570  16.176   3.904   6.979  0.2282 -0.2139  0.1926
 1099loPI   C5A16571  16.134   3.979   7.419  0.0432 -0.0558  0.0899
 1099loPI   C6A16572  16.036   4.534   7.595  0.3003 -0.0250 -0.2048
 1099loPI   C1B16573  16.310   4.544   5.870 -0.0147  0.1723  0.0936
 1099loPI   C2B16574  16.455   4.537   6.329  0.5383 -0.1756  0.2233
 1099loPI   C3B16575  16.356   4.401   6.694 -0.3164 -0.0584 -0.1355
 1099loPI   C4B16576  16.302   4.366   7.122  0.3952 -0.0075  0.2448
 1100loPI    C116577   0.822  17.247   5.002 -0.1762 -0.1584 -0.2685
 1100loPI    C216578   0.680  16.936   5.209  0.0377 -0.0917 -0.0167
 1100loPI    C316579   0.563  16.995   4.831 -0.0737 -0.4250 -0.0368
 1100loPI   PO416580   1.041  17.299   5.155 -0.1797 -0.0001  0.1573
 1100loPI   GL116581   1.171  17.096   5.474 -0.6403  0.1414 -0.1617
 1100loPI   GL216582   1.493  17.167   5.456  0.2970  0.1125  0.4518
 1100loPI   C1A16583   0.859  16.974   5.736  0.1249  0.1015  0.1950
 1100loPI   C2A16584   0.595  16.885   6.189 -0.1950 -0.0669 -0.2939
 1100loPI   C3A16585   0.630  17.094   6.620  0.3808 -0.0763 -0.0703
 1100loPI   C4A16586   0.682  17.248   7.077  0.2634  0.1342 -0.2206
 1100loPI   C5A16587   0.403  17.312   7.339 -0.2484  0.4168 -0.3317
 1100loPI   C6A16588   0.441  17.679   7.758 -0.0520 -0.0697  0.1307
 1100loPI   C1B16589   1.665  17.210   5.844  0.2697  0.0161  0.0533
 1100loPI   C2B16590   1.566  17.323   6.325  0.1845  0.2802 -0.1281
 1100loPI   C3B16591   1.522  17.461   6.679 -0.1447  0.1564 -0.1056
 1100loPI   C4B16592   1.626  17.755   7.005 -0.0440  0.3578 -0.0600
 1101loPI    C116593   1.656  16.872   4.608  0.0639  0.1246 -0.1500
 1101loPI    C216594   1.286  16.725   4.569  0.0603  0.0710  0.0692
 1101loPI    C316595   1.390  17.060   4.376  0.0129 -0.1152 -0.2887
 1101loPI   PO416596   1.676  16.690   4.885  0.1592  0.0313  0.2727
 1101loPI   GL116597   1.520  16.635   5.445 -0.1074 -0.0734 -0.2952
 1101loPI   GL216598   1.779  16.539   5.634  0.0841  0.4188 -0.2107
 1101loPI   C1A16599   1.339  16.748   5.816  0.4350 -0.2092  0.0072
 1101loPI   C2A16600   1.183  16.820   6.161  0.1827  0.5234  0.1494
 1101loPI   C3A16601   0.926  16.679   6.495  0.1172  0.0443 -0.3144
 1101loPI   C4A16602   0.841  16.606   6.930  0.0642  0.2816  0.2689
 1101loPI   C5A16603   0.700  16.807   7.314 -0.2504 -0.2184 -0.2091
 1101loPI   C6A16604   0.189  16.831   7.462 -0.0475  0.2276 -0.1810
 1101loPI   C1B16605   1.660  16.417   6.044  0.0383  0.1011 -0.2438
 1101loPI   C2B16606   1.330  16.404   6.339  0.0360 -0.0783  0.0266
 1101loPI   C3B16607   1.227  16.359   6.727 -0.1136 -0.1762  0.2056
 1101loPI   C4B16608   1.433  16.073   7.019  0.0070  0.0804 -0.0049
 1102loPI    C116609  16.242   0.572   4.727  0.1284  0.1100  0.0407
 1102loPI    C216610  16.033   0.518   4.390  0.1783 -0.0696  0.0372
 1102loPI    C316611  16.099   0.888   4.527 -0.1576 -0.0103  0.0494
 1102loPI   PO416612  16.156   0.456   4.950  0.1886 -0.0943  0.0908
 1102loPI   GL116613  15.923   0.462   5.212 -0.0576  0.3688 -0.0051
 1102loPI   GL216614  16.123   0.558   5.407  0.1830  0.1722  0.0954
 1102loPI   C1A16615  15.604   0.356   5.560  0.0157 -0.2490  0.0849
 1102loPI   C2A16616  15.516   0.343   5.923  0.0907  0.1884  0.1762
 1102loPI   C3A16617  15.410   0.298   6.373  0.0323  0.1039  0.3182
 1102loPI   C4A16618  15.409   0.167   6.803 -0.0892 -0.2734  0.0443
 1102loPI   C5A16619  15.461  -0.192   7.110 -0.0045 -0.2853 -0.0491
 1102loPI   C6A16620  15.329  -0.611   7.011 -0.1469 -0.1205  0.4894
 1102loPI   C1B16621  15.955   0.785   5.801  0.0078 -0.1361  0.1376
 1102loPI   C2B16622  15.747   0.728   6.094 -0.4052 -0.3474  0.0219
 1102loPI   C3B16623  15.399   0.739   6.326 -0.0432 -0.0839 -0.0034
 1102loPI   C4B16624  15.173   1.017   6.552  0.3389  0.1942  0.4549
 1103loPI    C116625   3.234   7.229   5.484  0.0914  0.2220 -0.0740
 1103loPI    C216626   3.450   7.564   5.445  0.2249  0.1385 -0.0574
 1103loPI    C316627   3.308   7.379   5.120  0.4694  0.0058 -0.0913
 1103loPI   PO416628   3.387   7.129   5.680 -0.1875 -0.4401 -0.2215
 1103loPI   GL116629   3.525   7.258   6.120  0.1107 -0.1454  0.0522
 1103loPI   GL216630   3.584   6.948   6.171 -0.1988  0.0169 -0.0020
 1103loPI   C1A16631   3.457   7.550   6.438  0.1098 -0.1362  0.0586
 1103loPI   C2A16632   3.141   7.498   6.803 -0.0427 -0.3886  0.1082
 1103loPI   C3A16633   3.039   7.354   7.215 -0.0231  0.0455  0.3619
 1103loPI   C4A16634   3.013   7.625   7.562 -0.0403  0.2707  0.1274
 1103loPI   C5A16635   2.705   7.925   7.699  0.3058 -0.1188  0.1570
 1103loPI   C6A16636   2.459   8.006   8.062 -0.1804 -0.0011  0.1827
 1103loPI   C1B16637   3.473   6.971   6.506 -0.0306  0.1915 -0.1713
 1103loPI   C2B16638   3.532   7.183   6.796  0.1095  0.2413 -0.2978
 1103loPI   C3B16639   3.508   7.511   7.218 -0.4891 -0.0702 -0.1248
 1103loPI   C4B16640   3.604   7.852   7.410  0.5061 -0.1180  0.1542
 1104loPI    C116641   3.135  13.271   4.819 -0.0068 -0.1360  0.1240
 1104loPI    C216642   3.510  13.317   4.687 -0.0465  0.0175  0.0621
 1104loPI    C316643   3.217  13.230   4.429 -0.0334 -0.2298  0.1281
 1104loPI   PO416644   3.211  13.002   5.025  0.2224 -0.2029  0.2387
 1104loPI   GL116645   3.226  12.909   5.451 -0.1043  0.2492  0.3897
 1104loPI   GL216646   2.884  12.695   5.214 -0.0487  0.2073 -0.1712
 1104loPI   C1A16647   2.994  12.997   5.854  0.2224  0.1615 -0.0041
 1104loPI   C2A16648   3.056  13.042   6.300 -0.2728  0.0728  0.0645
 1104loPI   C3A16649   3.118  13.280   6.673  0.1216 -0.0143 -0.1864
 1104loPI   C4A16650   2.902  13.213   7.015  0.2790  0.1063  0.2783
 1104loPI   C5A16651   2.708  13.018   7.384 -0.1130 -0.0615  0.1567
 1104loPI   C6A16652   2.323  12.872   7.562  0.1554  0.0065 -0.2059
 1104loPI   C1B16653   2.805  12.656   5.623  0.0958 -0.3596  0.1633
 1104loPI   C2B16654   2.607  12.847   6.183  0.1800 -0.1696 -0.0112
 1104loPI   C3B16655   2.650  12.986   6.556 -0.2350 -0.2500 -0.0806
 1104loPI   C4B16656   2.405  13.021   6.919  0.0480  0.1245 -0.1820
 1105loPI    C116657   0.927   1.072   4.786 -0.0366 -0.2360 -0.0626
 1105loPI    C216658   1.194   1.369   4.799  0.1894 -0.4396  0.0457
 1105loPI    C316659   1.135   1.168   4.458  0.0213 -0.2603 -0.0332
 1105loPI   PO416660   0.945   1.041   5.033 -0.0623  0.3916  0.0501
 1105loPI   GL116661   0.756   1.273   5.441 -0.2606  0.0382 -0.0676
 1105loPI   GL216662   1.081   1.467   5.427 -0.1851 -0.3324 -0.1141
 1105loPI   C1A16663   0.620   1.109   5.844 -0.1877  0.0078 -0.1709
 1105loPI   C2A16664   0.502   1.172   6.290  0.1151  0.0053 -0.0787
 1105loPI   C3A16665   0.170   1.384   6.504  0.2089  0.3007 -0.0043
 1105loPI   C4A16666  -0.136   1.094   6.753  0.2186  0.1281 -0.1709
 1105loPI   C5A16667  -0.427   1.000   7.020  0.0727 -0.1382  0.2609
 1105loPI   C6A16668  -0.528   0.994   7.438 -0.1411 -0.4697  0.3921
 1105loPI   C1B16669   1.060   1.335   5.877 -0.2159 -0.0771 -0.0812
 1105loPI   C2B16670   0.915   1.423   6.368 -0.3398 -0.2273  0.3545
 1105loPI   C3B16671   1.179   1.272   6.698 -0.0357  0.0545 -0.1560
 1105loPI   C4B16672   1.205   1.442   7.122  0.2096  0.0507  0.2904
 1106loPI    C116673   5.459   4.483   4.977  0.0558 -0.2422  0.0263
 1106loPI    C216674   5.730   4.607   4.711  0.1306 -0.1718  0.1345
 1106loPI    C316675   5.450   4.343   4.603 -0.0619  0.1262 -0.1136
 1106loPI   PO416676   5.329   4.726   5.162  0.2682  0.1330 -0.3842
 1106loPI   GL116677   5.079   4.612   5.600 -0.0038 -0.0371 -0.1294
 1106loPI   GL216678   4.837   4.458   5.701  0.0897  0.1950  0.0658
 1106loPI   C1A16679   5.243   4.699   6.033 -0.1662  0.2087  0.0312
 1106loPI   C2A16680   5.505   4.614   6.322 -0.0054 -0.3469 -0.1039
 1106loPI   C3A16681   5.624   4.723   6.708  0.1912 -0.0421  0.0394
 1106loPI   C4A16682   6.028   4.748   7.021 -0.0503  0.0669  0.2598
 1106loPI   C5A16683   6.080   5.083   7.312 -0.0950  0.0055  0.3700
 1106loPI   C6A16684   6.346   5.206   7.629  0.1817  0.0571  0.2177
 1106loPI   C1B16685   4.915   4.369   6.155 -0.1728 -0.1952  0.1209
 1106loPI   C2B16686   4.865   4.191   6.567  0.2162 -0.1773 -0.0759
 1106loPI   C3B16687   4.821   4.315   6.937  0.0976  0.0315  0.1272
 1106loPI   C4B16688   4.536   4.478   7.244  0.0539  0.2428  0.2559
 1107loPI    C116689   5.683   2.399   5.195  0.3237  0.0273 -0.0523
 1107loPI    C216690   5.659   2.376   4.797 -0.1562  0.1315 -0.0366
 1107loPI    C316691   5.533   2.071   5.022 -0.3774  0.2795  0.0429
 1107loPI   PO416692   6.021   2.518   5.280 -0.3142  0.1285  0.1797
 1107loPI   GL116693   6.127   2.480   5.731 -0.3761  0.0425  0.3135
 1107loPI   GL216694   6.307   2.680   5.940 -0.0794 -0.1382  0.0551
 1107loPI   C1A16695   5.997   2.355   6.208  0.0892 -0.3379 -0.2063
 1107loPI   C2A16696   5.985   2.448   6.619  0.1413 -0.0568  0.3691
 1107loPI   C3A16697   6.005   2.392   7.035  0.0298  0.0101 -0.0181
 1107loPI   C4A16698   5.915   2.488   7.415 -0.0491  0.2373  0.2226
 1107loPI   C5A16699   5.686   2.617   7.602  0.0187 -0.0753  0.2470
 1107loPI   C6A16700   5.397   2.809   7.902  0.0977  0.1188  0.0616
 1107loPI   C1B16701   6.367   2.770   6.399  0.2296 -0.0564  0.2650
 1107loPI   C2B16702   6.565   3.075   6.740 -0.1142  0.1950 -0.0220
 1107loPI   C3B16703   6.421   3.512   6.631  0.0329 -0.0521  0.0618
 1107loPI   C4B16704   6.241   3.880   6.684 -0.1596 -0.0680 -0.1457
 1108loPI    C116705   1.978  18.445   5.151  0.0545 -0.1269 -0.2619
 1108loPI    C216706   1.744  18.704   4.954  0.2069  0.2326  0.0174
 1108loPI    C316707   2.141  18.753   4.953  0.2541 -0.1228 -0.0944
 1108loPI   PO416708   1.804  18.400   5.330 -0.1843 -0.0019  0.2072
 1108loPI   GL116709   1.854  18.205   5.738 -0.0238 -0.1424 -0.2773
 1108loPI   GL216710   1.990  18.476   5.835  0.0585 -0.2627  0.0458
 1108loPI   C1A16711   1.504  18.286   6.033 -0.3152  0.1199 -0.0917
 1108loPI   C2A16712   1.558  18.395   6.389 -0.0429  0.1831 -0.0739
 1108loPI   C3A16713   1.422  18.592   6.806 -0.1118 -0.1395  0.2962
 1108loPI   C4A16714   1.360  19.019   7.026  0.0707  0.0001  0.0585
 1108loPI   C5A16715   1.093  19.400   7.208 -0.0290  0.0490  0.0345
 1108loPI   C6A16716   0.665  19.444   7.271 -0.2662  0.0051  0.0643
 1108loPI   C1B16717   1.838  18.753   6.162  0.0985  0.1077  0.0952
 1108loPI   C2B16718   1.841  18.843   6.693  0.0797 -0.2159  0.0869
 1108loPI   C3B16719   1.760  18.745   7.120  0.2387  0.1625  0.0010
 1108loPI   C4B16720   1.761  18.618   7.591  0.3760  0.0874  0.2068
 1109loPI    C116721   9.771  10.887   5.001 -0.1156  0.3811 -0.0822
 1109loPI    C216722   9.816  11.012   4.623  0.2203  0.0351 -0.1636
 1109loPI    C316723  10.094  11.099   4.898  0.1070  0.0629 -0.0567
 1109loPI   PO416724   9.584  10.898   5.109  0.2170 -0.0326  0.0972
 1109loPI   GL116725   9.735  11.067   5.598  0.1303 -0.0858 -0.2056
 1109loPI   GL216726   9.783  11.444   5.569 -0.0035  0.0628  0.0811
 1109loPI   C1A16727   9.658  10.942   6.003  0.0379  0.0556  0.1105
 1109loPI   C2A16728   9.621  10.958   6.349  0.3906 -0.2449  0.2644
 1109loPI   C3A16729   9.470  10.989   6.713 -0.3498 -0.1016  0.0510
 1109loPI   C4A16730   9.554  11.109   7.154 -0.0030 -0.2353  0.0232
 1109loPI   C5A16731   9.381  11.265   7.579  0.1897 -0.0557  0.0831
 1109loPI   C6A16732   9.266  11.676   7.731 -0.2250  0.0503 -0.1643
 1109loPI   C1B16733   9.660  11.472   5.988 -0.1492  0.1079  0.0961
 1109loPI   C2B16734   9.421  11.446   6.422 -0.0537 -0.0641 -0.2908
 1109loPI   C3B16735   9.450  11.512   6.830  0.2541 -0.0191  0.0120
 1109loPI   C4B16736   9.659  11.616   7.204 -0.2108  0.6036 -0.0403
 1110loPI    C116737  14.261  16.857   4.743  0.1273 -0.0570  0.2391
 1110loPI    C216738  14.151  16.484   4.649 -0.0471 -0.0335  0.3460
 1110loPI    C316739  14.514  16.616   4.547 -0.1480 -0.0800 -0.0979
 1110loPI   PO416740  14.200  16.893   5.050 -0.2098  0.2428  0.1544
 1110loPI   GL116741  14.421  16.804   5.397  0.1974 -0.1103 -0.2408
 1110loPI   GL216742  14.347  17.210   5.419  0.2790  0.3832  0.1509
 1110loPI   C1A16743  14.470  16.970   5.903  0.0778 -0.2975 -0.1924
 1110loPI   C2A16744  14.570  17.065   6.320 -0.1552 -0.1729 -0.7649
 1110loPI   C3A16745  14.413  17.098   6.636 -0.2136 -0.0074  0.0538
 1110loPI   C4A16746  14.418  17.074   7.012 -0.1099  0.0762 -0.0237
 1110loPI   C5A16747  14.188  16.995   7.364  0.0465 -0.2031 -0.1060
 1110loPI   C6A16748  13.828  16.782   7.373  0.0827  0.0369 -0.2612
 1110loPI   C1B16749  14.049  17.333   5.818 -0.0449 -0.1949 -0.0340
 1110loPI   C2B16750  14.178  17.363   6.247  0.0950  0.0932  0.0346
 1110loPI   C3B16751  14.180  17.554   6.638  0.0596 -0.0255 -0.0518
 1110loPI   C4B16752  14.440  17.546   6.990  0.1090 -0.0169  0.1043
 1111loPI    C116753  17.060  17.483   4.645 -0.0869  0.0085  0.3266
 1111loPI    C216754  16.724  17.346   4.476  0.1347 -0.1583  0.0102
 1111loPI    C316755  17.000  17.529   4.252  0.2210  0.0523  0.2822
 1111loPI   PO416756  16.984  17.588   4.875  0.2153  0.2554  0.0745
 1111loPI   GL116757  17.096  17.445   5.223 -0.0731  0.2587  0.2652
 1111loPI   GL216758  17.378  17.391   5.484 -0.0701 -0.0989 -0.1223
 1111loPI   C1A16759  16.962  17.294   5.649  0.5780 -0.0213  0.0317
 1111loPI   C2A16760  16.828  17.323   6.004 -0.0238  0.0419 -0.4885
 1111loPI   C3A16761  16.673  17.224   6.352  0.0785 -0.3602  0.0888
 1111loPI   C4A16762  16.667  17.230   6.843  0.0518 -0.0849  0.3282
 1111loPI   C5A16763  16.500  17.455   7.262  0.0775  0.4177 -0.1400
 1111loPI   C6A16764  16.706  17.719   7.626 -0.1046  0.2369  0.1454
 1111loPI   C1B16765  17.349  17.510   5.837 -0.3180 -0.2786  0.1728
 1111loPI   C2B16766  17.321  17.473   6.300  0.2409 -0.1561  0.1765
 1111loPI   C3B16767  17.173  17.398   6.769  0.1205  0.3017  0.0197
 1111loPI   C4B16768  17.199  17.401   7.182 -0.0376  0.0106 -0.1533
 1112loPI    C116769   1.016  13.939   4.778  0.0317 -0.0518 -0.1062
 1112loPI    C216770   0.877  13.570   4.709 -0.1068  0.0225 -0.2315
 1112loPI    C316771   1.004  13.796   4.404  0.1279  0.0204 -0.1373
 1112loPI   PO416772   1.105  13.940   5.063 -0.2924  0.1398  0.2815
 1112loPI   GL116773   0.913  13.807   5.489 -0.2263  0.0549 -0.0275
 1112loPI   GL216774   1.248  13.655   5.455  0.1903  0.1336 -0.1152
 1112loPI   C1A16775   0.915  13.795   5.988 -0.0339 -0.1284  0.2203
 1112loPI   C2A16776   0.832  13.958   6.397  0.1539 -0.2348  0.1001
 1112loPI   C3A16777   0.711  13.916   6.791 -0.0926  0.0405  0.0151
 1112loPI   C4A16778   0.599  13.698   7.195  0.0525 -0.2326 -0.0912
 1112loPI   C5A16779   0.364  13.474   7.488  0.1019  0.4874 -0.2192
 1112loPI   C6A16780  -0.002  13.339   7.744 -0.0208 -0.1152 -0.2794
 1112loPI   C1B16781   1.448  13.893   5.823  0.0708  0.2944  0.1333
 1112loPI   C2B16782   1.434  14.043   6.182 -0.1922  0.0877 -0.3267
 1112loPI   C3B16783   1.361  14.023   6.709  0.0476 -0.0665 -0.2079
 1112loPI   C4B16784   1.113  14.100   7.095  0.3108  0.0090 -0.0263
 1113loPI    C116785   5.676  11.898   4.698 -0.0901  0.1442 -0.1217
 1113loPI    C216786   5.982  11.670   4.579  0.0850  0.2904  0.0422
 1113loPI    C316787   5.794  11.905   4.316  0.0069  0.0796 -0.0933
 1113loPI   PO416788   5.566  11.695   4.881 -0.1434  0.1507  0.0831
 1113loPI   GL116789   5.488  11.657   5.303 -0.0209 -0.2329  0.1035
 1113loPI   GL216790   5.343  11.770   5.542 -0.1551  0.2550  0.1809
 1113loPI   C1A16791   5.725  11.536   5.630 -0.5087  0.1294  0.3338
 1113loPI   C2A16792   5.910  11.251   5.921  0.2910 -0.2796  0.0794
 1113loPI   C3A16793   6.028  11.358   6.366 -0.4160 -0.2541 -0.4536
 1113loPI   C4A16794   6.187  11.751   6.496 -0.1929  0.1800 -0.0887
 1113loPI   C5A16795   6.222  12.083   6.771 -0.1338  0.2420  0.0477
 1113loPI   C6A16796   6.153  12.318   7.165  0.1049 -0.2550 -0.3354
 1113loPI   C1B16797   5.355  11.994   5.934  0.0984 -0.1514  0.2350
 1113loPI   C2B16798   5.328  11.990   6.351 -0.0203 -0.0636 -0.5532
 1113loPI   C3B16799   5.285  11.869   6.740 -0.0041  0.0199 -0.3419
 1113loPI   C4B16800   5.258  11.467   6.803 -0.3430 -0.0642 -0.1615
 1114loPI    C116801   8.624  13.419   4.837  0.2574  0.2570 -0.1883
 1114loPI    C216802   8.498  13.748   5.026 -0.1066  0.1292 -0.2008
 1114loPI    C316803   8.720  13.780   4.695  0.2809  0.3555  0.0733
 1114loPI   PO416804   8.640  13.236   5.105  0.0131 -0.2170  0.2196
 1114loPI   GL116805   8.285  13.045   5.318 -0.0928 -0.0176  0.0738
 1114loPI   GL216806   8.031  13.194   5.555 -0.1815  0.1980  0.1455
 1114loPI   C1A16807   8.452  13.021   5.794  0.0340 -0.0653 -0.1931
 1114loPI   C2A16808   8.421  13.122   6.222  0.0600 -0.0355  0.0406
 1114loPI   C3A16809   8.390  13.238   6.546 -0.2765 -0.0079  0.0121
 1114loPI   C4A16810   8.504  13.318   6.931 -0.1087  0.1282  0.1623
 1114loPI   C5A16811   8.652  13.552   7.308  0.0890  0.0416  0.0835
 1114loPI   C6A16812   8.940  13.934   7.387 -0.0623 -0.1925  0.0518
 1114loPI   C1B16813   8.100  13.418   5.913  0.5264  0.1034 -0.1473
 1114loPI   C2B16814   8.053  13.481   6.307  0.1260  0.3164  0.1717
 1114loPI   C3B16815   7.794  13.739   6.624 -0.1251  0.1183 -0.0883
 1114loPI   C4B16816   7.922  13.991   6.925  0.0869 -0.1296 -0.2260
 1115loPI    C116817  18.346  15.127   4.772  0.1005 -0.0237  0.0418
 1115loPI    C216818  18.091  15.376   4.590  0.0798 -0.1261 -0.0703
 1115loPI    C316819  18.323  15.133   4.373 -0.0246 -0.3280  0.0425
 1115loPI   PO416820  18.217  14.947   5.007  0.0294  0.1396 -0.1525
 1115loPI   GL116821  18.261  15.188   5.413  0.3824 -0.0494  0.2492
 1115loPI   GL216822  18.496  15.319   5.324 -0.0116 -0.1087  0.0947
 1115loPI   C1A16823  18.044  15.433   5.675 -0.0711  0.2046  0.0918
 1115loPI   C2A16824  18.056  15.522   6.066 -0.1934  0.1698  0.0798
 1115loPI   C3A16825  17.971  15.565   6.499  0.0376 -0.1208 -0.0621
 1115loPI   C4A16826  17.944  15.601   6.850 -0.2317 -0.0730  0.0443
 1115loPI   C5A16827  17.692  15.321   7.170  0.1605  0.0172  0.0514
 1115loPI   C6A16828  17.689  14.872   7.099  0.2436 -0.3342  0.1126
 1115loPI   C1B16829  18.559  15.385   5.853  0.1557 -0.0515 -0.0413
 1115loPI   C2B16830  18.663  15.497   6.214 -0.3013 -0.0233 -0.1424
 1115loPI   C3B16831  18.700  15.915   6.534 -0.0944 -0.1977 -0.0908
 1115loPI   C4B16832  18.555  16.372   6.698  0.1675  0.2595  0.1914
 1116loPI    C116833  10.522  10.555   5.130 -0.0891  0.0424 -0.0546
 1116loPI    C216834  10.841  10.665   5.345  0.0528  0.0005 -0.2417
 1116loPI    C316835  10.856  10.673   4.945 -0.2490  0.1931 -0.2524
 1116loPI   PO416836  10.413  10.353   5.310  0.0331 -0.0235  0.1763
 1116loPI   GL116837  10.185  10.381   5.644  0.1273 -0.0295  0.0963
 1116loPI   GL216838  10.447  10.184   5.887  0.0717  0.0883 -0.5024
 1116loPI   C1A16839  10.106  10.651   5.892 -0.0440 -0.3954 -0.3460
 1116loPI   C2A16840  10.167  10.650   6.362 -0.3446  0.2130  0.0041
 1116loPI   C3A16841  10.058  10.908   6.727 -0.5834  0.0493 -0.2226
 1116loPI   C4A16842  10.135  11.213   7.097  0.1665 -0.1891  0.0792
 1116loPI   C5A16843  10.123  11.625   7.420 -0.2064 -0.1718  0.1254
 1116loPI   C6A16844   9.818  12.043   7.478  0.1744  0.2768  0.2936
 1116loPI   C1B16845  10.381  10.159   6.338 -0.0106 -0.1031 -0.0945
 1116loPI   C2B16846  10.344  10.287   6.697 -0.1583  0.0299  0.2357
 1116loPI   C3B16847  10.235  10.527   7.007 -0.2165  0.3064 -0.1576
 1116loPI   C4B16848  10.100  10.755   7.307 -0.2459  0.2672 -0.0224
 1117loPI    C116849  15.067  13.907   4.805 -0.0606 -0.2177  0.2755
 1117loPI    C216850  14.890  13.550   4.842  0.0815 -0.3050  0.1270
 1117loPI    C316851  15.020  13.672   4.484 -0.0576 -0.0592  0.1580
 1117loPI   PO416852  15.182  13.936   5.008 -0.0808 -0.3136  0.1525
 1117loPI   GL116853  15.352  13.851   5.483  0.0693 -0.1895 -0.0143
 1117loPI   GL216854  15.466  14.227   5.372  0.1412  0.0625  0.0564
 1117loPI   C1A16855  15.175  13.812   5.911 -0.0784 -0.1171  0.3750
 1117loPI   C2A16856  15.045  13.889   6.315 -0.1972 -0.1981  0.1402
 1117loPI   C3A16857  14.789  13.869   6.535 -0.0132  0.0628 -0.1363
 1117loPI   C4A16858  14.654  14.248   6.859 -0.1024  0.2570 -0.2798
 1117loPI   C5A16859  14.306  14.414   6.985 -0.0420  0.4045 -0.2701
 1117loPI   C6A16860  14.087  14.890   7.041 -0.2164 -0.0888 -0.1973
 1117loPI   C1B16861  15.410  14.267   5.821 -0.0028 -0.1758 -0.0667
 1117loPI   C2B16862  15.363  14.207   6.183  0.0267 -0.0643 -0.1800
 1117loPI   C3B16863  15.362  14.196   6.618 -0.0715 -0.1489 -0.0095
 1117loPI   C4B16864  15.086  14.183   6.911 -0.0260  0.1734 -0.0450
 1118loPI    C116865  16.962  12.685   4.947  0.1491  0.0188  0.0342
 1118loPI    C216866  16.860  12.392   5.199 -0.0549 -0.0074 -0.0767
 1118loPI    C316867  16.822  12.339   4.804  0.2046  0.0559 -0.1120
 1118loPI   PO416868  17.130  12.824   5.157 -0.1982 -0.3232 -0.0349
 1118loPI   GL116869  17.065  12.694   5.515 -0.0930 -0.1248 -0.2558
 1118loPI   GL216870  16.875  12.839   5.696 -0.1214  0.0554 -0.1852
 1118loPI   C1A16871  17.312  12.707   5.948  0.1103 -0.0140 -0.1353
 1118loPI   C2A16872  17.351  12.747   6.408  0.4997  0.0184 -0.0528
 1118loPI   C3A16873  17.535  12.760   6.751  0.0873  0.1111  0.1192
 1118loPI   C4A16874  17.711  12.627   7.106 -0.0186 -0.2659  0.2065
 1118loPI   C5A16875  17.934  12.898   7.482  0.0771 -0.2622  0.0578
 1118loPI   C6A16876  17.936  13.060   7.875 -0.0340  0.0092 -0.2183
 1118loPI   C1B16877  16.746  12.759   6.000  0.2000  0.0505 -0.4149
 1118loPI   C2B16878  16.869  12.756   6.327 -0.0350  0.1342 -0.0242
 1118loPI   C3B16879  16.829  12.632   6.627  0.0080  0.0329  0.0892
 1118loPI   C4B16880  16.850  12.493   6.987  0.2300 -0.0314 -0.4198
 1119loPI    C116881  14.437   2.263   4.514 -0.0419 -0.0283 -0.1844
 1119loPI    C216882  14.464   1.883   4.392  0.0221 -0.0724 -0.0339
 1119loPI    C316883  14.213   2.134   4.208 -0.0363 -0.1929 -0.1199
 1119loPI   PO416884  14.359   2.200   4.794 -0.1499 -0.1760 -0.3054
 1119loPI   GL116885  14.330   2.034   5.212  0.0317 -0.1436 -0.1673
 1119loPI   GL216886  14.426   2.249   5.375  0.1544  0.1913 -0.3798
 1119loPI   C1A16887  14.112   1.837   5.549 -0.1526  0.0892 -0.0853
 1119loPI   C2A16888  14.108   1.784   5.992 -0.2592 -0.2600 -0.0222
 1119loPI   C3A16889  14.132   1.846   6.488 -0.1612  0.2257  0.2995
 1119loPI   C4A16890  13.831   1.963   6.847  0.0153 -0.3060 -0.1341
 1119loPI   C5A16891  13.734   2.169   7.263 -0.1201 -0.0305 -0.2250
 1119loPI   C6A16892  13.465   1.991   7.682  0.1012 -0.2019  0.0268
 1119loPI   C1B16893  14.266   2.346   5.879 -0.0560 -0.0813 -0.0171
 1119loPI   C2B16894  14.195   2.285   6.260  0.1384 -0.0690 -0.0052
 1119loPI   C3B16895  14.166   2.311   6.681 -0.1705 -0.2914  0.2014
 1119loPI   C4B16896  14.144   2.441   7.116  0.0582 -0.1633  0.1344
 1120loPI    C116897   9.498   5.938   4.919  0.1774 -0.0345  0.0304
 1120loPI    C216898   9.171   5.750   4.786  0.0284  0.1016  0.1986
 1120loPI    C316899   9.472   5.831   4.535 -0.0474 -0.0635  0.0526
 1120loPI   PO416900   9.478   5.823   5.192  0.0614  0.3206  0.1613
 1120loPI   GL116901   9.356   5.751   5.547  0.3953 -0.0194  0.2533
 1120loPI   GL216902   9.568   5.629   5.766 -0.1020 -0.0260  0.5330
 1120loPI   C1A16903   9.070   5.690   5.894 -0.2620  0.1160  0.1762
 1120loPI   C2A16904   9.015   5.734   6.311  0.1741 -0.4651  0.2085
 1120loPI   C3A16905   9.047   5.928   6.703 -0.0062 -0.0701  0.2916
 1120loPI   C4A16906   9.115   6.073   7.158  0.2526 -0.0077 -0.2799
 1120loPI   C5A16907   8.889   6.116   7.525  0.0003 -0.0690 -0.0501
 1120loPI   C6A16908   8.710   6.041   7.815 -0.0990  0.0155 -0.1372
 1120loPI   C1B16909   9.489   5.580   6.192 -0.0231  0.3235  0.2906
 1120loPI   C2B16910   9.486   5.669   6.672 -0.0643  0.1889 -0.1401
 1120loPI   C3B16911   9.336   5.548   7.086  0.2563 -0.1259  0.0964
 1120loPI   C4B16912   9.065   5.600   7.392 -0.2467  0.3450 -0.4354
 1121loPI    C116913   3.766   2.634   5.308 -0.2593 -0.1247 -0.0248
 1121loPI    C216914   3.804   2.344   5.035  0.0588 -0.1054 -0.0047
 1121loPI    C316915   4.119   2.571   5.130 -0.1910  0.2623 -0.0350
 1121loPI   PO416916   3.652   2.541   5.476 -0.0718  0.4758 -0.0005
 1121loPI   GL116917   3.569   2.492   5.939 -0.0628 -0.0230 -0.2657
 1121loPI   GL216918   3.541   2.809   5.840  0.2470 -0.0054 -0.3000
 1121loPI   C1A16919   3.735   2.539   6.339 -0.1171 -0.1448 -0.2678
 1121loPI   C2A16920   4.013   2.575   6.663  0.1324 -0.0359  0.0448
 1121loPI   C3A16921   3.863   2.909   6.958  0.2318  0.0482 -0.0892
 1121loPI   C4A16922   3.587   3.034   7.296 -0.2234 -0.1585  0.2146
 1121loPI   C5A16923   3.194   3.132   7.471  0.1405  0.1263 -0.1579
 1121loPI   C6A16924   3.174   3.347   7.931 -0.0870 -0.2271  0.1881
 1121loPI   C1B16925   3.478   2.952   6.232 -0.1541 -0.0884 -0.0488
 1121loPI   C2B16926   3.520   3.107   6.612 -0.1531  0.5879  0.3414
 1121loPI   C3B16927   3.369   3.359   7.007  0.0057  0.5858 -0.3016
 1121loPI   C4B16928   3.243   3.620   7.430  0.0171  0.0315 -0.0087
 1122loPI    C116929  13.358  14.570   4.774  0.1412  0.1263  0.1238
 1122loPI    C216930  13.458  14.356   4.451 -0.1447  0.3054 -0.0881
 1122loPI    C316931  13.573  14.739   4.482 -0.0134  0.2539  0.0826
 1122loPI   PO416932  13.062  14.516   4.830 -0.0031  0.1985  0.0772
 1122loPI   GL116933  12.836  14.730   5.236  0.0168 -0.1645 -0.0174
 1122loPI   GL216934  12.810  14.460   5.290  0.0464  0.0263  0.2309
 1122loPI   C1A16935  12.666  14.799   5.670  0.0137 -0.1560  0.0428
 1122loPI   C2A16936  12.642  14.760   6.047  0.1784 -0.0432 -0.0678
 1122loPI   C3A16937  12.693  14.709   6.448  0.0751  0.0503 -0.3285
 1122loPI   C4A16938  12.426  14.774   6.799 -0.0152 -0.0285  0.1985
 1122loPI   C5A16939  12.427  14.877   7.248  0.2176  0.0380 -0.1630
 1122loPI   C6A16940  12.448  15.046   7.649  0.1560  0.0962  0.1380
 1122loPI   C1B16941  12.980  14.428   5.691  0.0954  0.1536 -0.0220
 1122loPI   C2B16942  13.020  14.430   6.167 -0.2647  0.0513  0.0200
 1122loPI   C3B16943  13.258  14.233   6.421 -0.0879 -0.2158  0.0416
 1122loPI   C4B16944  13.310  14.267   6.891 -0.2203 -0.2147 -0.1844
 1123loPI    C116945   3.082   0.153   5.439  0.1126  0.0719  0.2742
 1123loPI    C216946   2.861  -0.056   5.699 -0.0269  0.0382  0.1300
 1123loPI    C316947   2.692   0.232   5.479  0.0473 -0.0616 -0.0608
 1123loPI   PO416948   3.300   0.281   5.601 -0.1938  0.0012 -0.3804
 1123loPI   GL116949   3.181   0.385   5.925  0.2677  0.2731 -0.0536
 1123loPI   GL216950   3.123   0.539   6.248 -0.1239 -0.0969 -0.0715
 1123loPI   C1A16951   2.849   0.022   6.142  0.0774 -0.1470  0.1155
 1123loPI   C2A16952   2.605  -0.098   6.571  0.2049 -0.2951  0.0452
 1123loPI   C3A16953   2.314  -0.047   6.882 -0.0407  0.1460 -0.3183
 1123loPI   C4A16954   1.903   0.329   7.009  0.0643 -0.0548  0.3060
 1123loPI   C5A16955   1.577   0.591   6.983  0.0973 -0.0354 -0.2656
 1123loPI   C6A16956   1.410   0.980   7.023  0.2351 -0.1275  0.2978
 1123loPI   C1B16957   3.078   0.172   6.547 -0.3299  0.1758  0.2685
 1123loPI   C2B16958   3.026  -0.145   6.842 -0.0320  0.0512 -0.0525
 1123loPI   C3B16959   2.724  -0.100   7.114  0.0792 -0.2537  0.5419
 1123loPI   C4B16960   2.666  -0.368   7.424 -0.0188  0.0080 -0.3534
 1124loPI    C116961   7.330   7.654   5.321  0.1523  0.0325 -0.2695
 1124loPI    C216962   6.996   7.870   5.277 -0.0360 -0.1913  0.0220
 1124loPI    C316963   7.106   7.612   4.993  0.1301  0.1971 -0.2764
 1124loPI   PO416964   7.505   7.689   5.595 -0.0561 -0.3415 -0.0323
 1124loPI   GL116965   7.337   7.604   5.933 -0.2804 -0.2824 -0.0194
 1124loPI   GL216966   7.384   7.889   6.050  0.0039 -0.0394 -0.0897
 1124loPI   C1A16967   7.270   7.558   6.446 -0.2342  0.1148  0.1664
 1124loPI   C2A16968   7.159   7.317   6.824 -0.2726  0.0063 -0.2213
 1124loPI   C3A16969   7.019   7.225   7.204 -0.0964  0.0351 -0.3260
 1124loPI   C4A16970   7.321   7.113   7.558 -0.1059 -0.0102 -0.2114
 1124loPI   C5A16971   7.476   6.848   7.680 -0.1691  0.1547 -0.0886
 1124loPI   C6A16972   7.751   6.478   7.778 -0.0264  0.1356  0.0317
 1124loPI   C1B16973   7.227   8.089   6.389  0.0682 -0.0234 -0.1228
 1124loPI   C2B16974   7.442   8.120   6.858  0.2140  0.0539  0.4106
 1124loPI   C3B16975   7.355   8.151   7.219 -0.4216  0.0618 -0.1070
 1124loPI   C4B16976   7.516   8.305   7.611 -0.2956 -0.2141  0.1662
 1125loPI    C116977  16.634   0.906   4.756 -0.1405 -0.0424  0.0316
 1125loPI    C216978  16.578   1.144   4.439 -0.0774 -0.0858 -0.0126
 1125loPI    C316979  16.608   0.749   4.389  0.0661 -0.0814  0.0321
 1125loPI   PO416980  16.694   1.105   4.938 -0.2048 -0.2087  0.0856
 1125loPI   GL116981  16.482   1.303   5.211  0.0008  0.2991 -0.0473
 1125loPI   GL216982  16.719   1.114   5.458  0.2188 -0.0895  0.2132
 1125loPI   C1A16983  16.209   1.206   5.585  0.2638  0.0467 -0.1862
 1125loPI   C2A16984  16.202   1.102   6.065 -0.0799  0.0879 -0.0009
 1125loPI   C3A16985  16.516   1.042   6.433 -0.0453  0.0778  0.1145
 1125loPI   C4A16986  16.629   0.782   6.650 -0.0481  0.0030  0.3957
 1125loPI   C5A16987  16.793   0.901   7.028 -0.0681  0.1205 -0.4833
 1125loPI   C6A16988  17.054   1.116   7.174 -0.0747 -0.0708 -0.1258
 1125loPI   C1B16989  16.614   0.845   5.787  0.0526 -0.0212 -0.1734
 1125loPI   C2B16990  16.753   0.692   6.185  0.0908 -0.0523  0.1937
 1125loPI   C3B16991  17.133   0.714   6.261  0.1370 -0.1378 -0.1297
 1125loPI   C4B16992  17.428   0.462   5.991 -0.0936 -0.1418  0.2784
 1126loPI    C116993  13.272   7.168   5.085 -0.1027 -0.1041  0.1748
 1126loPI    C216994  13.577   7.424   5.048 -0.2616  0.0804  0.1276
 1126loPI    C316995  13.452   7.213   4.731 -0.0415 -0.1613  0.1985
 1126loPI   PO416996  13.130   7.321   5.265 -0.1203  0.0604 -0.3751
 1126loPI   GL116997  13.123   7.360   5.675 -0.1281 -0.0259  0.1709
 1126loPI   GL216998  13.095   7.817   5.740  0.3587 -0.0230 -0.0620
 1126loPI   C1A16999  13.353   7.432   6.067  0.3059  0.1283  0.1405
 1126loPI   C2A17000  13.226   7.295   6.445  0.0687  0.0368  0.2012
 1126loPI   C3A17001  13.062   6.915   6.642 -0.3098  0.1510 -0.1300
 1126loPI   C4A17002  13.042   6.583   6.992 -0.0378  0.0956  0.0718
 1126loPI   C5A17003  13.274   6.365   7.216 -0.3326  0.3533  0.0026
 1126loPI   C6A17004  13.177   6.050   7.573  0.0570  0.1968 -0.1989
 1126loPI   C1B17005  12.952   7.792   6.153  0.1472  0.1126 -0.1069
 1126loPI   C2B17006  12.864   7.717   6.580 -0.3951 -0.1277 -0.0780
 1126loPI   C3B17007  12.804   7.965   7.045 -0.1848  0.0751  0.2561
 1126loPI   C4B17008  12.784   8.253   7.502  0.2206  0.1480  0.1241
 1127loPI    C117009   2.068   4.258   5.457  0.0547 -0.0903  0.3651
 1127loPI    C217010   1.847   3.931   5.521  0.1748 -0.2207  0.1295
 1127loPI    C317011   2.156   3.917   5.267  0.0826  0.1183 -0.0081
 1127loPI   PO417012   2.003   4.414   5.627  0.1141 -0.0614  0.4284
 1127loPI   GL117013   1.948   4.555   6.013  0.0948  0.4094  0.1770
 1127loPI   GL217014   2.175   4.773   6.043  0.2199  0.2226 -0.1921
 1127loPI   C1A17015   1.882   4.264   6.244 -0.0061 -0.1261  0.1994
 1127loPI   C2A17016   1.868   4.050   6.648 -0.0800 -0.0609  0.2545
 1127loPI   C3A17017   2.024   3.974   6.960 -0.0651  0.0363  0.0630
 1127loPI   C4A17018   2.247   4.124   7.311 -0.0524 -0.0038  0.2775
 1127loPI   C5A17019   2.630   4.289   7.514 -0.0065 -0.0714  0.0095
 1127loPI   C6A17020   2.951   4.581   7.540 -0.4080  0.3916 -0.3095
 1127loPI   C1B17021   2.198   4.957   6.492 -0.1829  0.1938  0.0383
 1127loPI   C2B17022   1.964   5.127   6.700 -0.0427 -0.0168 -0.1532
 1127loPI   C3B17023   1.621   4.985   7.018  0.1978 -0.1398  0.1463
 1127loPI   C4B17024   1.192   5.143   7.157 -0.2619  0.1590 -0.0386
 1128loPI    C117025   8.242  18.738   5.046  0.2715  0.3555 -0.0525
 1128loPI    C217026   8.311  18.384   4.874 -0.0759  0.1087  0.2967
 1128loPI    C317027   8.302  18.716   4.651  0.0582 -0.1238 -0.0651
 1128loPI   PO417028   8.043  18.658   5.251 -0.1164  0.0345  0.1414
 1128loPI   GL117029   7.865  18.773   5.616 -0.0377  0.3638 -0.1077
 1128loPI   GL217030   7.795  18.319   5.632 -0.4195 -0.0430 -0.0742
 1128loPI   C1A17031   7.887  18.679   6.006 -0.2703  0.2265  0.0813
 1128loPI   C2A17032   7.604  18.617   6.188 -0.0135  0.5157  0.1432
 1128loPI   C3A17033   7.661  18.370   6.601  0.0668  0.0293 -0.2166
 1128loPI   C4A17034   7.585  18.142   6.945 -0.0167  0.1067  0.2971
 1128loPI   C5A17035   7.514  17.912   7.222 -0.1020  0.3943 -0.1441
 1128loPI   C6A17036   7.275  17.880   7.612 -0.0914 -0.0175 -0.3561
 1128loPI   C1B17037   7.713  18.116   6.094 -0.1106  0.1688  0.1558
 1128loPI   C2B17038   7.636  17.881   6.491  0.0518  0.0423 -0.1169
 1128loPI   C3B17039   7.790  17.625   6.834  0.1725 -0.1766 -0.1126
 1128loPI   C4B17040   8.249  17.500   6.957 -0.1849  0.0638  0.2991
 1129loPI    C117041   5.747  16.577   4.888 -0.0862 -0.2839 -0.1405
 1129loPI    C217042   6.004  16.774   4.654 -0.1718  0.0199  0.0158
 1129loPI    C317043   5.676  16.609   4.496  0.0261 -0.2173 -0.1559
 1129loPI   PO417044   6.006  16.473   5.105 -0.2144  0.3301 -0.1122
 1129loPI   GL117045   5.871  16.491   5.604  0.0475 -0.0243  0.0303
 1129loPI   GL217046   5.654  16.671   5.798  0.2907 -0.0820  0.3113
 1129loPI   C1A17047   5.846  16.084   5.918  0.0202  0.2761  0.0246
 1129loPI   C2A17048   5.725  15.988   6.317 -0.0618  0.4745  0.1568
 1129loPI   C3A17049   5.640  15.943   6.771  0.2169  0.3350 -0.3507
 1129loPI   C4A17050   5.905  16.195   7.105  0.0341  0.0340  0.2108
 1129loPI   C5A17051   5.899  16.349   7.446  0.0995  0.0944 -0.3195
 1129loPI   C6A17052   5.865  16.643   7.699  0.4884 -0.0557 -0.2849
 1129loPI   C1B17053   5.630  16.463   6.148 -0.1284 -0.0417 -0.0485
 1129loPI   C2B17054   5.473  16.432   6.577 -0.5472  0.0378 -0.1811
 1129loPI   C3B17055   5.391  16.431   6.942 -0.0474  0.1377  0.0781
 1129loPI   C4B17056   5.033  16.609   7.244  0.2080 -0.0970 -0.0354
 1130loPI    C117057   5.063  14.039   5.001 -0.0425 -0.3155  0.2131
 1130loPI    C217058   4.791  14.233   4.781  0.3463  0.0112  0.0047
 1130loPI    C317059   4.966  13.904   4.637  0.1090 -0.1674  0.1161
 1130loPI   PO417060   4.996  14.021   5.195 -0.1603  0.0543  0.0094
 1130loPI   GL117061   5.111  13.910   5.577 -0.1373  0.1543 -0.2134
 1130loPI   GL217062   5.300  14.029   5.846  0.0582 -0.0807 -0.3135
 1130loPI   C1A17063   4.859  13.701   5.850 -0.0781  0.3223  0.1014
 1130loPI   C2A17064   4.826  13.256   6.102  0.0057 -0.1445 -0.1423
 1130loPI   C3A17065   4.971  13.040   6.436 -0.2138 -0.1181 -0.2088
 1130loPI   C4A17066   5.293  13.073   6.793 -0.3476  0.0204 -0.1447
 1130loPI   C5A17067   5.391  12.994   7.219  0.3319  0.0249 -0.0081
 1130loPI   C6A17068   5.390  12.917   7.602  0.3241 -0.2512 -0.3363
 1130loPI   C1B17069   5.324  14.291   6.245 -0.1446  0.0526  0.1575
 1130loPI   C2B17070   5.221  14.303   6.662 -0.2145  0.1097  0.2571
 1130loPI   C3B17071   5.237  13.992   7.037  0.0825 -0.0859 -0.3239
 1130loPI   C4B17072   5.392  13.590   7.023  0.0465  0.1755 -0.1208
 1131loPI    C117073  18.511  17.373   4.945 -0.0772  0.3047 -0.1090
 1131loPI    C217074  18.815  17.449   5.194 -0.0982  0.3130 -0.0858
 1131loPI    C317075  18.852  17.528   4.803 -0.0363  0.2247 -0.0982
 1131loPI   PO417076  18.434  17.154   4.974  0.1835  0.2738 -0.0510
 1131loPI   GL117077  18.240  17.114   5.372 -0.5876 -0.2556 -0.1462
 1131loPI   GL217078  17.984  17.217   5.577 -0.1069 -0.2504  0.0415
 1131loPI   C1A17079  18.071  16.670   5.540  0.2103  0.0048 -0.3813
 1131loPI   C2A17080  17.777  16.648   5.828 -0.1209  0.1578 -0.2509
 1131loPI   C3A17081  17.724  16.678   6.327 -0.1753 -0.1441 -0.2581
 1131loPI   C4A17082  17.615  16.700   6.774 -0.1624  0.0201  0.0934
 1131loPI   C5A17083  17.607  16.657   7.130 -0.0670 -0.1893  0.1929
 1131loPI   C6A17084  17.630  16.238   7.413  0.2554  0.1702 -0.0891
 1131loPI   C1B17085  17.817  17.244   6.058 -0.1323  0.1629  0.0197
 1131loPI   C2B17086  17.799  17.214   6.591  0.1080 -0.3162 -0.0240
 1131loPI   C3B17087  17.720  17.630   7.001  0.4307 -0.2184  0.0907
 1131loPI   C4B17088  17.624  17.879   7.320 -0.4887 -0.0404  0.2759
 1132loPI    C117089  15.068  18.309   4.726  0.0579  0.1490  0.1268
 1132loPI    C217090  14.825  18.537   4.506 -0.0186 -0.0133  0.0419
 1132loPI    C317091  15.110  18.706   4.728  0.1959  0.1420 -0.3425
 1132loPI   PO417092  14.938  18.131   4.812 -0.2454  0.1925 -0.2539
 1132loPI   GL117093  14.939  18.069   5.294 -0.1374 -0.1302 -0.1131
 1132loPI   GL217094  15.153  17.967   5.299  0.1876  0.3559 -0.3606
 1132loPI   C1A17095  14.666  18.320   5.551 -0.0795  0.1365 -0.1794
 1132loPI   C2A17096  14.663  18.404   5.964  0.5514 -0.0261 -0.0491
 1132loPI   C3A17097  14.858  18.450   6.369 -0.0355 -0.5273  0.0394
 1132loPI   C4A17098  15.241  18.261   6.485 -0.1973 -0.0790  0.0043
 1132loPI   C5A17099  15.656  18.060   6.698 -0.2307 -0.0141  0.1300
 1132loPI   C6A17100  15.832  17.646   6.681 -0.4785 -0.2577  0.0690
 1132loPI   C1B17101  14.970  17.953   5.790  0.0677 -0.0396 -0.1360
 1132loPI   C2B17102  15.101  17.823   6.228  0.1791  0.0628  0.0840
 1132loPI   C3B17103  15.262  17.700   6.606  0.1664 -0.2370 -0.0601
 1132loPI   C4B17104  15.239  17.327   6.727 -0.2405  0.1292  0.3462
 1133loPI    C117105   8.970  14.448   5.140 -0.1483  0.0565 -0.0946
 1133loPI    C217106   8.672  14.220   5.000 -0.0324 -0.0672 -0.1422
 1133loPI    C317107   8.938  14.380   4.747  0.0281 -0.0795 -0.0868
 1133loPI   PO417108   8.850  14.557   5.270  0.0093 -0.4506 -0.0381
 1133loPI   GL117109   8.775  14.537   5.711 -0.1245 -0.0229 -0.1976
 1133loPI   GL217110   8.480  14.479   5.675 -0.0511  0.0651  0.3903
 1133loPI   C1A17111   8.860  14.760   6.152 -0.0363  0.2707  0.3036
 1133loPI   C2A17112   9.042  14.821   6.545 -0.2561  0.0098 -0.1795
 1133loPI   C3A17113   9.243  14.756   6.898 -0.1017  0.2344 -0.2913
 1133loPI   C4A17114   9.520  14.772   7.237  0.1576 -0.0584 -0.0480
 1133loPI   C5A17115   9.432  14.701   7.732  0.3510  0.1952  0.0491
 1133loPI   C6A17116   9.371  14.693   8.179 -0.1096 -0.0807  0.0187
 1133loPI   C1B17117   8.693  14.197   6.058  0.1080 -0.2823 -0.0098
 1133loPI   C2B17118   9.025  14.315   6.482  0.4371  0.1340 -0.3453
 1133loPI   C3B17119   8.789  14.491   6.837  0.2039  0.1725 -0.2908
 1133loPI   C4B17120   8.801  14.430   7.207  0.1665 -0.1915 -0.0119
 1134loPI    C117121   9.988  12.580   4.992 -0.2142  0.0130  0.1457
 1134loPI    C217122   9.635  12.427   4.883 -0.0771 -0.0982 -0.1542
 1134loPI    C317123   9.929  12.462   4.615  0.0268  0.3232  0.0068
 1134loPI   PO417124  10.027  12.480   5.277  0.1881 -0.2796  0.2435
 1134loPI   GL117125  10.070  12.568   5.617 -0.3293  0.2120  0.0383
 1134loPI   GL217126  10.028  12.260   5.755  0.3656 -0.2554  0.0681
 1134loPI   C1A17127  10.386  12.699   5.906  0.3251  0.1511  0.1341
 1134loPI   C2A17128  10.635  12.986   6.118 -0.2345 -0.1825  0.0049
 1134loPI   C3A17129  10.826  13.107   6.446  0.0480 -0.2184  0.1343
 1134loPI   C4A17130  10.760  13.201   6.899  0.2531 -0.1974  0.1557
 1134loPI   C5A17131  10.541  13.140   7.338 -0.1471 -0.0991  0.5236
 1134loPI   C6A17132  10.104  13.175   7.501  0.3265 -0.0672  0.0048
 1134loPI   C1B17133  10.098  12.355   6.146 -0.1645  0.2432 -0.1704
 1134loPI   C2B17134  10.075  12.256   6.533  0.0992  0.4536  0.0244
 1134loPI   C3B17135  10.238  12.676   6.610 -0.1847 -0.2523 -0.1642
 1134loPI   C4B17136  10.338  13.071   6.452 -0.0556  0.3475 -0.1413
 1135loPI    C117137  17.675  10.472   4.961 -0.0012 -0.1474 -0.0900
 1135loPI    C217138  17.673  10.706   4.636 -0.2931  0.0472  0.0476
 1135loPI    C317139  17.754  10.316   4.601  0.0081  0.1288 -0.2104
 1135loPI   PO417140  17.852  10.534   5.169 -0.0828 -0.1707  0.0178
 1135loPI   GL117141  17.772  10.549   5.526  0.0322 -0.1203 -0.4020
 1135loPI   GL217142  17.819  10.419   5.728  0.1827  0.2796 -0.1673
 1135loPI   C1A17143  17.637  10.901   5.791 -0.3065  0.0579 -0.0577
 1135loPI   C2A17144  17.382  11.118   6.089 -0.2557  0.1202 -0.2020
 1135loPI   C3A17145  17.111  11.291   6.470  0.1559  0.1341 -0.0755
 1135loPI   C4A17146  17.147  11.410   6.944  0.3775 -0.0187 -0.0926
 1135loPI   C5A17147  17.112  11.560   7.285 -0.1515  0.2187 -0.1922
 1135loPI   C6A17148  17.043  11.967   7.576 -0.0920 -0.0647 -0.1264
 1135loPI   C1B17149  17.617  10.266   6.141 -0.3676  0.2119  0.0898
 1135loPI   C2B17150  17.530  10.268   6.562 -0.1036  0.0454  0.0364
 1135loPI   C3B17151  17.432  10.488   6.889  0.1075 -0.0916  0.1583
 1135loPI   C4B17152  17.385  10.312   7.279  0.0363  0.2426  0.2726
 1136loPI    C117153  14.736  17.137   4.461 -0.1262 -0.1350 -0.1197
 1136loPI    C217154  15.062  17.181   4.232  0.0186  0.0473  0.1167
 1136loPI    C317155  14.736  17.402   4.161  0.0694  0.1159  0.0963
 1136loPI   PO417156  14.942  16.885   4.634 -0.1480  0.0026  0.0035
 1136loPI   GL117157  15.150  16.959   5.178  0.2725 -0.3793  0.0699
 1136loPI   GL217158  15.201  16.618   5.185 -0.4883  0.0993 -0.2048
 1136loPI   C1A17159  14.940  16.992   5.552  0.3100  0.1043  0.0588
 1136loPI   C2A17160  14.992  16.918   5.976 -0.0221 -0.0519 -0.1001
 1136loPI   C3A17161  14.992  17.230   6.298 -0.1477 -0.1966 -0.3769
 1136loPI   C4A17162  14.795  17.480   6.598  0.0540  0.0096 -0.2092
 1136loPI   C5A17163  14.904  17.605   7.044  0.0051 -0.0942 -0.1167
 1136loPI   C6A17164  14.742  17.651   7.424 -0.0070  0.0508  0.1181
 1136loPI   C1B17165  15.266  16.618   5.673  0.2415 -0.2300 -0.2544
 1136loPI   C2B17166  15.613  16.891   5.840 -0.0481  0.0867 -0.2660
 1136loPI   C3B17167  15.909  17.039   6.089  0.1650 -0.0846 -0.0100
 1136loPI   C4B17168  16.053  17.356   6.105  0.2768 -0.1378 -0.2113
 1137loPI    C117169   2.442  11.823   4.963  0.2570 -0.0345  0.1046
 1137loPI    C217170   2.674  12.145   5.013  0.1832  0.0119  0.1489
 1137loPI    C317171   2.639  11.978   4.651  0.1878  0.0795  0.1171
 1137loPI   PO417172   2.264  11.946   5.211  0.2008  0.1708 -0.0784
 1137loPI   GL117173   2.114  11.964   5.472 -0.0098  0.4215 -0.1441
 1137loPI   GL217174   1.786  12.046   5.358  0.0476  0.0629  0.0240
 1137loPI   C1A17175   2.111  12.094   5.853 -0.0575 -0.2012  0.0209
 1137loPI   C2A17176   2.143  12.201   6.301 -0.1089  0.0381  0.0952
 1137loPI   C3A17177   2.191  12.165   6.748 -0.0999 -0.0674  0.0871
 1137loPI   C4A17178   2.173  12.207   7.124 -0.1104 -0.0562  0.0394
 1137loPI   C5A17179   2.391  11.858   7.481 -0.2418  0.1734 -0.1040
 1137loPI   C6A17180   2.490  11.507   7.444 -0.3796 -0.3326 -0.4554
 1137loPI   C1B17181   1.593  12.006   5.725  0.0543 -0.0908 -0.0724
 1137loPI   C2B17182   1.732  11.915   6.121 -0.3971 -0.3904 -0.1636
 1137loPI   C3B17183   1.907  11.799   6.535 -0.0606  0.2112 -0.0776
 1137loPI   C4B17184   1.756  11.904   6.905 -0.4609  0.2646  0.1077
 1138loPI    C117185   0.646  15.451   4.671 -0.4305 -0.1118 -0.0426
 1138loPI    C217186   0.692  15.744   4.939 -0.0330 -0.3108  0.1139
 1138loPI    C317187   0.738  15.821   4.550  0.0191 -0.1547  0.1502
 1138loPI   PO417188   0.461  15.337   4.712 -0.0866 -0.0258  0.0019
 1138loPI   GL117189   0.238  15.429   5.028  0.1469  0.0279 -0.1246
 1138loPI   GL217190  -0.068  15.504   5.117 -0.0205 -0.1156  0.3059
 1138loPI   C1A17191   0.509  15.533   5.347  0.2734  0.0703 -0.0811
 1138loPI   C2A17192   0.880  15.501   5.551  0.1313  0.0301  0.1647
 1138loPI   C3A17193   1.188  15.557   5.861 -0.1109 -0.3949  0.2934
 1138loPI   C4A17194   1.292  15.485   6.353  0.1633 -0.0833 -0.0687
 1138loPI   C5A17195   0.994  15.309   6.615  0.0398  0.0008  0.3427
 1138loPI   C6A17196   0.604  15.272   6.879 -0.1900 -0.0791  0.1670
 1138loPI   C1B17197  -0.062  15.546   5.554 -0.1748  0.0217 -0.1734
 1138loPI   C2B17198   0.182  15.592   5.967  0.1348 -0.2705  0.0387
 1138loPI   C3B17199   0.635  15.542   5.993 -0.1109  0.0187 -0.0553
 1138loPI   C4B17200   0.856  15.258   6.124  0.1746  0.5170 -0.1968
 1139loPI    C117201  16.580   6.505   4.861  0.1758 -0.1096 -0.1480
 1139loPI    C217202  16.412   6.143   4.833  0.0017 -0.0504  0.0915
 1139loPI    C317203  16.213   6.466   4.705 -0.0579  0.0166  0.3475
 1139loPI   PO417204  16.765   6.536   5.133 -0.0783  0.3148 -0.1011
 1139loPI   GL117205  16.884   6.565   5.570  0.1944  0.0110 -0.1591
 1139loPI   GL217206  17.171   6.693   5.663  0.0896  0.0373 -0.0777
 1139loPI   C1A17207  16.529   6.471   5.797  0.0739  0.4102 -0.3363
 1139loPI   C2A17208  16.362   6.346   6.165  0.0283  0.1359 -0.2114
 1139loPI   C3A17209  16.354   6.379   6.598 -0.1116 -0.6605 -0.0621
 1139loPI   C4A17210  16.513   6.017   6.858 -0.3747  0.0118  0.0602
 1139loPI   C5A17211  16.366   5.582   6.784  0.0536  0.2722  0.2162
 1139loPI   C6A17212  16.104   5.387   6.553  0.1341 -0.3483  0.1544
 1139loPI   C1B17213  17.383   6.866   6.064  0.1010 -0.0683  0.3723
 1139loPI   C2B17214  17.278   6.878   6.469  0.3161 -0.0583 -0.1124
 1139loPI   C3B17215  17.336   6.717   6.807  0.2077 -0.0383 -0.2007
 1139loPI   C4B17216  17.566   6.856   7.228  0.1346  0.3110 -0.1539
 1140loPI    C117217   1.755   1.525   4.853 -0.0146 -0.0409 -0.2886
 1140loPI    C217218   2.028   1.524   4.561  0.3542  0.1313  0.0459
 1140loPI    C317219   1.842   1.864   4.660 -0.0421  0.0013 -0.2272
 1140loPI   PO417220   1.777   1.487   5.121 -0.1525  0.0490  0.1155
 1140loPI   GL117221   1.740   1.500   5.461 -0.2528  0.2867 -0.3494
 1140loPI   GL217222   1.502   1.557   5.648 -0.3696 -0.0319  0.0323
 1140loPI   C1A17223   2.087   1.625   5.790  0.0843 -0.0730 -0.1373
 1140loPI   C2A17224   2.317   1.836   6.162 -0.0887 -0.1266 -0.1092
 1140loPI   C3A17225   2.388   1.819   6.642 -0.0338  0.1718 -0.4176
 1140loPI   C4A17226   2.458   1.616   6.997  0.0519  0.4669 -0.0306
 1140loPI   C5A17227   2.505   1.667   7.429  0.0187 -0.1687 -0.2294
 1140loPI   C6A17228   2.787   1.733   7.730 -0.1572 -0.0633  0.3290
 1140loPI   C1B17229   1.634   1.437   6.034 -0.2272  0.1139  0.0112
 1140loPI   C2B17230   1.775   1.238   6.476 -0.2680 -0.0861  0.0065
 1140loPI   C3B17231   1.856   1.212   6.882 -0.0143 -0.0491 -0.2698
 1140loPI   C4B17232   2.113   1.355   7.228  0.0419 -0.6325 -0.3126
 1141loPI    C117233   4.883  17.202   5.172 -0.1456  0.1820  0.1136
 1141loPI    C217234   4.506  17.319   5.107 -0.0758  0.3101 -0.0688
 1141loPI    C317235   4.769  17.316   4.806  0.0244  0.0520  0.0188
 1141loPI   PO417236   4.874  17.153   5.470  0.1270 -0.0026 -0.0486
 1141loPI   GL117237   4.960  17.497   5.819 -0.2111  0.2984 -0.0603
 1141loPI   GL217238   4.655  17.330   5.898 -0.3991 -0.1933  0.0592
 1141loPI   C1A17239   5.006  17.714   6.124  0.1117  0.0522  0.0552
 1141loPI   C2A17240   4.964  17.786   6.569  0.3889 -0.0366  0.1800
 1141loPI   C3A17241   4.939  17.923   7.087 -0.0783 -0.1870  0.1393
 1141loPI   C4A17242   5.001  17.888   7.509 -0.0567 -0.1424 -0.0026
 1141loPI   C5A17243   5.135  18.263   7.647 -0.1556  0.1149  0.2788
 1141loPI   C6A17244   5.537  18.349   7.684 -0.3455  0.0122  0.2278
 1141loPI   C1B17245   4.512  17.635   6.185  0.1734  0.3849  0.0236
 1141loPI   C2B17246   4.473  17.771   6.607  0.0298 -0.2278 -0.1092
 1141loPI   C3B17247   4.414  17.728   7.062 -0.0817 -0.2472 -0.0262
 1141loPI   C4B17248   4.308  17.471   7.350  0.2016  0.1579 -0.1767
 1142loPI    C117249   1.312   7.965   4.811 -0.0170  0.1529  0.1909
 1142loPI    C217250   1.490   8.315   4.730  0.0085  0.0958 -0.0053
 1142loPI    C317251   1.296   8.118   4.441  0.1553 -0.1444  0.0571
 1142loPI   PO417252   1.157   8.090   5.070  0.0984  0.1406  0.1840
 1142loPI   GL117253   1.074   8.220   5.459  0.0214 -0.0423 -0.3684
 1142loPI   GL217254   0.765   8.338   5.589  0.0219  0.1447  0.2067
 1142loPI   C1A17255   1.265   8.265   5.804 -0.2714  0.0743  0.1729
 1142loPI   C2A17256   1.546   8.521   5.889  0.0106  0.1622  0.2781
 1142loPI   C3A17257   1.817   8.690   6.177  0.0996 -0.0145 -0.0608
 1142loPI   C4A17258   1.980   8.710   6.538 -0.1558  0.0048 -0.3296
 1142loPI   C5A17259   2.094   8.651   6.971 -0.1157  0.1869 -0.1013
 1142loPI   C6A17260   2.191   8.803   7.390 -0.2943 -0.0629 -0.1574
 1142loPI   C1B17261   0.708   8.382   5.937  0.0930 -0.2151 -0.4063
 1142loPI   C2B17262   0.853   8.702   6.346  0.0686  0.0200  0.2447
 1142loPI   C3B17263   0.742   8.904   6.724  0.0114 -0.2382  0.0497
 1142loPI   C4B17264   0.509   9.269   6.735  0.1281  0.0481  0.2192
 1143loPI    C117265  15.008   7.742   5.115  0.0213 -0.2323 -0.0402
 1143loPI    C217266  15.001   8.000   4.810  0.0033  0.1264  0.2570
 1143loPI    C317267  14.675   7.787   4.898  0.0427 -0.0612 -0.0390
 1143loPI   PO417268  15.150   7.855   5.284 -0.0421  0.0740 -0.1159
 1143loPI   GL117269  15.083   8.237   5.376  0.0502  0.1767  0.3686
 1143loPI   GL217270  15.360   8.370   5.426 -0.1823 -0.0196  0.3618
 1143loPI   C1A17271  14.929   8.412   5.787 -0.2039 -0.0910  0.1063
 1143loPI   C2A17272  14.765   8.434   6.234 -0.1619 -0.0604  0.2815
 1143loPI   C3A17273  14.871   8.568   6.659  0.4289  0.1774 -0.1808
 1143loPI   C4A17274  15.075   8.397   7.013  0.0671 -0.3770  0.0977
 1143loPI   C5A17275  15.087   8.429   7.379 -0.1704 -0.3446 -0.0551
 1143loPI   C6A17276  15.337   8.698   7.582  0.1322  0.0712 -0.1463
 1143loPI   C1B17277  15.540   8.121   5.810 -0.2084  0.0837 -0.1577
 1143loPI   C2B17278  15.791   8.405   6.058 -0.4191 -0.1247  0.3285
 1143loPI   C3B17279  15.952   8.463   6.464 -0.0552  0.1551  0.0569
 1143loPI   C4B17280  16.044   8.664   6.829 -0.1476  0.1719 -0.3229
 1144loPI    C117281   8.316  15.202   4.950  0.0511  0.2518  0.1882
 1144loPI    C217282   8.262  15.507   4.696  0.0131  0.0819 -0.0098
 1144loPI    C317283   7.946  15.314   4.847  0.0397  0.0353 -0.0133
 1144loPI   PO417284   8.433  15.376   5.251 -0.0530  0.0594 -0.0341
 1144loPI   GL117285   8.349  15.379   5.615  0.0883 -0.0406 -0.0547
 1144loPI   GL217286   8.127  15.493   5.777 -0.1048  0.4832  0.0401
 1144loPI   C1A17287   8.705  15.415   5.896 -0.0047 -0.0177  0.0259
 1144loPI   C2A17288   8.963  15.257   6.227 -0.0093  0.0088  0.4780
 1144loPI   C3A17289   9.071  15.334   6.610  0.1125 -0.0858  0.2724
 1144loPI   C4A17290   9.371  15.290   7.021  0.2011  0.0432 -0.0479
 1144loPI   C5A17291   9.336  15.198   7.472 -0.2423  0.1345  0.1433
 1144loPI   C6A17292   9.107  15.048   7.899 -0.4619 -0.0820  0.1731
 1144loPI   C1B17293   8.283  15.610   6.148 -0.0336 -0.0128  0.3604
 1144loPI   C2B17294   8.424  15.593   6.426  0.0584 -0.0656  0.1543
 1144loPI   C3B17295   8.448  15.952   6.787 -0.1426  0.2078 -0.3684
 1144loPI   C4B17296   8.550  16.181   7.250  0.0528 -0.0091  0.2666
 1145loPI    C117297  14.761  11.916   5.432  0.0432  0.0921 -0.0094
 1145loPI    C217298  14.857  12.174   5.143 -0.1452  0.0499 -0.1114
 1145loPI    C317299  15.002  11.802   5.134 -0.0570  0.0833 -0.0874
 1145loPI   PO417300  14.475  12.016   5.437  0.0216  0.1430 -0.0249
 1145loPI   GL117301  14.302  12.188   5.789 -0.2423  0.0236  0.2430
 1145loPI   GL217302  14.461  11.937   5.931 -0.1740  0.0101 -0.2333
 1145loPI   C1A17303  14.397  12.298   6.245 -0.0353  0.1231  0.1342
 1145loPI   C2A17304  14.347  12.654   6.506  0.6076 -0.0256  0.0931
 1145loPI   C3A17305  14.525  12.831   6.828  0.2322  0.2240  0.1317
 1145loPI   C4A17306  14.793  13.081   7.162  0.2715  0.0725  0.0928
 1145loPI   C5A17307  14.853  13.382   7.437  0.1068 -0.3605 -0.0218
 1145loPI   C6A17308  14.848  13.741   7.731 -0.1375 -0.0122 -0.2894
 1145loPI   C1B17309  14.606  11.762   6.273  0.0838  0.4104 -0.1005
 1145loPI   C2B17310  14.969  11.599   6.456 -0.2911  0.3511 -0.1952
 1145loPI   C3B17311  15.442  11.677   6.391 -0.0799 -0.0531  0.1390
 1145loPI   C4B17312  15.785  11.949   6.223  0.1848  0.1799  0.1776
 1146loPI    C117313  12.011   6.225   4.636  0.0436  0.2496  0.1983
 1146loPI    C217314  11.844   6.477   4.374  0.2635  0.1167 -0.0767
 1146loPI    C317315  11.682   6.117   4.437  0.2441  0.1260 -0.0738
 1146loPI   PO417316  12.037   6.398   4.921 -0.1147 -0.0706 -0.3252
 1146loPI   GL117317  11.910   6.575   5.251  0.0902  0.0190 -0.3667
 1146loPI   GL217318  12.078   6.392   5.594  0.3342  0.2483 -0.2875
 1146loPI   C1A17319  11.668   6.770   5.591 -0.1561 -0.0168  0.2234
 1146loPI   C2A17320  11.896   6.752   5.991 -0.1061 -0.2767 -0.0037
 1146loPI   C3A17321  11.822   6.458   6.329 -0.0810 -0.3483  0.2327
 1146loPI   C4A17322  11.808   6.286   6.736  0.2232 -0.1130  0.0530
 1146loPI   C5A17323  11.705   6.239   7.173 -0.0518 -0.0052  0.2799
 1146loPI   C6A17324  11.741   6.392   7.632 -0.0118  0.2769 -0.0413
 1146loPI   C1B17325  11.918   6.085   5.949 -0.2023  0.1868  0.1355
 1146loPI   C2B17326  11.592   5.976   6.307 -0.2027  0.1520  0.0957
 1146loPI   C3B17327  11.618   5.817   6.681 -0.0660 -0.4988  0.0701
 1146loPI   C4B17328  11.701   5.736   7.095  0.1701  0.1120 -0.1783
 1147loPI    C117329   0.638  18.250   5.080 -0.1310  0.1753  0.0900
 1147loPI    C217330   0.306  18.376   4.897  0.0512  0.2703 -0.1819
 1147loPI    C317331   0.563  18.140   4.703  0.1008  0.1246  0.0572
 1147loPI   PO417332   0.599  18.050   5.248  0.2833 -0.0801  0.1405
 1147loPI   GL117333   0.436  17.845   5.586  0.4401 -0.0010  0.2192
 1147loPI   GL217334   0.283  17.680   5.469 -0.0609  0.1609 -0.0946
 1147loPI   C1A17335   0.071  18.108   5.851 -0.1149 -0.2607  0.0384
 1147loPI   C2A17336  -0.273  18.100   6.220  0.1881  0.2230  0.0028
 1147loPI   C3A17337  -0.494  18.312   6.515  0.0750 -0.2900 -0.1795
 1147loPI   C4A17338  -0.494  18.518   6.852  0.0387  0.1348  0.1480
 1147loPI   C5A17339  -0.474  18.574   7.292 -0.0836 -0.0038  0.0251
 1147loPI   C6A17340  -0.565  18.958   7.546 -0.0077 -0.0016 -0.1462
 1147loPI   C1B17341   0.339  17.360   5.819  0.1127 -0.0002 -0.0785
 1147loPI   C2B17342   0.077  17.246   6.217  0.0354 -0.0396  0.2199
 1147loPI   C3B17343   0.087  17.166   6.629  0.1002 -0.1506  0.0474
 1147loPI   C4B17344  -0.040  17.278   7.071  0.1254 -0.3531 -0.1015
 1148POPI    C117345  11.890  14.530   4.580  0.1038 -0.3106 -0.1365
 1148POPI    C217346  12.277  14.601   4.651  0.0309 -0.0045 -0.0282
 1148POPI    C317347  12.056  14.873   4.459 -0.0932 -0.2492 -0.2377
 1148POPI   PO417348  11.817  14.382   4.782 -0.1934  0.2089  0.0364
 1148POPI   GL117349  12.090  14.159   5.109 -0.1801 -0.1693 -0.0338
 1148POPI   GL217350  12.401  14.310   5.018  0.1671  0.0449  0.0586
 1148POPI   C1A17351  12.052  14.052   5.524 -0.0056  0.1388  0.0069
 1148POPI   D2A17352  12.103  14.045   6.024 -0.1618  0.0281  0.0690
 1148POPI   C3A17353  11.805  14.151   6.371  0.0992 -0.2417  0.0259
 1148POPI   C4A17354  11.569  14.134   6.848  0.1248  0.0104  0.0925
 1148POPI   C1B17355  12.357  14.574   5.276 -0.1040  0.1630 -0.1089
 1148POPI   C2B17356  12.229  14.909   5.429 -0.2711 -0.2064 -0.0601
 1148POPI   C3B17357  12.273  15.052   5.813  0.1414  0.1258 -0.0794
 1148POPI   C4B17358  12.164  15.369   5.962 -0.0004  0.3044 -0.0405
 1149POPI    C117359   9.289   9.209   4.788  0.1298 -0.0249 -0.2608
 1149POPI    C217360   8.954   9.380   4.651 -0.2352 -0.2361  0.3284
 1149POPI    C317361   9.096   9.049   4.477 -0.3356 -0.1509  0.0808
 1149POPI   PO417362   9.220   9.208   5.036  0.1008  0.1298  0.3495
 1149POPI   GL117363   9.300   9.350   5.533 -0.1554 -0.2449 -0.0722
 1149POPI   GL217364   9.607   9.215   5.349  0.2760  0.0686  0.0331
 1149POPI   C1A17365   8.981   9.351   5.882 -0.0752 -0.0506  0.1275
 1149POPI   D2A17366   8.743   9.555   6.152 -0.3236  0.0770 -0.1897
 1149POPI   C3A17367   8.479   9.543   6.442  0.4044  0.1070 -0.3291
 1149POPI   C4A17368   8.408   9.543   6.835  0.0313 -0.1008  0.0545
 1149POPI   C1B17369   9.501   8.930   5.720  0.0755 -0.1580 -0.0717
 1149POPI   C2B17370   9.404   9.066   6.099  0.1183 -0.0367  0.0938
 1149POPI   C3B17371   9.167   9.340   6.326  0.0214 -0.2001  0.2150
 1149POPI   C4B17372   9.131   9.791   6.504  0.2686  0.0809 -0.2824
 1150POPI    C117373   4.389  15.172   4.780  0.1571  0.0470  0.0554
 1150POPI    C217374   4.219  15.359   4.470  0.0758  0.0285  0.0886
 1150POPI    C317375   4.317  14.972   4.440  0.0006  0.0075  0.1110
 1150POPI   PO417376   4.290  15.196   5.001  0.1020 -0.2342 -0.0258
 1150POPI   GL117377   4.300  14.966   5.374 -0.1400 -0.2235 -0.0075
 1150POPI   GL217378   4.547  14.776   5.422 -0.0475 -0.1342  0.0115
 1150POPI   C1A17379   4.032  14.984   5.765 -0.2193  0.0054 -0.0395
 1150POPI   D2A17380   3.891  14.924   6.114 -0.1490  0.1611 -0.1203
 1150POPI   C3A17381   4.137  14.855   6.469  0.4094 -0.0879 -0.3077
 1150POPI   C4A17382   4.128  14.826   6.927  0.4266  0.3565 -0.0066
 1150POPI   C1B17383   4.443  14.682   5.913  0.2540  0.0996  0.2912
 1150POPI   C2B17384   4.426  14.501   6.227  0.3445  0.0875  0.0703
 1150POPI   C3B17385   4.331  14.421   6.588 -0.0417  0.1345 -0.1730
 1150POPI   C4B17386   4.318  14.109   6.877 -0.1453  0.2039  0.1213
 1151POPI    C117387  18.470   9.557   5.502  0.0576 -0.0200  0.0878
 1151POPI    C217388  18.851   9.595   5.616  0.0743 -0.1129  0.0626
 1151POPI    C317389  18.699   9.232   5.545  0.0125 -0.0684 -0.0341
 1151POPI   PO417390  18.362   9.660   5.672  0.0337  0.1465  0.4048
 1151POPI   GL117391  18.467   9.947   6.017  0.3117 -0.1463 -0.1955
 1151POPI   GL217392  18.176  10.082   5.841  0.1380  0.2785  0.0872
 1151POPI   C1A17393  18.283   9.773   6.395  0.2432  0.3669 -0.1899
 1151POPI   D2A17394  18.156   9.885   6.826  0.2687  0.2111  0.0051
 1151POPI   C3A17395  18.546   9.851   7.069  0.1117  0.0629 -0.2336
 1151POPI   C4A17396  19.031   9.932   7.098  0.1453  0.0659  0.1936
 1151POPI   C1B17397  18.101  10.264   6.293 -0.0926  0.0562  0.2717
 1151POPI   C2B17398  18.071  10.380   6.697 -0.0848 -0.0604 -0.2461
 1151POPI   C3B17399  17.829  10.407   7.095 -0.0483  0.0813 -0.3511
 1151POPI   C4B17400  17.750  10.099   7.471  0.2166  0.4958 -0.1688
 1152POPI    C117401  10.150  14.090   5.025  0.1453  0.0297 -0.0238
 1152POPI    C217402  10.086  14.010   4.638 -0.0577 -0.1908  0.0525
 1152POPI    C317403   9.776  14.063   4.885  0.0709 -0.0396  0.1839
 1152POPI   PO417404  10.321  13.912   5.137  0.0092 -0.0671  0.0683
 1152POPI   GL117405  10.297  13.881   5.540 -0.2826 -0.1015  0.4474
 1152POPI   GL217406  10.187  13.764   5.769 -0.0404  0.1816 -0.2078
 1152POPI   C1A17407  10.606  13.973   5.851 -0.0230 -0.1175  0.0779
 1152POPI   D2A17408  10.821  14.167   6.245 -0.0745  0.1271  0.1851
 1152POPI   C3A17409  10.807  13.956   6.677  0.0111  0.2250  0.0250
 1152POPI   C4A17410  10.944  14.250   7.080  0.0562 -0.0934  0.4276
 1152POPI   C1B17411  10.325  13.924   6.298  0.0933  0.1121  0.2696
 1152POPI   C2B17412  10.247  13.959   6.717  0.3826 -0.0770 -0.1374
 1152POPI   C3B17413  10.471  13.961   7.101 -0.3166 -0.1668  0.0602
 1152POPI   C4B17414  10.516  14.209   7.424 -0.0873  0.1856 -0.2237
 1153POPI    C117415  15.288  17.936   4.394  0.0305 -0.0830 -0.2245
 1153POPI    C217416  15.139  17.731   4.085 -0.2239 -0.0429 -0.1305
 1153POPI    C317417  14.909  17.993   4.280  0.0948  0.3308 -0.2452
 1153POPI   PO417418  15.336  17.763   4.630 -0.4326 -0.0044 -0.2647
 1153POPI   GL117419  15.483  17.789   4.969 -0.4061 -0.1243 -0.0633
 1153POPI   GL217420  15.518  17.439   5.060 -0.1198  0.2029 -0.3933
 1153POPI   C1A17421  15.590  17.733   5.473  0.2129  0.0756  0.0824
 1153POPI   D2A17422  15.421  17.741   5.866 -0.3010 -0.0929  0.0579
 1153POPI   C3A17423  15.721  17.802   6.155  0.4223 -0.2332  0.0240
 1153POPI   C4A17424  16.099  17.988   6.283  0.1343  0.2452  0.0500
 1153POPI   C1B17425  15.248  17.381   5.494 -0.1401  0.0960  0.0722
 1153POPI   C2B17426  15.339  17.265   5.894  0.1241 -0.1817  0.0043
 1153POPI   C3B17427  15.564  17.342   6.301  0.1203  0.0560  0.0881
 1153POPI   C4B17428  15.670  17.143   6.570  0.2055 -0.1376 -0.0279
 1154POPI    C117429  12.986   2.213   4.588  0.1206  0.0210 -0.1419
 1154POPI    C217430  13.295   2.033   4.767 -0.0427 -0.0243  0.0999
 1154POPI    C317431  13.253   2.010   4.370  0.2022 -0.1106  0.0769
 1154POPI   PO417432  12.929   2.359   4.763 -0.1638  0.0122  0.1064
 1154POPI   GL117433  12.649   2.370   5.054 -0.0658 -0.0843  0.4551
 1154POPI   GL217434  12.537   2.067   4.923 -0.1479  0.3963  0.2129
 1154POPI   C1A17435  12.672   2.294   5.473  0.0876  0.0004  0.1686
 1154POPI   D2A17436  12.920   2.248   5.777  0.2365  0.0013 -0.0005
 1154POPI   C3A17437  12.655   2.050   5.988 -0.0418  0.0309  0.0412
 1154POPI   C4A17438  12.729   1.948   6.381  0.0870  0.2287 -0.1734
 1154POPI   C1B17439  12.353   1.936   5.333 -0.2960 -0.0768  0.0592
 1154POPI   C2B17440  12.170   1.597   5.572  0.2573  0.4358  0.2634
 1154POPI   C3B17441  11.915   1.245   5.514 -0.0801 -0.1900 -0.0481
 1154POPI   C4B17442  11.840   0.870   5.678  0.1607  0.1853  0.0821
 1155POPI    C117443  16.191  11.527   5.098  0.0871  0.0828 -0.1724
 1155POPI    C217444  16.504  11.478   4.854  0.3146 -0.1063  0.1497
 1155POPI    C317445  16.139  11.367   4.735  0.3624  0.1332 -0.2366
 1155POPI   PO417446  16.236  11.791   5.316 -0.1061 -0.1957  0.0142
 1155POPI   GL117447  16.339  11.837   5.748  0.2483 -0.0898  0.1735
 1155POPI   GL217448  16.643  11.873   5.963  0.1132  0.1953 -0.2940
 1155POPI   C1A17449  16.174  12.144   5.935 -0.1598  0.0662 -0.0699
 1155POPI   D2A17450  16.220  12.251   6.403  0.5185 -0.2763 -0.1282
 1155POPI   C3A17451  15.921  12.535   6.561 -0.1386 -0.1019 -0.0277
 1155POPI   C4A17452  16.049  12.953   6.644 -0.0598 -0.3348  0.1991
 1155POPI   C1B17453  16.369  11.741   6.242 -0.1054  0.1110  0.1768
 1155POPI   C2B17454  16.305  11.798   6.563 -0.0830  0.1611 -0.2260
 1155POPI   C3B17455  15.955  11.967   6.753 -0.0891  0.2020 -0.1860
 1155POPI   C4B17456  16.018  11.968   7.098 -0.0228  0.3962 -0.3035
 1156POPI    C117457  11.351   8.957   5.260  0.3189 -0.1501  0.0119
 1156POPI    C217458  11.190   8.640   5.078  0.0751 -0.1026  0.1389
 1156POPI    C317459  11.481   8.849   4.898  0.0298 -0.2194 -0.0733
 1156POPI   PO417460  11.339   8.774   5.552 -0.1463  0.1820  0.0974
 1156POPI   GL117461  11.056   8.650   5.907 -0.0601  0.1850 -0.2364
 1156POPI   GL217462  10.785   8.396   6.148  0.1681 -0.5029  0.0435
 1156POPI   C1A17463  11.143   9.055   6.152 -0.2237  0.3804  0.0951
 1156POPI   D2A17464  10.748   9.235   6.199  0.0079 -0.5994  0.1489
 1156POPI   C3A17465  10.492   8.999   6.297 -0.3390  0.3379  0.0243
 1156POPI   C4A17466  10.269   8.574   6.105 -0.0663 -0.1910 -0.2242
 1156POPI   C1B17467  10.806   8.666   6.474 -0.2226  0.2174  0.2126
 1156POPI   C2B17468  10.929   9.052   6.624 -0.0781  0.2989 -0.2057
 1156POPI   C3B17469  10.609   9.210   6.783  0.1938 -0.2149  0.1512
 1156POPI   C4B17470  10.329   9.034   7.196  0.2795  0.4508 -0.1023
 1157POPI    C117471   5.251   8.612   5.048 -0.1753  0.0372 -0.2196
 1157POPI    C217472   5.054   8.697   4.710 -0.0542  0.3157 -0.2230
 1157POPI    C317473   5.430   8.825   4.760 -0.0849  0.3114  0.0339
 1157POPI   PO417474   4.974   8.682   5.248 -0.2194 -0.1218  0.1965
 1157POPI   GL117475   4.841   8.582   5.720 -0.0362 -0.1937 -0.2110
 1157POPI   GL217476   5.043   8.383   5.929 -0.2092 -0.0855 -0.0044
 1157POPI   C1A17477   4.622   8.791   6.010 -0.1206  0.1299  0.0898
 1157POPI   D2A17478   4.596   8.908   6.439 -0.0675  0.3262  0.0825
 1157POPI   C3A17479   4.273   8.765   6.602  0.1528 -0.0520 -0.1588
 1157POPI   C4A17480   3.919   8.849   6.849 -0.4543  0.1394 -0.0222
 1157POPI   C1B17481   4.997   8.565   6.296 -0.1273 -0.2204 -0.1655
 1157POPI   C2B17482   4.787   8.530   6.688 -0.2980  0.3067 -0.2067
 1157POPI   C3B17483   4.529   8.552   6.987 -0.5806 -0.1080 -0.4463
 1157POPI   C4B17484   4.237   8.853   7.213 -0.6560  0.1286  0.1374
 1158POPI    C117485   3.880   6.949   5.584  0.1068 -0.1301 -0.2612
 1158POPI    C217486   3.654   6.944   5.254  0.0944 -0.0984 -0.2533
 1158POPI    C317487   3.842   7.281   5.363 -0.1098 -0.0363 -0.0873
 1158POPI   PO417488   3.912   6.674   5.594 -0.0138  0.0554 -0.0472
 1158POPI   GL117489   4.121   6.528   5.918  0.2967  0.0145 -0.0245
 1158POPI   GL217490   3.904   6.278   6.113  0.2085  0.0360  0.0467
 1158POPI   C1A17491   4.446   6.657   6.153 -0.2624  0.2357  0.1118
 1158POPI   D2A17492   4.461   6.788   6.578 -0.1043  0.0431 -0.2142
 1158POPI   C3A17493   4.435   7.252   6.830  0.0383 -0.0115  0.1162
 1158POPI   C4A17494   4.430   7.674   6.766  0.1121 -0.0743  0.0827
 1158POPI   C1B17495   3.790   5.986   6.514  0.3184 -0.0952  0.1864
 1158POPI   C2B17496   3.687   5.878   6.944  0.0797  0.0843  0.2941
 1158POPI   C3B17497   3.588   6.012   7.355 -0.2747 -0.1432 -0.0046
 1158POPI   C4B17498   3.629   5.880   7.800  0.2547  0.3497  0.5160
 1159POPI    C117499   1.465   5.341   5.316 -0.1165 -0.1153 -0.1219
 1159POPI    C217500   1.072   5.288   5.261 -0.1117 -0.2105 -0.0653
 1159POPI    C317501   1.321   5.279   4.948 -0.1734  0.0189 -0.1228
 1159POPI   PO417502   1.494   5.565   5.447 -0.2151  0.1894  0.0491
 1159POPI   GL117503   1.296   5.501   5.856 -0.0108  0.1022 -0.0342
 1159POPI   GL217504   1.463   5.180   5.817  0.1959 -0.0606  0.1243
 1159POPI   C1A17505   1.469   5.389   6.242 -0.1517 -0.3224 -0.0036
 1159POPI   D2A17506   1.476   5.094   6.538 -0.0585  0.0078 -0.2592
 1159POPI   C3A17507   1.457   5.405   6.798 -0.0396  0.0371 -0.1859
 1159POPI   C4A17508   1.647   5.499   7.102  0.1297  0.0218 -0.0545
 1159POPI   C1B17509   1.574   4.891   6.089 -0.0706 -0.0068 -0.2532
 1159POPI   C2B17510   1.761   4.698   6.472  0.4092 -0.0230  0.3567
 1159POPI   C3B17511   1.704   4.492   6.864 -0.3467 -0.0134  0.0504
 1159POPI   C4B17512   1.604   4.201   7.292  0.0462 -0.1101 -0.3079
 1160POPI    C117513  14.562   6.634   5.090  0.1192 -0.2950 -0.1071
 1160POPI    C217514  14.461   6.475   4.737 -0.2863  0.0065 -0.1345
 1160POPI    C317515  14.538   6.867   4.766  0.2484 -0.1012  0.0199
 1160POPI   PO417516  14.393   6.437   5.284  0.0019  0.1362  0.0601
 1160POPI   GL117517  14.457   6.242   5.659 -0.0365 -0.1588 -0.0810
 1160POPI   GL217518  14.083   6.396   5.741  0.0671 -0.2007 -0.2986
 1160POPI   C1A17519  14.325   6.151   6.102  0.0295  0.1773 -0.0345
 1160POPI   D2A17520  14.162   6.286   6.530  0.2382 -0.0891  0.0670
 1160POPI   C3A17521  14.323   5.967   6.938  0.2585  0.0077  0.2170
 1160POPI   C4A17522  14.390   6.181   7.332 -0.1269 -0.1797 -0.1228
 1160POPI   C1B17523  13.821   6.425   6.102  0.0359  0.0496 -0.1228
 1160POPI   C2B17524  13.620   6.139   6.375 -0.0597 -0.4352  0.1064
 1160POPI   C3B17525  13.262   6.231   6.657  0.0740 -0.1799  0.1271
 1160POPI   C4B17526  12.921   6.179   6.724 -0.0034 -0.0187 -0.0713
 1161POPI    C117527  10.837   3.770   5.046  0.0704 -0.0682  0.0959
 1161POPI    C217528  11.224   3.857   5.098  0.1720 -0.3388 -0.1786
 1161POPI    C317529  11.108   3.476   5.058 -0.1270 -0.2609 -0.0812
 1161POPI   PO417530  10.734   3.958   5.140  0.1819 -0.1834  0.1222
 1161POPI   GL117531  10.706   4.294   5.514  0.1226 -0.0948 -0.3252
 1161POPI   GL217532  11.062   4.191   5.453 -0.0396  0.0794 -0.0414
 1161POPI   C1A17533  10.806   4.197   5.949 -0.0578 -0.2109 -0.1156
 1161POPI   D2A17534  10.643   4.082   6.395 -0.0347  0.0476 -0.0792
 1161POPI   C3A17535  10.266   4.248   6.788 -0.1771 -0.1419  0.0999
 1161POPI   C4A17536   9.957   4.272   7.114  0.1317 -0.1743  0.3308
 1161POPI   C1B17537  11.377   4.127   5.772  0.2295 -0.0265 -0.2468
 1161POPI   C2B17538  11.547   4.122   6.211  0.0888 -0.1191 -0.0527
 1161POPI   C3B17539  11.669   4.419   6.597  0.0460  0.1268  0.0575
 1161POPI   C4B17540  11.882   4.164   6.916  0.1375  0.1888 -0.0115
 1162POPI    C117541  14.181  14.207   4.777 -0.2104 -0.0589  0.0323
 1162POPI    C217542  13.998  14.443   4.510 -0.0825 -0.1452 -0.1332
 1162POPI    C317543  14.220  14.133   4.385  0.1842 -0.0373  0.0633
 1162POPI   PO417544  14.201  14.310   5.056 -0.1466 -0.1843 -0.0345
 1162POPI   GL117545  14.184  14.537   5.445  0.0909 -0.1738 -0.0689
 1162POPI   GL217546  13.896  14.659   5.490  0.1574  0.0638  0.0752
 1162POPI   C1A17547  14.347  14.331   5.762  0.0379 -0.3464  0.1693
 1162POPI   D2A17548  14.274  14.002   6.003  0.1784  0.1603 -0.2812
 1162POPI   C3A17549  14.030  13.878   6.022 -0.0268  0.0507 -0.0036
 1162POPI   C4A17550  13.753  13.723   5.783 -0.0834  0.2738 -0.2176
 1162POPI   C1B17551  14.074  14.800   5.859 -0.0127  0.0252  0.0696
 1162POPI   C2B17552  13.981  14.771   6.278  0.1204 -0.0942  0.0454
 1162POPI   C3B17553  13.972  14.579   6.667  0.0118  0.0449  0.2104
 1162POPI   C4B17554  13.771  14.527   7.028  0.0198 -0.4860 -0.2433
 1163POPI    C117555   3.661   8.102   5.203 -0.1238  0.0424  0.0495
 1163POPI    C217556   3.528   7.823   4.948  0.0431  0.0471 -0.0441
 1163POPI    C317557   3.920   7.859   5.018  0.0129  0.1771  0.0624
 1163POPI   PO417558   3.586   8.062   5.433  0.3136  0.1316 -0.1029
 1163POPI   GL117559   3.584   7.949   5.861  0.0545  0.1511  0.2957
 1163POPI   GL217560   3.848   7.912   6.011 -0.1691 -0.0576 -0.2471
 1163POPI   C1A17561   3.373   8.046   6.178  0.0446  0.1319 -0.1737
 1163POPI   D2A17562   3.440   8.135   6.562 -0.1321 -0.2181 -0.1878
 1163POPI   C3A17563   3.412   7.932   6.896  0.0417  0.1687  0.1205
 1163POPI   C4A17564   3.150   7.980   7.202  0.2482  0.2797 -0.0555
 1163POPI   C1B17565   4.175   7.974   6.320  0.1889 -0.2695  0.0974
 1163POPI   C2B17566   3.875   7.835   6.635 -0.0242 -0.2304  0.1520
 1163POPI   C3B17567   3.946   7.881   7.050 -0.0861 -0.2441 -0.0697
 1163POPI   C4B17568   4.052   8.238   7.369  0.0346 -0.4576  0.1594
 1164POPI    C117569   3.427  15.387   4.737  0.0807  0.0062 -0.3588
 1164POPI    C217570   3.517  15.745   4.582  0.0188  0.1447 -0.0821
 1164POPI    C317571   3.681  15.413   4.430  0.3071  0.3155 -0.1520
 1164POPI   PO417572   3.528  15.402   4.990 -0.2116 -0.0217 -0.1133
 1164POPI   GL117573   3.326  15.453   5.309 -0.1391  0.3374 -0.2963
 1164POPI   GL217574   2.997  15.576   5.446 -0.1839  0.0187  0.0686
 1164POPI   C1A17575   3.506  15.487   5.685 -0.1206  0.1092 -0.1186
 1164POPI   D2A17576   3.876  15.433   5.980  0.3519 -0.0380 -0.4056
 1164POPI   C3A17577   3.771  15.353   6.381 -0.1098  0.2152 -0.0646
 1164POPI   C4A17578   3.751  15.059   6.603 -0.0569 -0.2971 -0.2108
 1164POPI   C1B17579   3.026  15.425   5.867 -0.2168  0.2485  0.0486
 1164POPI   C2B17580   3.308  15.522   6.174 -0.2405 -0.0005  0.0277
 1164POPI   C3B17581   3.375  15.480   6.656 -0.1633  0.2182 -0.4298
 1164POPI   C4B17582   3.526  15.594   6.987 -0.3876 -0.0689 -0.0473
 1165POPI    C117583   7.968   9.599   4.781 -0.1638  0.1266  0.2829
 1165POPI    C217584   7.909   9.253   4.974 -0.3325  0.1455  0.2671
 1165POPI    C317585   7.966   9.254   4.578  0.2584  0.0840  0.3423
 1165POPI   PO417586   7.922   9.799   5.006 -0.0507  0.0292  0.1619
 1165POPI   GL117587   7.941   9.931   5.422  0.1837  0.1512  0.0184
 1165POPI   GL217588   7.570   9.827   5.502  0.3064  0.0520 -0.2287
 1165POPI   C1A17589   7.771  10.165   5.800 -0.3076 -0.2183  0.1953
 1165POPI   D2A17590   7.782  10.304   6.164  0.1575 -0.0469  0.1122
 1165POPI   C3A17591   7.792  10.486   6.548 -0.1338  0.4472 -0.2638
 1165POPI   C4A17592   7.570  10.590   6.966 -0.2433 -0.0222  0.0908
 1165POPI   C1B17593   7.747   9.662   5.864  0.0643  0.0895 -0.2397
 1165POPI   C2B17594   7.599   9.503   6.267  0.1363  0.1509 -0.3422
 1165POPI   C3B17595   7.328   9.274   6.561 -0.1218  0.0499  0.0397
 1165POPI   C4B17596   7.137   8.851   6.852  0.1606 -0.0880  0.1634
 1166POPI    C117597   6.198  18.567   5.112 -0.0646  0.3642  0.2076
 1166POPI    C217598   5.859  18.590   4.901  0.0482  0.0578 -0.0139
 1166POPI    C317599   6.162  18.837   4.819 -0.1572  0.4125  0.2628
 1166POPI   PO417600   6.203  18.378   5.340 -0.1614 -0.0767 -0.0025
 1166POPI   GL117601   6.256  18.308   5.654 -0.0981 -0.0076  0.0276
 1166POPI   GL217602   6.118  18.174   5.960  0.3241 -0.1260  0.2618
 1166POPI   C1A17603   6.747  18.462   5.790  0.4261  0.2049 -0.0124
 1166POPI   D2A17604   6.777  18.507   6.185  0.0226 -0.1817 -0.3621
 1166POPI   C3A17605   6.393  18.397   6.251  0.0179  0.0615 -0.0905
 1166POPI   C4A17606   6.157  18.467   6.557  0.1845 -0.1775 -0.3687
 1166POPI   C1B17607   6.139  18.004   6.466 -0.0174 -0.0306 -0.0705
 1166POPI   C2B17608   6.277  18.004   6.940  0.0362  0.1390 -0.1601
 1166POPI   C3B17609   6.352  17.893   7.298 -0.0873  0.1134  0.0042
 1166POPI   C4B17610   6.306  17.651   7.573  0.1166  0.0485 -0.0244
 1167POPI    C117611   2.476   0.741   5.263 -0.1479  0.0562 -0.0348
 1167POPI    C217612   2.614   0.900   4.923  0.1404 -0.1485 -0.0168
 1167POPI    C317613   2.629   0.505   4.980 -0.0496 -0.1307  0.1716
 1167POPI   PO417614   2.585   1.046   5.482 -0.0914 -0.0179  0.0793
 1167POPI   GL117615   2.252   1.125   5.745 -0.0988 -0.0587 -0.0840
 1167POPI   GL217616   2.517   0.952   5.981  0.0469  0.0245 -0.2295
 1167POPI   C1A17617   2.165   1.296   6.164  0.0534  0.2546 -0.0263
 1167POPI   D2A17618   2.253   1.333   6.543 -0.0438 -0.0922 -0.2636
 1167POPI   C3A17619   2.399   1.142   6.873  0.1470  0.1820  0.3332
 1167POPI   C4A17620   2.705   1.163   7.162  0.2233 -0.1055  0.2099
 1167POPI   C1B17621   2.321   0.752   6.330  0.1417  0.2359 -0.0247
 1167POPI   C2B17622   1.872   0.698   6.534  0.2225 -0.2661  0.1833
 1167POPI   C3B17623   1.424   0.911   6.523 -0.4315  0.6268  0.0981
 1167POPI   C4B17624   0.965   0.923   6.413 -0.0152  0.1079 -0.0314
 1168POPI    C117625  17.521   6.170   4.878  0.0279 -0.0814  0.0061
 1168POPI    C217626  17.871   6.303   4.737  0.0898 -0.0051  0.2277
 1168POPI    C317627  17.536   6.359   4.526  0.2079 -0.0650  0.0217
 1168POPI   PO417628  17.576   6.007   5.121 -0.1393 -0.0494  0.1456
 1168POPI   GL117629  17.478   5.921   5.486 -0.1120 -0.1220  0.3425
 1168POPI   GL217630  17.203   6.094   5.592 -0.2433 -0.3971  0.0326
 1168POPI   C1A17631  17.580   5.909   5.985 -0.0088 -0.2232 -0.1237
 1168POPI   D2A17632  17.937   6.141   6.155 -0.2389  0.0889  0.1488
 1168POPI   C3A17633  17.844   6.237   6.593 -0.0666 -0.1276  0.1971
 1168POPI   C4A17634  17.837   6.415   7.015 -0.2245  0.1023  0.0771
 1168POPI   C1B17635  17.045   6.333   6.035  0.1457 -0.1608  0.2569
 1168POPI   C2B17636  16.824   6.382   6.417 -0.3160  0.2685  0.2665
 1168POPI   C3B17637  16.944   6.414   6.840 -0.0213 -0.1407  0.2348
 1168POPI   C4B17638  17.158   6.480   7.202 -0.0099  0.1398  0.4356
 1169POPI    C117639   5.024   1.976   5.306 -0.0615  0.0274  0.0332
 1169POPI    C217640   5.103   2.358   5.217  0.1126  0.0694  0.3510
 1169POPI    C317641   5.330   2.164   5.482 -0.0710 -0.2092  0.3089
 1169POPI   PO417642   4.763   1.911   5.244 -0.0018  0.0742  0.1331
 1169POPI   GL117643   4.602   2.106   5.585 -0.2355 -0.0867  0.3103
 1169POPI   GL217644   4.334   1.997   5.792  0.1030  0.3530  0.0309
 1169POPI   C1A17645   4.902   2.276   5.763 -0.1741  0.1949 -0.0365
 1169POPI   D2A17646   5.094   2.388   6.194 -0.0869  0.3772 -0.0523
 1169POPI   C3A17647   5.190   2.723   6.025 -0.0890  0.2950  0.0161
 1169POPI   C4A17648   5.356   2.762   5.571 -0.1233 -0.3165  0.1542
 1169POPI   C1B17649   4.699   2.043   6.210 -0.1324 -0.2804 -0.1427
 1169POPI   C2B17650   5.112   1.938   6.496 -0.1038 -0.1259  0.0732
 1169POPI   C3B17651   5.275   1.800   6.864 -0.1923  0.2549 -0.1160
 1169POPI   C4B17652   5.109   1.458   7.070 -0.0076 -0.2008  0.1508
 1170POPI    C117653   0.300   6.001   5.162  0.0395 -0.1768  0.1638
 1170POPI    C217654   0.409   6.081   4.785 -0.1669 -0.1622  0.1059
 1170POPI    C317655   0.108   6.284   4.954 -0.1983 -0.2976  0.2151
 1170POPI   PO417656   0.518   5.973   5.388 -0.0176 -0.1329 -0.1536
 1170POPI   GL117657   0.543   6.117   5.769 -0.0839  0.0685  0.0151
 1170POPI   GL217658   0.833   6.088   5.919 -0.0695 -0.0483 -0.1479
 1170POPI   C1A17659   0.368   6.250   6.241 -0.2696  0.1083  0.1470
 1170POPI   D2A17660   0.384   6.211   6.629  0.1348 -0.2403 -0.3815
 1170POPI   C3A17661   0.525   6.424   6.844 -0.2075 -0.2403 -0.1353
 1170POPI   C4A17662   0.758   6.860   6.856 -0.0740  0.0268  0.3338
 1170POPI   C1B17663   0.812   6.139   6.399 -0.2635 -0.3746  0.0810
 1170POPI   C2B17664   0.979   6.143   6.844  0.0266 -0.2099  0.1415
 1170POPI   C3B17665   1.043   6.430   7.184 -0.1079 -0.0257  0.2319
 1170POPI   C4B17666   1.128   6.822   7.183 -0.0654 -0.2399  0.1384
 1171POPI    C117667   3.548  10.145   4.745 -0.3385  0.1170  0.2090
 1171POPI    C217668   3.248  10.033   4.506 -0.0368  0.1746 -0.2081
 1171POPI    C317669   3.523   9.766   4.619 -0.2318  0.1246  0.1638
 1171POPI   PO417670   3.330  10.316   5.016  0.1146  0.2056  0.2135
 1171POPI   GL117671   3.200  10.673   5.365 -0.1752 -0.0411 -0.3464
 1171POPI   GL217672   3.549  10.507   5.431 -0.0784  0.0229 -0.1359
 1171POPI   C1A17673   3.152  10.528   5.705 -0.4557 -0.1375  0.3045
 1171POPI   D2A17674   3.124  10.494   6.126 -0.0730  0.2530 -0.0859
 1171POPI   C3A17675   2.882  10.286   6.388 -0.0191  0.1926  0.2604
 1171POPI   C4A17676   2.925  10.376   6.870 -0.0868  0.0133 -0.0277
 1171POPI   C1B17677   3.648  10.427   5.786 -0.3301 -0.1740  0.4000
 1171POPI   C2B17678   3.691  10.607   6.139 -0.0684  0.0255  0.2618
 1171POPI   C3B17679   3.416  10.816   6.463  0.0773  0.0764  0.0877
 1171POPI   C4B17680   3.119  10.910   6.787  0.0776 -0.0290  0.1273
 1172POPI    C117681   7.411   5.222   5.045 -0.1185 -0.0064  0.1079
 1172POPI    C217682   7.195   5.401   4.761  0.0556  0.1362  0.0634
 1172POPI    C317683   7.428   5.089   4.668 -0.2635 -0.1317  0.1448
 1172POPI   PO417684   7.404   5.570   5.231 -0.0475 -0.2706 -0.2698
 1172POPI   GL117685   7.335   5.720   5.639 -0.1276  0.4338 -0.0941
 1172POPI   GL217686   7.672   5.751   5.798  0.0326  0.1141 -0.2547
 1172POPI   C1A17687   7.236   5.957   5.918  0.2241  0.1637 -0.0011
 1172POPI   D2A17688   6.934   5.943   6.153  0.0136 -0.0153  0.4340
 1172POPI   C3A17689   6.567   5.759   6.042 -0.0130  0.0309 -0.0356
 1172POPI   C4A17690   6.190   5.752   6.127  0.1351  0.0180  0.1136
 1172POPI   C1B17691   7.511   5.701   6.246 -0.2362  0.2825 -0.0081
 1172POPI   C2B17692   7.175   5.754   6.518 -0.3166  0.0803 -0.0558
 1172POPI   C3B17693   7.076   6.056   6.732 -0.1398 -0.0168  0.2479
 1172POPI   C4B17694   7.194   6.089   7.143 -0.1829  0.4477  0.0996
 1173POPI    C117695  15.138   8.522   4.872  0.0502 -0.2411  0.1076
 1173POPI    C217696  15.432   8.250   4.863 -0.0395 -0.3372  0.0607
 1173POPI    C317697  15.423   8.544   4.591  0.0101 -0.3372  0.0590
 1173POPI   PO417698  15.101   8.617   5.021  0.4258  0.0398 -0.0950
 1173POPI   GL117699  15.124   8.805   5.449 -0.2195 -0.2566  0.2988
 1173POPI   GL217700  14.861   8.948   5.624  0.0320 -0.2851 -0.1020
 1173POPI   C1A17701  15.353   8.725   5.754  0.2897 -0.1440  0.0509
 1173POPI   D2A17702  15.693   8.881   5.971  0.0800 -0.2163 -0.0254
 1173POPI   C3A17703  15.696   8.914   6.462  0.1608  0.2154  0.0280
 1173POPI   C4A17704  15.546   8.877   6.834  0.2919 -0.0028 -0.2477
 1173POPI   C1B17705  14.814   8.902   6.103 -0.0427 -0.1330  0.2075
 1173POPI   C2B17706  14.620   8.966   6.579 -0.1620  0.4997  0.4446
 1173POPI   C3B17707  14.402   9.125   6.964  0.0292 -0.0814  0.1084
 1173POPI   C4B17708  14.506   9.207   7.341  0.0747  0.2756  0.5788
 1174POPI    C117709  15.735   9.456   4.878 -0.1293 -0.0695 -0.2332
 1174POPI    C217710  15.870   9.653   4.557 -0.0737 -0.0548 -0.2009
 1174POPI    C317711  15.518   9.464   4.542 -0.3645  0.4584 -0.0787
 1174POPI   PO417712  15.715   9.728   5.167  0.1091  0.3144 -0.1494
 1174POPI   GL117713  15.420   9.753   5.578  0.0090  0.2895 -0.0546
 1174POPI   GL217714  15.647  10.014   5.652  0.1192  0.0821  0.0588
 1174POPI   C1A17715  15.222   9.715   5.959  0.1088 -0.3453 -0.1111
 1174POPI   D2A17716  15.192   9.788   6.444 -0.0372  0.0389  0.1712
 1174POPI   C3A17717  15.157  10.212   6.588  0.0333  0.0379  0.0885
 1174POPI   C4A17718  15.122  10.391   7.008  0.1197 -0.1112 -0.1399
 1174POPI   C1B17719  15.567  10.102   6.154 -0.0995  0.1614  0.0461
 1174POPI   C2B17720  15.607   9.999   6.521  0.0221 -0.0808  0.1282
 1174POPI   C3B17721  15.468   9.851   6.925 -0.0522  0.1440  0.1420
 1174POPI   C4B17722  15.330   9.729   7.266 -0.2756 -0.0444 -0.2891
 1175POPI    C117723  15.321   2.371   4.703  0.1413 -0.1922 -0.0432
 1175POPI    C217724  15.159   2.728   4.781  0.1616 -0.1640 -0.1284
 1175POPI    C317725  15.357   2.670   4.439  0.3497 -0.1918 -0.0158
 1175POPI   PO417726  15.301   2.291   4.987  0.2067  0.2655  0.1774
 1175POPI   GL117727  15.456   2.232   5.261 -0.0823  0.2593 -0.1592
 1175POPI   GL217728  15.333   1.960   5.418 -0.1874 -0.1319  0.0630
 1175POPI   C1A17729  15.363   2.380   5.663  0.0182 -0.3441  0.0588
 1175POPI   D2A17730  15.384   2.277   6.114  0.2956 -0.0778 -0.1519
 1175POPI   C3A17731  15.209   2.407   6.445 -0.3885  0.1339 -0.0470
 1175POPI   C4A17732  15.051   2.324   6.765  0.0362  0.0735 -0.2071
 1175POPI   C1B17733  15.206   1.866   5.837 -0.0632  0.1995  0.0978
 1175POPI   C2B17734  15.037   1.918   6.361 -0.1769  0.2866  0.2038
 1175POPI   C3B17735  14.912   1.797   6.788  0.2136  0.1518 -0.2086
 1175POPI   C4B17736  14.877   1.338   6.847  0.0894  0.0729 -0.0099
 1176POPI    C117737   7.128  16.964   5.018  0.2211  0.0195 -0.0492
 1176POPI    C217738   7.293  17.059   4.666  0.1793  0.0854 -0.0511
 1176POPI    C317739   6.947  16.857   4.677  0.1436  0.1467 -0.0485
 1176POPI   PO417740   7.356  16.935   5.163  0.2378 -0.1132  0.3567
 1176POPI   GL117741   7.399  16.964   5.586  0.5213 -0.0118  0.1837
 1176POPI   GL217742   7.226  16.597   5.554  0.2113 -0.3722  0.0854
 1176POPI   C1A17743   7.295  17.300   5.953 -0.0306  0.0296 -0.0418
 1176POPI   D2A17744   7.445  17.417   6.403  0.0567  0.2643  0.1543
 1176POPI   C3A17745   7.231  17.475   6.781 -0.2692 -0.4278 -0.1000
 1176POPI   C4A17746   7.181  17.553   7.135 -0.2099 -0.1215 -0.0761
 1176POPI   C1B17747   7.435  16.592   5.970  0.0294  0.3024  0.3507
 1176POPI   C2B17748   7.674  16.932   6.156 -0.2863 -0.0798  0.0729
 1176POPI   C3B17749   7.881  17.071   6.538  0.0456  0.1959  0.0445
 1176POPI   C4B17750   8.318  17.001   6.779  0.1942  0.2327  0.3378
 1177POPI    C117751  10.789   7.386   5.101 -0.0128 -0.0571 -0.2993
 1177POPI    C217752  11.175   7.311   5.030 -0.0042 -0.1645 -0.1429
 1177POPI    C317753  10.915   7.324   4.726  0.1314 -0.0348 -0.2550
 1177POPI   PO417754  10.789   7.721   5.237 -0.1606 -0.0351 -0.1331
 1177POPI   GL117755  10.909   7.862   5.605 -0.0187  0.1318  0.1570
 1177POPI   GL217756  11.185   7.934   5.803  0.2269  0.0687 -0.0087
 1177POPI   C1A17757  10.723   7.599   5.987  0.0458  0.2095 -0.1176
 1177POPI   D2A17758  10.746   7.301   6.433  0.2092  0.0445  0.0555
 1177POPI   C3A17759  10.441   7.333   6.764 -0.0638 -0.3620 -0.0892
 1177POPI   C4A17760  10.289   7.212   7.102  0.0100 -0.3295 -0.2540
 1177POPI   C1B17761  11.020   7.954   6.123 -0.2663 -0.1051 -0.0594
 1177POPI   C2B17762  10.832   7.849   6.426 -0.1909  0.1723 -0.2238
 1177POPI   C3B17763  10.767   7.694   6.739  0.0770  0.2007 -0.0435
 1177POPI   C4B17764  10.795   7.570   7.125 -0.1513  0.1181 -0.2286
 1178POPI    C117765  11.749  11.556   4.892  0.0587  0.1424  0.0397
 1178POPI    C217766  11.577  11.212   4.784 -0.0118  0.1845  0.0165
 1178POPI    C317767  11.616  11.509   4.518  0.1483  0.1552  0.0060
 1178POPI   PO417768  11.699  11.662   5.116 -0.2310  0.2384  0.0631
 1178POPI   GL117769  11.816  11.937   5.546 -0.1043 -0.4810 -0.5862
 1178POPI   GL217770  11.505  11.976   5.666  0.1146 -0.2135 -0.0552
 1178POPI   C1A17771  12.144  11.805   5.916  0.1843  0.2774 -0.0921
 1178POPI   D2A17772  12.266  11.939   6.332  0.1176 -0.1103  0.1662
 1178POPI   C3A17773  12.364  11.987   6.734 -0.1502 -0.2728 -0.3425
 1178POPI   C4A17774  12.476  12.010   7.118  0.0847  0.0199 -0.1389
 1178POPI   C1B17775  11.527  11.758   6.135  0.0580 -0.1011 -0.3125
 1178POPI   C2B17776  11.273  12.023   6.505 -0.3836  0.0060 -0.0296
 1178POPI   C3B17777  11.060  12.235   6.840 -0.0083 -0.0262 -0.3640
 1178POPI   C4B17778  10.972  12.293   7.228 -0.1654  0.3382 -0.0250
 1179POPI    C117779   7.074  17.829   5.189 -0.0430 -0.1708 -0.0003
 1179POPI    C217780   7.223  17.555   4.939  0.1140 -0.1381  0.0556
 1179POPI    C317781   7.442  17.874   5.039 -0.0949  0.0463 -0.0659
 1179POPI   PO417782   6.861  17.778   5.224 -0.0875  0.3119 -0.2349
 1179POPI   GL117783   6.666  17.680   5.580 -0.0854 -0.1596  0.1153
 1179POPI   GL217784   6.596  17.947   5.705  0.1894  0.2365  0.2815
 1179POPI   C1A17785   6.753  17.490   5.891 -0.1809 -0.1571 -0.1326
 1179POPI   D2A17786   6.850  17.178   6.181  0.0572 -0.2851 -0.1048
 1179POPI   C3A17787   6.854  17.062   6.558 -0.2202  0.2090 -0.0260
 1179POPI   C4A17788   6.981  16.729   6.876 -0.0496 -0.2174 -0.1509
 1179POPI   C1B17789   6.679  17.994   6.129  0.3684 -0.0390 -0.1050
 1179POPI   C2B17790   6.675  18.174   6.599  0.1702 -0.0027  0.1036
 1179POPI   C3B17791   6.542  18.369   6.892  0.0011 -0.2322 -0.0687
 1179POPI   C4B17792   6.513  18.468   7.289  0.2097 -0.3075 -0.2263
 1180POPI    C117793   9.842  16.015   4.889 -0.0621  0.0664  0.5468
 1180POPI    C217794  10.228  15.912   4.870 -0.0549  0.1605  0.0592
 1180POPI    C317795  10.106  16.259   4.713 -0.3959 -0.0444 -0.1401
 1180POPI   PO417796   9.817  15.902   5.158 -0.0168  0.1256  0.2376
 1180POPI   GL117797   9.646  16.139   5.534  0.1817 -0.0270 -0.1083
 1180POPI   GL217798  10.032  16.002   5.593 -0.0099 -0.1022  0.1538
 1180POPI   C1A17799   9.769  16.424   5.875  0.3516  0.0858 -0.1824
 1180POPI   D2A17800  10.039  16.335   6.291  0.2109 -0.1403  0.0526
 1180POPI   C3A17801   9.999  15.995   6.589 -0.4141 -0.1935 -0.1466
 1180POPI   C4A17802  10.363  15.750   6.748  0.0751  0.2176  0.0100
 1180POPI   C1B17803   9.892  15.881   6.051  0.4659 -0.3123  0.2555
 1180POPI   C2B17804   9.762  15.655   6.359 -0.0445 -0.2453  0.1995
 1180POPI   C3B17805   9.479  15.568   6.582 -0.2118  0.0261 -0.2612
 1180POPI   C4B17806   9.445  15.855   6.834 -0.1533 -0.1176  0.1117
 1181POPI    C117807   6.333   9.819   5.243  0.1112  0.0017  0.0625
 1181POPI    C217808   6.685   9.666   5.133  0.0140 -0.1431 -0.0520
 1181POPI    C317809   6.399   9.725   4.860  0.0222  0.1724  0.0040
 1181POPI   PO417810   6.234   9.593   5.375  0.1738  0.0846  0.0100
 1181POPI   GL117811   6.159   9.724   5.765 -0.3238  0.0440 -0.1677
 1181POPI   GL217812   6.026   9.344   5.837 -0.0122 -0.3156 -0.1860
 1181POPI   C1A17813   6.380   9.862   6.205 -0.0925 -0.2337  0.2145
 1181POPI   D2A17814   6.261  10.188   6.440 -0.0752 -0.0552  0.1606
 1181POPI   C3A17815   6.259  10.204   6.898 -0.3470  0.1421 -0.1839
 1181POPI   C4A17816   6.094  10.314   7.310 -0.2793  0.1848  0.1182
 1181POPI   C1B17817   6.136   9.464   6.201  0.0993 -0.0206 -0.2531
 1181POPI   C2B17818   6.107   9.554   6.479 -0.2339 -0.0613 -0.0634
 1181POPI   C3B17819   6.376   9.547   6.885 -0.0432  0.2180  0.0130
 1181POPI   C4B17820   6.754   9.730   6.924  0.0210 -0.0463  0.3681
 1182POPI    C117821   0.312   7.609   5.198 -0.0490  0.3181 -0.0687
 1182POPI    C217822   0.637   7.378   5.169 -0.3117 -0.0899  0.1436
 1182POPI    C317823   0.480   7.543   4.841  0.0265  0.0006  0.0223
 1182POPI   PO417824   0.390   7.747   5.368  0.0851  0.0817  0.4522
 1182POPI   GL117825   0.449   7.968   5.769  0.2222 -0.2120 -0.2387
 1182POPI   GL217826   0.177   8.106   5.737  0.0072 -0.1213 -0.0380
 1182POPI   C1A17827   0.550   7.882   6.198  0.1853 -0.0487  0.0164
 1182POPI   D2A17828   0.292   7.632   6.531 -0.2315  0.2289 -0.0275
 1182POPI   C3A17829   0.456   7.561   6.907  0.2134  0.1786 -0.0858
 1182POPI   C4A17830   0.361   7.203   7.153  0.1666 -0.0273 -0.2196
 1182POPI   C1B17831   0.040   7.967   6.171  0.2664  0.0708  0.2892
 1182POPI   C2B17832   0.082   8.045   6.625  0.1190  0.0940 -0.0716
 1182POPI   C3B17833   0.159   7.994   7.071 -0.0067 -0.0855  0.0803
 1182POPI   C4B17834   0.037   7.974   7.450 -0.0366  0.1388  0.0083
 1183POPI    C117835   8.248  11.237   4.717 -0.1293  0.1192 -0.2917
 1183POPI    C217836   8.520  11.262   4.426 -0.0711 -0.1837 -0.2666
 1183POPI    C317837   8.482  10.923   4.635 -0.0631  0.0524  0.1273
 1183POPI   PO417838   8.292  11.431   4.948 -0.0138  0.1683  0.3101
 1183POPI   GL117839   8.492  11.523   5.363  0.0725  0.0342 -0.2336
 1183POPI   GL217840   8.203  11.437   5.498 -0.0758 -0.1871 -0.3581
 1183POPI   C1A17841   8.873  11.583   5.441  0.1484 -0.0434 -0.1183
 1183POPI   D2A17842   9.154  11.535   5.756 -0.3399 -0.0143 -0.1358
 1183POPI   C3A17843   9.222  11.206   5.911 -0.1765  0.1990  0.1630
 1183POPI   C4A17844   9.164  10.762   5.953  0.0279 -0.2041 -0.3103
 1183POPI   C1B17845   8.410  11.454   5.924  0.3240  0.0698 -0.0579
 1183POPI   C2B17846   8.795  11.438   6.145  0.3688 -0.0377 -0.3190
 1183POPI   C3B17847   8.926  11.397   6.586 -0.2973  0.4908 -0.0443
 1183POPI   C4B17848   9.042  11.261   7.025 -0.0131 -0.1452 -0.0584
 1184POPI    C117849   9.308  14.130   5.067 -0.3213  0.1138 -0.1192
 1184POPI    C217850   9.388  13.738   5.066 -0.0496  0.1647  0.1705
 1184POPI    C317851   9.009  13.865   5.055 -0.1329 -0.0998 -0.1725
 1184POPI   PO417852   9.422  14.219   5.331 -0.2361  0.0482 -0.1546
 1184POPI   GL117853   9.352  14.426   5.757  0.2469  0.1108 -0.4288
 1184POPI   GL217854   9.635  14.590   5.733  0.1171  0.0552 -0.2662
 1184POPI   C1A17855   9.182  14.148   5.937 -0.0182  0.0308  0.0640
 1184POPI   D2A17856   9.182  13.710   6.015  0.0461 -0.0399 -0.2942
 1184POPI   C3A17857   8.992  13.817   6.350 -0.1343  0.0534 -0.0279
 1184POPI   C4A17858   8.813  13.653   6.765  0.0254 -0.2303  0.1139
 1184POPI   C1B17859   9.866  14.726   6.179  0.2479  0.2616  0.2403
 1184POPI   C2B17860  10.001  14.493   6.524 -0.0575 -0.1092  0.1656
 1184POPI   C3B17861  10.278  14.791   6.678  0.2225  0.0002  0.0670
 1184POPI   C4B17862  10.419  15.088   7.034 -0.0555 -0.1196 -0.2924
 1185POPI    C117863   3.926  13.574   5.061 -0.1676 -0.3778  0.0134
 1185POPI    C217864   3.628  13.836   5.010  0.0934 -0.0811 -0.0176
 1185POPI    C317865   3.821  13.689   4.692  0.2927  0.0977  0.0179
 1185POPI   PO417866   3.956  13.437   5.275 -0.2387 -0.1877  0.1295
 1185POPI   GL117867   3.775  13.168   5.527  0.0813 -0.0931  0.0200
 1185POPI   GL217868   3.877  13.143   5.759  0.1788  0.2725  0.2280
 1185POPI   C1A17869   3.358  13.307   5.700  0.0184  0.0565  0.0128
 1185POPI   D2A17870   3.250  13.390   5.994 -0.0831  0.1107 -0.1034
 1185POPI   C3A17871   3.548  13.337   6.223  0.1454  0.0471 -0.0588
 1185POPI   C4A17872   3.859  13.673   6.217  0.2517 -0.1341  0.0127
 1185POPI   C1B17873   3.978  13.140   6.223 -0.1248  0.1101 -0.0596
 1185POPI   C2B17874   4.012  13.249   6.648 -0.0177  0.1195 -0.2464
 1185POPI   C3B17875   3.880  13.353   7.075  0.1446  0.2309 -0.1311
 1185POPI   C4B17876   3.705  13.711   7.347 -0.1776  0.1210  0.0605
 1186POPI    C117877  12.151  15.849   4.590  0.0293 -0.1783  0.0861
 1186POPI    C217878  12.233  15.662   4.246 -0.0181  0.2296 -0.1532
 1186POPI    C317879  11.908  15.893   4.275 -0.2356 -0.1184  0.2951
 1186POPI   PO417880  12.190  15.689   4.732  0.0975 -0.0207  0.1408
 1186POPI   GL117881  12.508  15.512   5.046 -0.2759 -0.2046 -0.1128
 1186POPI   GL217882  12.631  15.188   5.131  0.2999 -0.2689 -0.1764
 1186POPI   C1A17883  12.141  15.374   5.363 -0.0851  0.3553 -0.1966
 1186POPI   D2A17884  11.875  15.652   5.598  0.1166  0.1036  0.2228
 1186POPI   C3A17885  11.470  15.809   5.371 -0.3451  0.0326 -0.3272
 1186POPI   C4A17886  11.009  16.004   5.382  0.0352 -0.1298  0.0442
 1186POPI   C1B17887  12.610  15.358   5.607  0.1162 -0.1595  0.3237
 1186POPI   C2B17888  12.739  15.353   6.018  0.1485  0.1291  0.1007
 1186POPI   C3B17889  12.750  15.279   6.485 -0.0861 -0.1750 -0.1582
 1186POPI   C4B17890  12.582  15.204   6.849 -0.3613 -0.3658 -0.0767
 1187POPI    C117891   9.001  16.681   5.323 -0.0906  0.3376  0.0640
 1187POPI    C217892   9.061  16.682   4.927  0.1436  0.2681  0.0981
 1187POPI    C317893   9.016  16.335   5.122 -0.1532  0.3096  0.1074
 1187POPI   PO417894   8.829  16.978   5.339  0.2450  0.0082 -0.1592
 1187POPI   GL117895   8.924  17.357   5.651  0.2259 -0.1089  0.0906
 1187POPI   GL217896   9.294  17.118   5.659 -0.0414  0.1435  0.0883
 1187POPI   C1A17897   8.723  17.264   6.103 -0.0491  0.0656 -0.0840
 1187POPI   D2A17898   8.692  16.945   6.415 -0.2337  0.0139 -0.1880
 1187POPI   C3A17899   8.794  17.152   6.857 -0.0092 -0.2133 -0.1026
 1187POPI   C4A17900   8.709  17.319   7.255 -0.1024 -0.0541  0.2259
 1187POPI   C1B17901   9.198  17.284   6.057  0.0446  0.0697 -0.2154
 1187POPI   C2B17902   9.052  17.408   6.485 -0.1249 -0.1562  0.5118
 1187POPI   C3B17903   9.090  17.572   6.937 -0.0607 -0.2749  0.4092
 1187POPI   C4B17904   8.930  17.756   7.349  0.1860 -0.2714 -0.2245
 1188POPI    C117905  16.287   7.708   4.817  0.0777 -0.1322  0.0874
 1188POPI    C217906  16.280   7.919   4.477 -0.0858 -0.1121  0.1026
 1188POPI    C317907  16.626   7.774   4.616  0.0216  0.1105  0.0704
 1188POPI   PO417908  16.140   7.820   5.066 -0.3012 -0.0094 -0.1867
 1188POPI   GL117909  16.221   7.710   5.501  0.1850 -0.1589 -0.0598
 1188POPI   GL217910  15.897   7.565   5.590 -0.0275  0.0935 -0.2246
 1188POPI   C1A17911  16.044   8.063   5.762 -0.2258 -0.0377  0.1603
 1188POPI   D2A17912  15.884   7.955   6.129  0.0630  0.1290  0.3434
 1188POPI   C3A17913  15.637   8.103   6.488 -0.2603  0.0839  0.2458
 1188POPI   C4A17914  15.364   8.395   6.661  0.1408 -0.2002  0.1019
 1188POPI   C1B17915  15.486   7.609   5.935 -0.3356  0.1335  0.0966
 1188POPI   C2B17916  15.302   7.834   6.136  0.0711 -0.1299  0.0817
 1188POPI   C3B17917  15.129   7.981   6.458  0.0472 -0.0999 -0.2148
 1188POPI   C4B17918  14.698   7.953   6.509  0.2734  0.3144  0.0567
 1189POPI    C117919  14.716   7.032   5.305 -0.0580 -0.0011 -0.1222
 1189POPI    C217920  14.586   7.390   5.184 -0.1443 -0.0813 -0.2701
 1189POPI    C317921  14.941   7.254   5.060  0.0237  0.0785  0.0234
 1189POPI   PO417922  14.658   7.051   5.558 -0.1213  0.1322  0.0455
 1189POPI   GL117923  14.517   6.720   5.732 -0.1092 -0.0971 -0.2986
 1189POPI   GL217924  14.367   6.827   5.875  0.3981 -0.2946  0.2955
 1189POPI   C1A17925  14.668   6.473   6.076 -0.0250  0.0491 -0.1858
 1189POPI   D2A17926  14.697   6.247   6.470  0.2466 -0.0934 -0.3336
 1189POPI   C3A17927  14.558   6.535   6.744 -0.0816 -0.1395  0.1449
 1189POPI   C4A17928  14.260   6.509   6.983  0.0366 -0.2950 -0.0621
 1189POPI   C1B17929  14.517   6.948   6.330 -0.1274  0.2598 -0.0787
 1189POPI   C2B17930  14.619   7.025   6.771 -0.2742 -0.0409  0.3192
 1189POPI   C3B17931  14.493   7.193   7.241 -0.0627  0.3139 -0.0870
 1189POPI   C4B17932  14.268   7.611   7.258  0.2276 -0.1189  0.1797
 1190POPI    C117933  15.660   3.560   4.905  0.3503  0.0673 -0.0120
 1190POPI    C217934  15.686   3.924   4.743 -0.0709  0.0784 -0.0635
 1190POPI    C317935  15.411   3.665   4.611 -0.0019 -0.1370  0.2065
 1190POPI   PO417936  15.646   3.553   5.233  0.2300  0.0241 -0.2647
 1190POPI   GL117937  15.736   3.662   5.561 -0.0700 -0.0296 -0.0654
 1190POPI   GL217938  15.437   3.810   5.667 -0.1154 -0.5621  0.2131
 1190POPI   C1A17939  15.998   3.811   5.859 -0.1258 -0.0661  0.2447
 1190POPI   D2A17940  15.984   3.589   6.251  0.1056 -0.0674  0.1048
 1190POPI   C3A17941  16.093   3.413   6.724  0.2560  0.0154  0.0417
 1190POPI   C4A17942  15.974   3.331   7.208 -0.0193  0.3910  0.0058
 1190POPI   C1B17943  15.510   3.751   6.100 -0.2113  0.1995  0.1532
 1190POPI   C2B17944  15.678   3.720   6.696 -0.1919  0.3073 -0.0241
 1190POPI   C3B17945  15.718   3.760   7.127 -0.0721  0.1560 -0.0239
 1190POPI   C4B17946  15.716   3.640   7.525  0.0170 -0.0656  0.3815
 1191POPI    C117947  18.064  17.652   4.822 -0.1613 -0.1447 -0.1225
 1191POPI    C217948  17.956  17.868   4.503  0.1662  0.1797 -0.0205
 1191POPI    C317949  18.260  17.609   4.476  0.1817  0.1933  0.0215
 1191POPI   PO417950  17.991  17.838   5.060  0.1387 -0.0936 -0.1124
 1191POPI   GL117951  17.978  17.723   5.496  0.0604  0.1447 -0.0377
 1191POPI   GL217952  18.301  17.604   5.380  0.1779  0.0124  0.0792
 1191POPI   C1A17953  18.327  17.978   5.758  0.0971  0.2338 -0.1064
 1191POPI   D2A17954  18.179  18.032   6.149 -0.2156  0.0245  0.1382
 1191POPI   C3A17955  18.478  17.734   6.429  0.1939 -0.1631 -0.2491
 1191POPI   C4A17956  18.818  17.679   6.811 -0.3245  0.0842  0.1574
 1191POPI   C1B17957  18.330  17.445   5.858  0.1457 -0.0275  0.3116
 1191POPI   C2B17958  18.510  17.320   6.178 -0.0265  0.1402 -0.2580
 1191POPI   C3B17959  18.499  17.337   6.718 -0.3831  0.2269 -0.1173
 1191POPI   C4B17960  18.446  17.446   7.134 -0.0112 -0.3961 -0.1049
 1192POPI    C117961  15.469  12.028   5.423  0.0735  0.1263  0.1161
 1192POPI    C217962  15.673  12.353   5.539  0.0405  0.0744  0.3229
 1192POPI    C317963  15.836  11.990   5.578  0.2650  0.0921 -0.3312
 1192POPI   PO417964  15.205  12.114   5.572  0.1707  0.2615  0.1333
 1192POPI   GL117965  15.271  12.475   5.819  0.2040 -0.0859 -0.0225
 1192POPI   GL217966  15.336  12.221   6.090  0.0282  0.1051  0.1313
 1192POPI   C1A17967  15.268  12.735   6.217 -0.0682  0.2723  0.1571
 1192POPI   D2A17968  15.519  12.855   6.573  0.1678 -0.0185  0.1301
 1192POPI   C3A17969  15.609  13.308   6.671 -0.3624 -0.0742  0.2835
 1192POPI   C4A17970  15.894  13.578   6.912  0.0940 -0.0819 -0.2621
 1192POPI   C1B17971  15.500  12.246   6.496  0.0720 -0.4409  0.0791
 1192POPI   C2B17972  15.570  12.353   6.871 -0.1969 -0.0111  0.4267
 1192POPI   C3B17973  15.392  12.660   7.281  0.6813  0.1820  0.2492
 1192POPI   C4B17974  15.425  13.159   7.581 -0.0601 -0.1109  0.0168
 1193POPI    C117975  11.429   9.412   5.434  0.0763 -0.0275 -0.0228
 1193POPI    C217976  11.113   9.655   5.474  0.0973 -0.0006 -0.0204
 1193POPI    C317977  11.172   9.458   5.131  0.0474 -0.0489 -0.0016
 1193POPI   PO417978  11.664   9.608   5.503  0.1472  0.1973 -0.2718
 1193POPI   GL117979  11.553   9.661   5.887  0.0707 -0.0652 -0.2228
 1193POPI   GL217980  11.306   9.533   5.959  0.4559 -0.0707 -0.1223
 1193POPI   C1A17981  11.567   9.828   6.304 -0.1087  0.1664  0.2133
 1193POPI   D2A17982  11.399   9.775   6.756  0.0147  0.0880 -0.1514
 1193POPI   C3A17983  11.458   9.549   7.207  0.2283 -0.0508 -0.1214
 1193POPI   C4A17984  11.593   9.274   7.659  0.4637  0.0409  0.0311
 1193POPI   C1B17985  11.206   9.451   6.436  0.0836 -0.0863  0.0100
 1193POPI   C2B17986  10.960   9.551   6.802  0.0420  0.0441  0.1444
 1193POPI   C3B17987  11.035   9.859   7.110  0.0781 -0.0921 -0.0477
 1193POPI   C4B17988  11.423  10.032   7.177  0.0008  0.0982  0.1646
 1194POPI    C117989  11.098  18.452   4.999 -0.0401 -0.0151  0.0932
 1194POPI    C217990  11.412  18.525   5.236  0.3114 -0.1248 -0.3269
 1194POPI    C317991  11.434  18.240   4.956 -0.2206 -0.2382 -0.2642
 1194POPI   PO417992  10.866  18.399   5.165  0.1842 -0.1379 -0.3843
 1194POPI   GL117993  10.961  18.643   5.508  0.1645  0.1124  0.0543
 1194POPI   GL217994  10.887  18.927   5.633 -0.0425 -0.1814  0.1093
 1194POPI   C1A17995  11.315  18.546   5.786  0.3193 -0.1484  0.2627
 1194POPI   D2A17996  11.532  18.516   6.181 -0.1043 -0.1971 -0.2520
 1194POPI   C3A17997  11.866  18.245   6.201 -0.2384 -0.1180 -0.1234
 1194POPI   C4A17998  12.035  17.924   5.842  0.0229  0.0281 -0.0481
 1194POPI   C1B17999  10.793  18.768   6.004 -0.1150  0.1977 -0.1446
 1194POPI   C2B18000  10.603  18.705   6.377  0.0793  0.0230 -0.0259
 1194POPI   C3B18001  10.767  18.665   6.898  0.2971 -0.0882  0.1272
 1194POPI   C4B18002  10.930  18.989   7.285  0.1420  0.2542 -0.0086
 1195POPI    C118003  15.160   4.368   5.134  0.0491 -0.0033 -0.0420
 1195POPI    C218004  15.062   4.262   5.507  0.0993 -0.2323 -0.0923
 1195POPI    C318005  14.777   4.304   5.229  0.0528  0.0241 -0.0083
 1195POPI   PO418006  15.383   4.568   5.149  0.2266  0.1527  0.1358
 1195POPI   GL118007  15.654   4.798   5.328  0.3292 -0.4277  0.2648
 1195POPI   GL218008  15.642   5.165   5.349  0.2178  0.0055 -0.3255
 1195POPI   C1A18009  15.861   4.741   5.718 -0.1357 -0.2358 -0.1749
 1195POPI   D2A18010  15.754   4.777   6.097 -0.0528 -0.0685  0.2425
 1195POPI   C3A18011  16.087   4.942   6.325  0.3495 -0.0674 -0.0413
 1195POPI   C4A18012  16.400   5.088   6.801  0.0982  0.0676 -0.0958
 1195POPI   C1B18013  15.331   5.031   5.658  0.0556 -0.0841  0.0503
 1195POPI   C2B18014  15.276   5.015   6.127  0.0602  0.2005 -0.1304
 1195POPI   C3B18015  15.148   4.935   6.621  0.1184  0.0422 -0.1343
 1195POPI   C4B18016  14.889   4.743   6.996  0.0421  0.0951 -0.3177
 1196POPI    C118017  14.015  17.778   4.402  0.0097  0.1055 -0.2376
 1196POPI    C218018  14.132  17.414   4.285 -0.0874 -0.0454  0.1204
 1196POPI    C318019  13.841  17.604   4.087  0.1642 -0.0332 -0.2476
 1196POPI   PO418020  14.124  17.830   4.629 -0.2460  0.3354 -0.0188
 1196POPI   GL118021  14.087  17.705   5.125  0.0200  0.0269 -0.0073
 1196POPI   GL218022  14.532  17.876   5.078 -0.1571 -0.0329  0.2438
 1196POPI   C1A18023  14.211  17.807   5.452 -0.2748 -0.0573 -0.1751
 1196POPI   D2A18024  14.354  17.752   5.834  0.0414 -0.1427 -0.2195
 1196POPI   C3A18025  14.093  17.866   6.206  0.3486 -0.3050 -0.1452
 1196POPI   C4A18026  13.768  18.135   6.273  0.0332  0.2792  0.0291
 1196POPI   C1B18027  14.726  17.612   5.385 -0.3804  0.0171  0.2917
 1196POPI   C2B18028  14.809  17.490   5.778  0.0104  0.2464 -0.0984
 1196POPI   C3B18029  14.731  17.549   6.089 -0.0087  0.0366  0.3393
 1196POPI   C4B18030  14.625  17.954   6.241 -0.0328 -0.0595 -0.1173
 1197POPI    C118031   4.387   7.551   5.494 -0.1764  0.0562 -0.0806
 1197POPI    C218032   4.028   7.728   5.499 -0.0801  0.2524 -0.0026
 1197POPI    C318033   4.335   7.902   5.310 -0.0287  0.0777 -0.0825
 1197POPI   PO418034   4.307   7.281   5.504  0.0720 -0.0280 -0.0179
 1197POPI   GL118035   4.339   7.242   5.938 -0.0005  0.0499  0.0577
 1197POPI   GL218036   4.094   7.010   6.120 -0.0105  0.0157  0.3422
 1197POPI   C1A18037   4.324   7.314   6.370  0.0851 -0.2123  0.1325
 1197POPI   D2A18038   3.988   7.209   6.664 -0.1432 -0.1670  0.2349
 1197POPI   C3A18039   3.960   7.372   7.125 -0.0610  0.1412 -0.2511
 1197POPI   C4A18040   3.980   7.553   7.579  0.3239  0.1503 -0.2116
 1197POPI   C1B18041   3.968   6.745   6.394 -0.1367  0.0598  0.0380
 1197POPI   C2B18042   3.982   6.770   6.828 -0.1799 -0.0439  0.2889
 1197POPI   C3B18043   4.282   7.014   7.223 -0.1296 -0.1619  0.0091
 1197POPI   C4B18044   4.229   7.095   7.635  0.0524 -0.2108 -0.0610
 1198DPPI    C118045   6.266   2.062   5.496 -0.0660  0.1347 -0.1094
 1198DPPI    C218046   6.359   1.892   5.146 -0.1662 -0.3422  0.0874
 1198DPPI    C318047   5.978   1.980   5.231 -0.1087  0.0491 -0.0368
 1198DPPI   PO418048   6.429   1.915   5.635  0.2437  0.1337  0.1231
 1198DPPI   GL118049   6.662   1.938   6.000 -0.0843 -0.2463  0.0328
 1198DPPI   GL218050   6.659   1.745   6.183 -0.2594  0.2013 -0.0294
 1198DPPI   C1A18051   6.531   2.279   6.269 -0.2130  0.0420  0.0073
 1198DPPI   C2A18052   6.455   2.435   6.745 -0.2120  0.0806 -0.1795
 1198DPPI   C3A18053   6.528   2.734   7.104  0.1400 -0.2874 -0.1769
 1198DPPI   C4A18054   6.439   3.074   7.343  0.1869  0.0457 -0.3138
 1198DPPI   C1B18055   6.521   1.435   6.329  0.2581 -0.1266 -0.0621
 1198DPPI   C2B18056   6.450   1.097   6.353 -0.3247  0.1108  0.1042
 1198DPPI   C3B18057   6.299   0.889   6.739  0.1360 -0.0595 -0.0048
 1198DPPI   C4B18058   6.372   1.024   7.128 -0.2726  0.1231 -0.2352
 1199DPPI    C118059   4.388  14.348   5.001 -0.0239 -0.1188 -0.3412
 1199DPPI    C218060   4.531  14.708   4.903  0.1059 -0.0834 -0.0334
 1199DPPI    C318061   4.137  14.644   4.907  0.0641  0.1661  0.2700
 1199DPPI   PO418062   4.537  14.254   5.214 -0.0416  0.0810 -0.2903
 1199DPPI   GL118063   4.482  14.217   5.755  0.0113 -0.1860  0.0375
 1199DPPI   GL218064   4.856  14.323   5.686 -0.0894 -0.2132  0.0366
 1199DPPI   C1A18065   4.269  14.040   6.061  0.2333 -0.1857  0.1541
 1199DPPI   C2A18066   4.153  14.002   6.384 -0.0895  0.1941 -0.2806
 1199DPPI   C3A18067   3.938  13.743   6.714  0.0397  0.0851  0.0660
 1199DPPI   C4A18068   3.550  13.584   6.687 -0.4077  0.3920  0.0345
 1199DPPI   C1B18069   4.815  14.137   6.091  0.1347 -0.1189  0.0163
 1199DPPI   C2B18070   4.922  13.899   6.312  0.0328  0.4269  0.1232
 1199DPPI   C3B18071   4.878  13.793   6.794  0.0926 -0.4900 -0.1424
 1199DPPI   C4B18072   4.841  13.725   7.212 -0.4356  0.1553 -0.0285
 1200DPPI    C118073   8.440   6.158   5.105 -0.0602  0.2216 -0.0316
 1200DPPI    C218074   8.720   6.048   4.841 -0.2274  0.0141 -0.1262
 1200DPPI    C318075   8.345   6.113   4.719 -0.3230 -0.1553  0.0711
 1200DPPI   PO418076   8.489   5.973   5.330 -0.1385 -0.0842 -0.0842
 1200DPPI   GL118077   8.629   5.796   5.617  0.2271  0.1247  0.0853
 1200DPPI   GL218078   8.821   5.568   5.526 -0.1072  0.2564 -0.1208
 1200DPPI   C1A18079   8.569   5.823   6.014 -0.1460  0.1031  0.4355
 1200DPPI   C2A18080   8.454   5.700   6.398  0.1516  0.0609 -0.1273
 1200DPPI   C3A18081   8.518   5.764   6.746  0.0875  0.1933 -0.1076
 1200DPPI   C4A18082   8.725   5.703   7.085 -0.1421 -0.0592  0.3008
 1200DPPI   C1B18083   8.768   5.325   5.897 -0.3552  0.0563  0.0231
 1200DPPI   C2B18084   8.701   5.312   6.404  0.4114  0.1801  0.1012
 1200DPPI   C3B18085   8.531   5.275   6.870 -0.2430 -0.1097  0.0505
 1200DPPI   C4B18086   8.321   5.044   7.278  0.1207  0.1939 -0.1009
 1201DPPI    C118087  12.525   9.598   4.958 -0.2175 -0.0291 -0.1236
 1201DPPI    C218088  12.456   9.218   4.852 -0.1125 -0.0550 -0.1008
 1201DPPI    C318089  12.281   9.517   4.651 -0.4072 -0.1226  0.0499
 1201DPPI   PO418090  12.526   9.688   5.172 -0.1197  0.2183  0.3703
 1201DPPI   GL118091  12.710   9.574   5.601  0.1425 -0.0646  0.2890
 1201DPPI   GL218092  12.590   9.952   5.639  0.0133 -0.0688  0.0676
 1201DPPI   C1A18093  12.475   9.435   5.949 -0.1501 -0.1739 -0.4088
 1201DPPI   C2A18094  12.414   9.322   6.446 -0.3584  0.0498 -0.3397
 1201DPPI   C3A18095  12.291   9.232   6.845  0.1840  0.3704  0.1757
 1201DPPI   C4A18096  11.920   9.267   7.143 -0.2842 -0.0683 -0.1654
 1201DPPI   C1B18097  12.700   9.919   6.043  0.0988 -0.0325 -0.0912
 1201DPPI   C2B18098  12.927  10.019   6.469 -0.0149 -0.1223  0.0534
 1201DPPI   C3B18099  12.736  10.131   6.829 -0.2296 -0.1974 -0.2370
 1201DPPI   C4B18100  12.610  10.007   7.177  0.0446 -0.1485  0.0929
 1202DPPI    C118101   1.923   6.295   5.215  0.2110  0.0995  0.0662
 1202DPPI    C218102   1.847   6.507   4.885  0.4097  0.1209  0.0325
 1202DPPI    C318103   1.963   6.126   4.855  0.1996  0.0511  0.0875
 1202DPPI   PO418104   1.734   6.469   5.415 -0.1151 -0.2610  0.0607
 1202DPPI   GL118105   1.819   6.932   5.586  0.0582  0.3734 -0.2898
 1202DPPI   GL218106   1.507   7.160   5.660 -0.0760 -0.2047  0.0649
 1202DPPI   C1A18107   1.974   7.118   5.960  0.2974 -0.2701 -0.0560
 1202DPPI   C2A18108   1.963   7.079   6.391 -0.1029  0.1447 -0.0332
 1202DPPI   C3A18109   1.802   7.041   6.770 -0.1417  0.2988 -0.0363
 1202DPPI   C4A18110   1.635   7.028   7.139 -0.0338 -0.0415  0.1969
 1202DPPI   C1B18111   1.490   7.270   6.130 -0.0148 -0.1099  0.0524
 1202DPPI   C2B18112   1.528   7.514   6.549  0.0569  0.1729 -0.1858
 1202DPPI   C3B18113   1.534   7.563   7.014 -0.0819  0.3673  0.1561
 1202DPPI   C4B18114   1.517   7.682   7.439 -0.1410 -0.0177 -0.1260
 1203DPPI    C118115  16.800  15.911   4.496  0.1613 -0.1715 -0.1387
 1203DPPI    C218116  16.500  16.164   4.417  0.3591  0.1132  0.0014
 1203DPPI    C318117  16.525  15.815   4.223 -0.2528 -0.0716  0.2321
 1203DPPI   PO418118  16.848  15.933   4.731 -0.0153  0.0087 -0.0938
 1203DPPI   GL118119  16.702  15.886   5.078  0.1874 -0.4075  0.1215
 1203DPPI   GL218120  16.429  16.038   5.202  0.1175  0.1649 -0.0806
 1203DPPI   C1A18121  16.950  15.725   5.429  0.0097 -0.0486  0.1058
 1203DPPI   C2A18122  16.842  15.770   5.873 -0.2597 -0.3927  0.0954
 1203DPPI   C3A18123  16.755  15.734   6.231  0.0066  0.1607 -0.1067
 1203DPPI   C4A18124  16.475  15.579   6.560 -0.4599  0.2885  0.0880
 1203DPPI   C1B18125  16.268  15.946   5.519  0.1936  0.2161 -0.1180
 1203DPPI   C2B18126  16.271  16.032   5.986 -0.1529 -0.1712  0.1640
 1203DPPI   C3B18127  16.153  16.183   6.408 -0.1441  0.0593 -0.1163
 1203DPPI   C4B18128  16.170  15.949   6.809  0.0046 -0.0409  0.1847
 1204DPPI    C118129  10.805  15.413   4.618 -0.1221 -0.0550  0.0948
 1204DPPI    C218130  11.118  15.298   4.398 -0.0164 -0.0533  0.2422
 1204DPPI    C318131  10.781  15.418   4.219  0.1843  0.2767  0.0749
 1204DPPI   PO418132  10.882  15.605   4.801 -0.3561 -0.1059 -0.1910
 1204DPPI   GL118133  10.653  15.672   5.235  0.0016  0.0486  0.1410
 1204DPPI   GL218134  10.482  15.876   5.291  0.0079 -0.1213 -0.3165
 1204DPPI   C1A18135  10.949  15.534   5.609 -0.3660 -0.1300  0.3065
 1204DPPI   C2A18136  11.230  15.234   5.813  0.0320  0.0624 -0.2172
 1204DPPI   C3A18137  11.202  15.151   6.210  0.0044  0.1552  0.0524
 1204DPPI   C4A18138  11.215  14.974   6.610 -0.2771  0.0888 -0.0541
 1204DPPI   C1B18139  10.577  15.965   5.697 -0.1403  0.0397  0.0616
 1204DPPI   C2B18140  10.673  15.997   6.056 -0.4657 -0.0599  0.0789
 1204DPPI   C3B18141  10.808  15.750   6.435  0.2594 -0.2460 -0.1148
 1204DPPI   C4B18142  11.090  15.840   6.719  0.2446  0.1021  0.1584
 1205DPPI    C118143  17.765   5.181   4.780 -0.0459  0.3245 -0.1198
 1205DPPI    C218144  18.158   5.179   4.853 -0.0374  0.1511 -0.1654
 1205DPPI    C318145  18.025   5.156   4.477 -0.0926  0.0837 -0.1418
 1205DPPI   PO418146  17.619   5.030   5.044  0.0045  0.0601 -0.1326
 1205DPPI   GL118147  17.678   4.922   5.477 -0.4958 -0.0648 -0.2117
 1205DPPI   GL218148  18.052   5.141   5.392  0.0774  0.3223 -0.3532
 1205DPPI   C1A18149  17.802   4.628   5.806  0.0980 -0.0637  0.0210
 1205DPPI   C2A18150  17.864   4.580   6.243 -0.0528  0.1484  0.0041
 1205DPPI   C3A18151  18.009   4.297   6.494  0.0537  0.3080 -0.1850
 1205DPPI   C4A18152  18.024   4.094   6.824  0.0393  0.1379  0.1382
 1205DPPI   C1B18153  18.099   5.407   5.762  0.1802  0.2022  0.2377
 1205DPPI   C2B18154  17.946   5.561   6.174 -0.0679  0.0922 -0.1387
 1205DPPI   C3B18155  17.656   5.786   6.479 -0.0684 -0.1147 -0.1409
 1205DPPI   C4B18156  17.389   5.617   6.763 -0.1062 -0.2066  0.0854
 1206DPPI    C118157   7.427  18.351   5.129  0.1638  0.3301  0.1092
 1206DPPI    C218158   7.252  18.647   4.924 -0.1702 -0.0836 -0.2232
 1206DPPI    C318159   7.045  18.317   5.015  0.2255 -0.2655  0.0467
 1206DPPI   PO418160   7.502  18.457   5.294 -0.4257  0.3463  0.0812
 1206DPPI   GL118161   7.303  18.661   5.607 -0.1298  0.0597  0.0223
 1206DPPI   GL218162   7.250  18.886   5.875 -0.1177 -0.3685 -0.2662
 1206DPPI   C1A18163   7.216  18.335   5.992  0.0271 -0.0475 -0.2287
 1206DPPI   C2A18164   7.142  18.193   6.401  0.1484 -0.1568 -0.0699
 1206DPPI   C3A18165   7.127  18.032   6.834  0.2525 -0.3154 -0.0472
 1206DPPI   C4A18166   6.853  18.003   7.079  0.0282 -0.1802  0.1663
 1206DPPI   C1B18167   7.127  18.807   6.369 -0.1015 -0.0252 -0.2898
 1206DPPI   C2B18168   7.028  18.599   6.725  0.0842  0.0496  0.2860
 1206DPPI   C3B18169   7.010  18.475   7.151  0.2005 -0.1508 -0.0603
 1206DPPI   C4B18170   6.989  18.297   7.480  0.0774  0.1364  0.2978
 1207DPPI    C118171   5.431   7.020   5.391  0.4859 -0.2009  0.1520
 1207DPPI    C218172   5.173   6.823   5.157  0.1251  0.0021  0.3694
 1207DPPI    C318173   5.424   7.091   4.997 -0.0654  0.0837  0.2034
 1207DPPI   PO418174   5.295   7.013   5.637 -0.2521 -0.2805 -0.0732
 1207DPPI   GL118175   5.199   6.853   6.018  0.0430  0.1363 -0.1060
 1207DPPI   GL218176   5.491   6.703   6.036 -0.1445  0.2167  0.0521
 1207DPPI   C1A18177   5.216   6.685   6.439  0.1314 -0.0541 -0.1317
 1207DPPI   C2A18178   5.282   6.592   6.863 -0.5645 -0.1194  0.3204
 1207DPPI   C3A18179   5.250   6.899   7.199  0.2617 -0.2452  0.2703
 1207DPPI   C4A18180   5.664   6.918   7.481  0.1504 -0.1194 -0.2042
 1207DPPI   C1B18181   5.632   6.493   6.371  0.0906  0.1007 -0.1760
 1207DPPI   C2B18182   5.836   6.422   6.812 -0.0689  0.1655 -0.1456
 1207DPPI   C3B18183   5.677   6.481   7.317 -0.5484  0.1042 -0.0749
 1207DPPI   C4B18184   5.683   6.166   7.602 -0.1496  0.2196  0.3954
 1208DPPI    C118185  14.233   0.957   4.714  0.0397  0.0161 -0.0966
 1208DPPI    C218186  13.875   1.130   4.670  0.1312  0.2677  0.1246
 1208DPPI    C318187  14.048   0.949   4.359 -0.3541 -0.1902  0.1059
 1208DPPI   PO418188  14.373   1.201   4.876 -0.0478  0.3041  0.1177
 1208DPPI   GL118189  14.466   1.184   5.265 -0.1360 -0.4390  0.1065
 1208DPPI   GL218190  14.319   1.405   5.402 -0.1613  0.2112  0.0618
 1208DPPI   C1A18191  14.267   0.909   5.650  0.0854 -0.1557  0.0804
 1208DPPI   C2A18192  14.261   0.782   6.098  0.3844  0.1645  0.4171
 1208DPPI   C3A18193  14.410   0.666   6.499 -0.0670  0.2114 -0.1912
 1208DPPI   C4A18194  14.697   0.804   6.817 -0.0976  0.0430  0.1249
 1208DPPI   C1B18195  14.141   1.324   5.914 -0.0540  0.3697  0.0379
 1208DPPI   C2B18196  14.043   1.395   6.338 -0.1166  0.1386 -0.1257
 1208DPPI   C3B18197  13.563   1.327   6.614  0.2342  0.1517  0.0296
 1208DPPI   C4B18198  13.508   1.193   6.995 -0.1665 -0.2006 -0.3128
 1209DPPI    C118199   4.798   3.953   5.200  0.0650 -0.0198  0.1328
 1209DPPI    C218200   4.468   3.877   4.986  0.0682 -0.0714  0.1462
 1209DPPI    C318201   4.498   4.218   5.194  0.0446 -0.0436  0.1041
 1209DPPI   PO418202   4.763   3.753   5.370  0.2013  0.0858 -0.2643
 1209DPPI   GL118203   4.596   3.508   5.789  0.0721  0.0841 -0.3310
 1209DPPI   GL218204   4.211   3.477   5.772  0.1075  0.1996 -0.1405
 1209DPPI   C1A18205   4.528   3.492   6.206  0.0670  0.1326 -0.1624
 1209DPPI   C2A18206   4.510   3.296   6.567  0.1328  0.2814 -0.2286
 1209DPPI   C3A18207   4.549   3.112   6.922 -0.1662 -0.0547  0.0594
 1209DPPI   C4A18208   4.643   3.017   7.276  0.0082 -0.2502 -0.0495
 1209DPPI   C1B18209   4.043   3.524   6.135 -0.0894  0.1445 -0.0525
 1209DPPI   C2B18210   4.117   3.763   6.513  0.1979 -0.3700 -0.0499
 1209DPPI   C3B18211   4.071   3.896   7.024  0.0425  0.2949  0.0034
 1209DPPI   C4B18212   4.077   4.078   7.324 -0.2065  0.0970 -0.0401
 1210DPPI    C118213  16.878  13.665   4.757 -0.0480 -0.3085  0.2025
 1210DPPI    C218214  16.513  13.587   4.612 -0.1780  0.0510  0.3262
 1210DPPI    C318215  16.787  13.296   4.632 -0.3706 -0.1602 -0.0152
 1210DPPI   PO418216  16.853  13.760   4.954 -0.2467 -0.0572  0.2969
 1210DPPI   GL118217  16.766  14.137   5.136  0.0099 -0.1544 -0.2471
 1210DPPI   GL218218  16.578  14.002   5.397 -0.4871 -0.0034 -0.4446
 1210DPPI   C1A18219  16.999  14.193   5.607  0.3766 -0.2223 -0.0949
 1210DPPI   C2A18220  16.818  14.283   6.032 -0.1699  0.3693 -0.0193
 1210DPPI   C3A18221  16.773  14.057   6.463  0.0225 -0.1977  0.0289
 1210DPPI   C4A18222  16.831  14.059   6.925 -0.0995 -0.1363 -0.1319
 1210DPPI   C1B18223  16.415  14.121   5.764 -0.2759 -0.1645 -0.1555
 1210DPPI   C2B18224  16.377  14.084   6.166 -0.1544 -0.2138 -0.0041
 1210DPPI   C3B18225  16.225  13.840   6.499  0.2928  0.1369  0.1070
 1210DPPI   C4B18226  16.276  13.465   6.602 -0.2188  0.0091  0.1780
 1211DPPI    C118227   3.121   5.745   5.182 -0.1393 -0.3701 -0.2179
 1211DPPI    C218228   3.230   5.567   4.841  0.0106 -0.0797 -0.3256
 1211DPPI    C318229   3.153   5.959   4.846 -0.0351 -0.0898 -0.0336
 1211DPPI   PO418230   3.183   5.516   5.405 -0.0301  0.2237  0.0113
 1211DPPI   GL118231   3.055   5.328   5.685  0.0306 -0.0013 -0.1448
 1211DPPI   GL218232   3.272   5.516   6.011  0.0603  0.0767 -0.0576
 1211DPPI   C1A18233   2.744   5.603   5.898  0.0319  0.1027  0.0138
 1211DPPI   C2A18234   2.551   5.746   6.169  0.0762  0.0301  0.3045
 1211DPPI   C3A18235   2.379   5.946   6.589  0.1005  0.0098  0.0199
 1211DPPI   C4A18236   2.109   6.273   6.817 -0.2109  0.3085  0.0944
 1211DPPI   C1B18237   2.992   5.649   6.372 -0.0264 -0.1914  0.4039
 1211DPPI   C2B18238   2.841   5.754   6.832  0.1899  0.2019  0.2298
 1211DPPI   C3B18239   3.043   5.904   7.291  0.0301 -0.0129 -0.1591
 1211DPPI   C4B18240   3.028   5.740   7.706 -0.4723  0.6666 -0.2121
 1212DPPI    C118241  12.439  16.395   4.459  0.0197  0.0314  0.1608
 1212DPPI    C218242  12.797  16.244   4.368  0.0982  0.2243  0.1460
 1212DPPI    C318243  12.469  16.101   4.189  0.1391 -0.1224  0.3388
 1212DPPI   PO418244  12.335  16.307   4.742 -0.1703  0.1544 -0.0392
 1212DPPI   GL118245  12.395  16.486   5.148 -0.2427 -0.0259 -0.0617
 1212DPPI   GL218246  12.679  16.742   5.297  0.1571 -0.0303  0.2036
 1212DPPI   C1A18247  12.110  16.470   5.609  0.3400  0.0056 -0.1276
 1212DPPI   C2A18248  12.091  16.418   6.003  0.0925  0.1083  0.3889
 1212DPPI   C3A18249  12.052  16.485   6.384  0.1743  0.1660 -0.1712
 1212DPPI   C4A18250  11.942  16.228   6.831 -0.2440 -0.0432  0.2000
 1212DPPI   C1B18251  12.568  16.800   5.565  0.1563  0.0537  0.1208
 1212DPPI   C2B18252  12.609  16.812   5.908  0.0717  0.0877  0.3186
 1212DPPI   C3B18253  12.645  16.642   6.312 -0.1253  0.3079  0.0564
 1212DPPI   C4B18254  12.825  16.386   6.690 -0.1242 -0.3096 -0.0225
 1213DPPI    C118255  10.491   8.724   4.969  0.0132  0.1324  0.0101
 1213DPPI    C218256  10.406   9.075   4.796 -0.0848  0.0907 -0.0272
 1213DPPI    C318257  10.490   8.755   4.570  0.1526  0.1259  0.0088
 1213DPPI   PO418258  10.272   8.760   5.246 -0.0380  0.0815  0.0419
 1213DPPI   GL118259  10.040   8.978   5.530  0.1989 -0.0423 -0.3348
 1213DPPI   GL218260   9.801   8.709   5.456 -0.0355  0.1032 -0.0552
 1213DPPI   C1A18261   9.966   9.060   5.952  0.0649 -0.1546  0.1396
 1213DPPI   C2A18262   9.849   8.848   6.278  0.2221  0.1616  0.0156
 1213DPPI   C3A18263  10.055   8.644   6.568  0.1370 -0.2711  0.0384
 1213DPPI   C4A18264  10.379   8.716   6.742 -0.0876 -0.0402  0.2720
 1213DPPI   C1B18265   9.780   8.525   5.823 -0.1775 -0.0235  0.0889
 1213DPPI   C2B18266   9.786   8.263   6.237 -0.0761  0.0661  0.1457
 1213DPPI   C3B18267   9.643   8.339   6.697 -0.1030 -0.1513 -0.1865
 1213DPPI   C4B18268   9.877   8.591   7.004 -0.0248 -0.1443  0.2594
 1214DPPI    C118269  18.922   4.899   5.081 -0.0131 -0.1430 -0.1506
 1214DPPI    C218270  18.592   4.994   4.877 -0.0279 -0.2456 -0.1746
 1214DPPI    C318271  18.950   5.113   4.744 -0.0792  0.1500  0.0260
 1214DPPI   PO418272  18.880   5.019   5.281 -0.1046 -0.1620  0.1335
 1214DPPI   GL118273  18.587   4.858   5.454 -0.1672 -0.0319  0.0535
 1214DPPI   GL218274  18.624   5.112   5.725 -0.4631 -0.1373 -0.0501
 1214DPPI   C1A18275  18.211   4.898   5.819  0.0405 -0.1674  0.0081
 1214DPPI   C2A18276  18.097   5.089   6.153 -0.0908 -0.0282  0.1320
 1214DPPI   C3A18277  18.129   5.048   6.508 -0.0075  0.2381  0.0534
 1214DPPI   C4A18278  18.282   5.105   7.010 -0.0075  0.0120 -0.0894
 1214DPPI   C1B18279  18.579   4.999   6.164  0.0144  0.1999 -0.1582
 1214DPPI   C2B18280  18.644   5.000   6.618 -0.1440  0.0015  0.0023
 1214DPPI   C3B18281  18.797   4.958   7.015  0.0039 -0.1060  0.2035
 1214DPPI   C4B18282  18.746   5.005   7.450  0.0732 -0.1296  0.0249
 1215DPPI    C118283   4.490  13.282   5.235 -0.2460 -0.1846 -0.1045
 1215DPPI    C218284   4.808  13.102   5.074 -0.1872 -0.3756  0.2177
 1215DPPI    C318285   4.440  13.003   4.952 -0.1297 -0.2045 -0.1057
 1215DPPI   PO418286   4.569  13.246   5.486 -0.2752 -0.0800  0.0825
 1215DPPI   GL118287   4.572  12.854   5.820 -0.2338 -0.0400 -0.2574
 1215DPPI   GL218288   4.360  12.585   5.776  0.2791  0.1796  0.1748
 1215DPPI   C1A18289   4.464  12.929   6.211  0.2359 -0.0309  0.1814
 1215DPPI   C2A18290   4.518  12.981   6.677  0.0878  0.2364  0.0235
 1215DPPI   C3A18291   4.448  12.738   7.059  0.1000 -0.0007 -0.0678
 1215DPPI   C4A18292   4.137  12.422   7.301  0.2098 -0.3635 -0.1202
 1215DPPI   C1B18293   4.047  12.621   6.147  0.2653 -0.1163  0.2116
 1215DPPI   C2B18294   3.998  12.612   6.713 -0.0979 -0.1465  0.3119
 1215DPPI   C3B18295   3.963  12.827   7.092 -0.3323  0.0205 -0.1643
 1215DPPI   C4B18296   3.676  12.767   7.361  0.0172 -0.0854  0.0686
 1216DPPI    C118297   9.596   0.216   5.070  0.1042  0.1122  0.0999
 1216DPPI    C218298   9.319   0.488   5.166 -0.2227 -0.1798  0.0038
 1216DPPI    C318299   9.351   0.358   4.789  0.0579 -0.1389  0.0109
 1216DPPI   PO418300   9.901   0.375   5.132  0.0974  0.2787 -0.0448
 1216DPPI   GL118301  10.229   0.148   5.459 -0.0437 -0.2320 -0.4143
 1216DPPI   GL218302   9.859   0.020   5.454  0.2760  0.0657 -0.0858
 1216DPPI   C1A18303  10.180   0.468   5.829  0.1111  0.1235  0.0151
 1216DPPI   C2A18304  10.075   0.484   6.234 -0.0775  0.0566 -0.0296
 1216DPPI   C3A18305   9.767   0.795   6.318  0.1051 -0.0310  0.1280
 1216DPPI   C4A18306   9.760   0.953   6.764 -0.0723 -0.0888  0.1740
 1216DPPI   C1B18307   9.780   0.116   5.923  0.0959 -0.2554  0.0218
 1216DPPI   C2B18308   9.657   0.247   6.368  0.4799  0.0523  0.1283
 1216DPPI   C3B18309   9.462   0.433   6.741 -0.0014  0.3670  0.0463
 1216DPPI   C4B18310   9.628   0.397   7.121  0.0203 -0.0180  0.0944
 1217DPPI    C118311   3.918   4.550   5.071  0.4449 -0.0078  0.1318
 1217DPPI    C218312   4.038   4.809   4.790 -0.0105 -0.0122 -0.0766
 1217DPPI    C318313   3.756   4.539   4.705  0.1178 -0.2660  0.2798
 1217DPPI   PO418314   4.116   4.597   5.210  0.0259  0.0752 -0.0653
 1217DPPI   GL118315   4.192   4.392   5.561  0.0653  0.0472 -0.0392
 1217DPPI   GL218316   3.950   4.282   5.708 -0.0855 -0.1698 -0.0405
 1217DPPI   C1A18317   4.432   4.512   6.011 -0.1336 -0.2393 -0.2716
 1217DPPI   C2A18318   4.418   4.484   6.459  0.1813 -0.4568  0.0950
 1217DPPI   C3A18319   4.492   4.765   6.822 -0.2309 -0.2343  0.0258
 1217DPPI   C4A18320   4.786   4.849   7.147 -0.0459 -0.0964 -0.0897
 1217DPPI   C1B18321   3.997   4.273   6.214 -0.1604  0.0406 -0.1708
 1217DPPI   C2B18322   4.007   4.233   6.708 -0.1485 -0.1031 -0.1656
 1217DPPI   C3B18323   4.019   4.517   6.977 -0.2469  0.0276 -0.0123
 1217DPPI   C4B18324   4.076   4.931   7.046 -0.1035  0.3172 -0.2212
 1218DPPI    C118325   7.080   6.731   5.087 -0.2611  0.2002  0.1788
 1218DPPI    C218326   6.848   7.051   5.024 -0.3286  0.0897 -0.1502
 1218DPPI    C318327   6.988   6.840   4.714 -0.1456 -0.1022  0.0589
 1218DPPI   PO418328   7.014   6.615   5.331 -0.2219 -0.2284  0.0264
 1218DPPI   GL118329   6.891   6.162   5.660  0.2868  0.3925  0.2186
 1218DPPI   GL218330   6.817   5.792   5.614 -0.0309 -0.0549 -0.0845
 1218DPPI   C1A18331   7.005   6.392   5.951 -0.2547 -0.0922  0.1156
 1218DPPI   C2A18332   7.026   6.416   6.336 -0.2733 -0.0168 -0.3661
 1218DPPI   C3A18333   6.793   6.445   6.674 -0.2682  0.1161 -0.1281
 1218DPPI   C4A18334   6.808   6.436   7.117  0.0708  0.1900 -0.4725
 1218DPPI   C1B18335   6.875   5.381   5.705  0.2649 -0.0771 -0.0554
 1218DPPI   C2B18336   6.916   4.978   5.893  0.2117 -0.0564  0.0667
 1218DPPI   C3B18337   6.972   4.639   6.043 -0.0752 -0.1564 -0.1209
 1218DPPI   C4B18338   6.929   4.276   6.203 -0.2266 -0.0407 -0.0511
 1219DPPI    C118339  17.113   5.828   4.975  0.0807  0.0361 -0.2832
 1219DPPI    C218340  16.765   5.794   4.782 -0.1141  0.1812  0.0337
 1219DPPI    C318341  16.962   6.142   4.778  0.0003  0.1160 -0.0967
 1219DPPI   PO418342  17.278   5.705   4.872 -0.0434 -0.3339 -0.1305
 1219DPPI   GL118343  17.643   5.457   5.281 -0.6159 -0.5135  0.0214
 1219DPPI   GL218344  17.313   5.450   5.288  0.3103  0.2401  0.0826
 1219DPPI   C1A18345  17.630   5.527   5.731  0.2640 -0.0448  0.4164
 1219DPPI   C2A18346  17.234   5.521   6.093  0.0127 -0.5009 -0.1034
 1219DPPI   C3A18347  17.175   5.807   6.316  0.2031 -0.4035 -0.2484
 1219DPPI   C4A18348  16.911   5.836   6.597  0.1329 -0.0369 -0.1461
 1219DPPI   C1B18349  16.988   5.617   5.589  0.2269  0.0358  0.2068
 1219DPPI   C2B18350  16.755   5.964   5.892 -0.2120  0.0846  0.1090
 1219DPPI   C3B18351  16.513   5.896   6.290  0.1060 -0.2598  0.0750
 1219DPPI   C4B18352  16.136   5.926   6.524  0.3039  0.1208 -0.3032
 1220DPPI    C118353   3.180   3.425   5.167 -0.0275  0.2052  0.2316
 1220DPPI    C218354   2.902   3.433   4.880 -0.3600 -0.1973  0.5303
 1220DPPI    C318355   3.087   3.771   4.989 -0.2216 -0.0384 -0.1528
 1220DPPI   PO418356   3.084   3.345   5.323 -0.1312 -0.1114  0.0968
 1220DPPI   GL118357   3.175   3.322   5.754 -0.2869  0.1139 -0.1342
 1220DPPI   GL218358   3.410   3.525   5.637  0.1112 -0.4125 -0.1425
 1220DPPI   C1A18359   3.078   3.268   6.275  0.1025  0.2060  0.2527
 1220DPPI   C2A18360   3.023   3.087   6.669 -0.2101  0.0660 -0.0107
 1220DPPI   C3A18361   3.137   2.883   7.017  0.0573  0.0019 -0.2995
 1220DPPI   C4A18362   3.076   2.647   7.328 -0.2507 -0.0061 -0.0746
 1220DPPI   C1B18363   3.178   3.737   6.009  0.0796 -0.4101 -0.0282
 1220DPPI   C2B18364   3.082   3.980   6.312 -0.1844 -0.2474 -0.1135
 1220DPPI   C3B18365   2.953   4.200   6.619 -0.0435 -0.0171 -0.0034
 1220DPPI   C4B18366   2.721   4.464   6.988  0.1124  0.2582  0.0915
 1221DPPI    C118367  11.833   4.622   4.830  0.0605 -0.0858 -0.2071
 1221DPPI    C218368  11.443   4.671   4.756  0.0429 -0.0837 -0.1145
 1221DPPI    C318369  11.705   4.951   4.641  0.0139 -0.0707 -0.1495
 1221DPPI   PO418370  11.901   4.553   5.030  0.1410  0.3392 -0.1434
 1221DPPI   GL118371  11.968   4.555   5.378  0.0430 -0.1352  0.0260
 1221DPPI   GL218372  12.278   4.464   5.539 -0.1688 -0.1007  0.0953
 1221DPPI   C1A18373  11.785   4.797   5.719  0.1243  0.1293 -0.3435
 1221DPPI   C2A18374  11.681   5.007   5.968  0.2053 -0.1791  0.0104
 1221DPPI   C3A18375  11.575   4.888   6.414 -0.0309 -0.1360  0.0905
 1221DPPI   C4A18376  11.752   4.906   6.811 -0.1269 -0.0157  0.2857
 1221DPPI   C1B18377  12.020   4.161   5.863 -0.3629  0.1352  0.2129
 1221DPPI   C2B18378  11.967   3.863   6.181  0.0688 -0.2314  0.0572
 1221DPPI   C3B18379  12.115   3.819   6.642 -0.1894  0.6163  0.1222
 1221DPPI   C4B18380  12.353   4.001   6.900 -0.2775  0.1004 -0.1376
 1222DPPI    C118381  10.863   2.328   4.811  0.0812 -0.3435 -0.0151
 1222DPPI    C218382  10.592   2.298   4.518 -0.0667 -0.2598  0.1117
 1222DPPI    C318383  10.974   2.200   4.448 -0.0882 -0.1799 -0.1261
 1222DPPI   PO418384  10.682   2.283   5.023 -0.1138 -0.2848  0.0789
 1222DPPI   GL118385  10.621   1.994   5.279 -0.3783  0.2119  0.1612
 1222DPPI   GL218386  10.448   1.683   5.393 -0.3084  0.1165 -0.0825
 1222DPPI   C1A18387  10.358   2.122   5.583  0.1458  0.0052  0.0525
 1222DPPI   C2A18388  10.332   2.113   6.009 -0.1152 -0.1694  0.2990
 1222DPPI   C3A18389  10.171   2.223   6.345 -0.4421  0.1461 -0.1538
 1222DPPI   C4A18390   9.975   2.158   6.842  0.0907 -0.2255 -0.3835
 1222DPPI   C1B18391  10.672   1.714   5.786 -0.1371  0.0443  0.3242
 1222DPPI   C2B18392  10.678   1.802   6.224  0.3471  0.1457 -0.1573
 1222DPPI   C3B18393  10.399   1.844   6.634 -0.0336  0.0805 -0.1077
 1222DPPI   C4B18394  10.249   1.815   7.072  0.0049 -0.0914 -0.1166
 1223DPPI    C118395   3.369  17.873   5.205  0.0935  0.1000  0.2623
 1223DPPI    C218396   3.209  17.853   4.839  0.1121 -0.1125  0.2647
 1223DPPI    C318397   3.190  18.194   5.047 -0.1964 -0.0879  0.2013
 1223DPPI   PO418398   3.317  17.628   5.316  0.2842  0.1672 -0.1058
 1223DPPI   GL118399   3.218  17.398   5.671 -0.0686  0.1116  0.1076
 1223DPPI   GL218400   3.080  17.160   5.809 -0.1433  0.1266  0.2029
 1223DPPI   C1A18401   3.188  17.654   6.038  0.2031 -0.0404  0.3700
 1223DPPI   C2A18402   3.168  17.644   6.353 -0.2705  0.1532  0.0224
 1223DPPI   C3A18403   2.986  17.554   6.790 -0.3678 -0.2224 -0.1901
 1223DPPI   C4A18404   2.945  17.516   7.269 -0.1975  0.2380  0.1869
 1223DPPI   C1B18405   3.092  17.174   6.209 -0.1917  0.0098  0.0979
 1223DPPI   C2B18406   2.730  17.283   6.489  0.2666 -0.0307  0.1024
 1223DPPI   C3B18407   2.554  17.396   6.945 -0.0307  0.1643 -0.0703
 1223DPPI   C4B18408   2.384  17.217   7.229  0.1927  0.3959  0.1327
 1224DPPI    C118409   7.195  16.148   5.100  0.0108 -0.0511  0.0064
 1224DPPI    C218410   7.047  16.516   5.047 -0.2348 -0.0879  0.3934
 1224DPPI    C318411   6.824  16.196   4.957  0.0207 -0.1485 -0.0532
 1224DPPI   PO418412   7.368  16.183   5.365  0.0687 -0.0136  0.3849
 1224DPPI   GL118413   7.151  16.129   5.779 -0.0122  0.2264  0.1526
 1224DPPI   GL218414   7.469  16.006   5.800  0.0930  0.1239  0.4685
 1224DPPI   C1A18415   6.977  16.255   6.197  0.2374  0.4245 -0.2198
 1224DPPI   C2A18416   6.692  16.542   6.447 -0.0526  0.0705 -0.2278
 1224DPPI   C3A18417   6.461  16.475   6.756  0.2627  0.2223 -0.0215
 1224DPPI   C4A18418   6.416  16.212   7.078  0.0237  0.2550  0.1830
 1224DPPI   C1B18419   7.520  16.177   6.186  0.3564  0.0270 -0.0621
 1224DPPI   C2B18420   7.606  16.105   6.674  0.0395  0.0570 -0.0647
 1224DPPI   C3B18421   7.605  16.077   7.021 -0.1377 -0.2681 -0.0235
 1224DPPI   C4B18422   7.827  16.271   7.409  0.1719 -0.1128  0.1046
 1225DPPI    C118423   0.812  14.618   4.754 -0.1749 -0.1141 -0.2170
 1225DPPI    C218424   1.183  14.669   4.613 -0.0635 -0.1664  0.0514
 1225DPPI    C318425   0.933  14.980   4.635  0.0077 -0.1045 -0.0079
 1225DPPI   PO418426   0.918  14.383   4.883  0.1751  0.5276 -0.2169
 1225DPPI   GL118427   1.028  14.443   5.280 -0.0128 -0.0367  0.2406
 1225DPPI   GL218428   1.314  14.259   5.340  0.0314  0.1633 -0.3266
 1225DPPI   C1A18429   0.813  14.713   5.507  0.0205 -0.0044 -0.0769
 1225DPPI   C2A18430   0.736  14.659   5.931 -0.1132  0.4589 -0.0062
 1225DPPI   C3A18431   0.639  14.604   6.342  0.1390 -0.1070 -0.1601
 1225DPPI   C4A18432   0.529  14.801   6.695  0.1424  0.0389 -0.0438
 1225DPPI   C1B18433   1.218  14.335   5.751  0.3794 -0.1733 -0.0295
 1225DPPI   C2B18434   1.037  14.344   6.182  0.2423 -0.1397  0.4125
 1225DPPI   C3B18435   0.955  14.355   6.702  0.2553  0.2185 -0.0604
 1225DPPI   C4B18436   0.822  14.486   7.092  0.2077 -0.2456  0.2622
 1226DPPI    C118437   2.960   0.621   5.399  0.3268 -0.1729  0.1046
 1226DPPI    C218438   3.102   0.884   5.134 -0.0398 -0.0869 -0.0127
 1226DPPI    C318439   3.289   0.535   5.189 -0.0310 -0.1613 -0.4813
 1226DPPI   PO418440   2.936   0.706   5.646 -0.1013  0.0448 -0.0814
 1226DPPI   GL118441   3.076   0.987   5.972  0.0943  0.0272  0.2061
 1226DPPI   GL218442   3.350   0.965   6.177 -0.0096 -0.1962 -0.1024
 1226DPPI   C1A18443   2.837   0.895   6.331 -0.0717  0.0862 -0.0389
 1226DPPI   C2A18444   2.784   0.863   6.799  0.0399  0.2237 -0.1176
 1226DPPI   C3A18445   3.015   0.799   7.224 -0.1918  0.0062  0.0975
 1226DPPI   C4A18446   3.243   0.845   7.584  0.0482  0.1634 -0.3004
 1226DPPI   C1B18447   3.312   1.035   6.541  0.1459  0.1285 -0.4688
 1226DPPI   C2B18448   3.278   1.196   7.021 -0.3017  0.1812 -0.1728
 1226DPPI   C3B18449   3.453   1.545   7.099  0.0328  0.0323 -0.1740
 1226DPPI   C4B18450   3.494   1.925   6.947  0.2467 -0.2886 -0.0854
 1227DPPI    C118451   4.378   5.833   5.172 -0.0386  0.0139  0.0238
 1227DPPI    C218452   4.082   5.667   5.384  0.1347  0.0007  0.2584
 1227DPPI    C318453   4.211   5.490   5.050 -0.2941  0.1405  0.0108
 1227DPPI   PO418454   4.558   5.844   5.375  0.0714 -0.0230 -0.0385
 1227DPPI   GL118455   4.773   6.112   5.697  0.1293 -0.1634  0.3248
 1227DPPI   GL218456   5.056   6.011   5.484 -0.3330  0.1509  0.1575
 1227DPPI   C1A18457   4.858   6.497   5.960 -0.5069  0.1229  0.2133
 1227DPPI   C2A18458   4.840   6.396   6.397 -0.1238  0.2483 -0.1708
 1227DPPI   C3A18459   4.770   6.243   6.858 -0.0434  0.1968  0.1608
 1227DPPI   C4A18460   4.541   5.991   7.101  0.0108  0.0085  0.1448
 1227DPPI   C1B18461   5.090   5.777   5.865  0.1023  0.4088  0.3562
 1227DPPI   C2B18462   4.803   5.899   6.190  0.0205  0.0166 -0.0471
 1227DPPI   C3B18463   4.509   5.917   6.604  0.4755  0.0040  0.2151
 1227DPPI   C4B18464   4.196   5.844   6.822  0.2737  0.0452 -0.0443
 1228PYPI    C118465   9.563   6.939   4.962  0.2018  0.0579  0.0568
 1228PYPI    C218466   9.568   6.743   4.613 -0.1131 -0.0497  0.1099
 1228PYPI    C318467   9.850   7.015   4.693 -0.0632  0.0082 -0.2463
 1228PYPI   PO418468   9.382   6.737   5.081  0.1529  0.1447 -0.0876
 1228PYPI   GL118469   9.101   6.850   5.327  0.1375  0.0751 -0.0109
 1228PYPI   GL218470   8.974   7.018   5.556  0.0048 -0.3016 -0.1721
 1228PYPI   C1A18471   9.198   6.622   5.748 -0.2225  0.0157 -0.0132
 1228PYPI   C2A18472   9.592   6.614   6.024 -0.1492 -0.3521 -0.2547
 1228PYPI   D3A18473   9.817   6.782   6.346  0.0871  0.0691  0.0712
 1228PYPI   C4A18474   9.959   6.549   6.746  0.1530  0.3304 -0.0121
 1228PYPI   C1B18475   9.371   7.024   5.833 -0.0852  0.0671  0.1023
 1228PYPI   C2B18476   9.358   7.063   6.215 -0.0361 -0.2496 -0.1471
 1228PYPI   C3B18477   9.273   6.743   6.503 -0.0791  0.5160  0.0024
 1228PYPI   C4B18478   9.093   6.472   6.838 -0.0479 -0.1993 -0.2270
 1229PYPI    C118479   5.792   5.516   5.006 -0.1360  0.0099 -0.0176
 1229PYPI    C218480   6.081   5.530   4.729 -0.0870 -0.2420  0.0186
 1229PYPI    C318481   5.696   5.536   4.619 -0.0697  0.0159 -0.0338
 1229PYPI   PO418482   5.959   5.298   5.232 -0.4141  0.0070 -0.1765
 1229PYPI   GL118483   5.712   5.029   5.401  0.4602 -0.0572 -0.0640
 1229PYPI   GL218484   5.351   5.213   5.340 -0.0299 -0.0886 -0.1953
 1229PYPI   C1A18485   5.575   5.075   5.802 -0.0479  0.1474 -0.1584
 1229PYPI   C2A18486   5.564   5.087   6.229 -0.0872 -0.0117  0.0338
 1229PYPI   D3A18487   5.338   5.147   6.623  0.1189  0.1504 -0.1261
 1229PYPI   C4A18488   4.934   5.194   6.687 -0.1984  0.2964 -0.1598
 1229PYPI   C1B18489   5.488   5.531   5.606  0.1918  0.1469 -0.1680
 1229PYPI   C2B18490   5.742   5.481   6.033  0.1672  0.2444  0.1353
 1229PYPI   C3B18491   5.810   5.595   6.483 -0.0584  0.0487  0.2505
 1229PYPI   C4B18492   5.478   5.603   6.765  0.2463  0.3560  0.2737
 1230PYPI    C118493   9.210  18.802   4.747 -0.0788 -0.0941  0.1041
 1230PYPI    C218494   9.036  19.071   4.507  0.0428 -0.0643  0.0479
 1230PYPI    C318495   9.374  18.892   4.393 -0.0681 -0.2850  0.0598
 1230PYPI   PO418496   9.149  18.903   5.088  0.3438  0.1585  0.0305
 1230PYPI   GL118497   9.255  19.121   5.518  0.0317  0.0396  0.0639
 1230PYPI   GL218498   8.969  19.043   5.657  0.0261 -0.0223  0.0701
 1230PYPI   C1A18499   9.377  19.333   5.927 -0.3800  0.1157  0.1203
 1230PYPI   C2A18500   9.209  19.460   6.288 -0.1361 -0.0566  0.1130
 1230PYPI   D3A18501   8.999  19.443   6.625 -0.0532 -0.3858  0.0946
 1230PYPI   C4A18502   8.915  19.615   7.033  0.3648  0.0950 -0.0383
 1230PYPI   C1B18503   8.835  19.198   6.084 -0.1279 -0.2795 -0.0294
 1230PYPI   C2B18504   8.586  19.225   6.401 -0.0257 -0.1258  0.3087
 1230PYPI   C3B18505   8.525  19.386   6.865  0.2174 -0.0848 -0.1183
 1230PYPI   C4B18506   8.515  19.310   7.276 -0.0867 -0.1414  0.1780
 1231PYPI    C118507  17.580  10.067   5.271 -0.2870 -0.1490 -0.2948
 1231PYPI    C218508  17.413  10.021   4.911 -0.1392 -0.0782 -0.3730
 1231PYPI    C318509  17.782   9.883   4.979 -0.1572 -0.0692 -0.2559
 1231PYPI   PO418510  17.383  10.165   5.392  0.1486  0.1733 -0.0280
 1231PYPI   GL118511  17.327  10.087   5.818  0.2348 -0.0484  0.4952
 1231PYPI   GL218512  17.624   9.913   5.736  0.1841  0.2234  0.1773
 1231PYPI   C1A18513  17.278   9.918   6.280 -0.0743  0.1212 -0.2544
 1231PYPI   C2A18514  17.035   9.512   6.402 -0.0251 -0.1008  0.1151
 1231PYPI   D3A18515  16.745   9.230   6.121  0.0004  0.1130 -0.4388
 1231PYPI   C4A18516  16.617   8.782   6.251  0.0642 -0.0204  0.6108
 1231PYPI   C1B18517  17.814   9.843   6.101  0.0321  0.1528 -0.2362
 1231PYPI   C2B18518  17.658   9.763   6.558  0.0423 -0.1561 -0.0351
 1231PYPI   C3B18519  17.291   9.896   6.846 -0.1405 -0.1506 -0.0702
 1231PYPI   C4B18520  17.067   9.868   7.262  0.1291 -0.1013 -0.0503
 1232PYPI    C118521   1.516  17.657   4.983 -0.0502  0.0229  0.1949
 1232PYPI    C218522   1.503  17.260   4.934 -0.1952  0.0353  0.1298
 1232PYPI    C318523   1.261  17.497   4.720  0.1548  0.1849 -0.1092
 1232PYPI   PO418524   1.440  17.652   5.295  0.0092  0.0175 -0.1278
 1232PYPI   GL118525   1.154  17.627   5.585 -0.0396 -0.1730  0.0522
 1232PYPI   GL218526   1.002  17.868   5.624  0.2759 -0.1362  0.1451
 1232PYPI   C1A18527   1.197  17.355   5.893 -0.1482  0.0724 -0.2825
 1232PYPI   C2A18528   1.071  17.461   6.360  0.0953  0.0147 -0.1259
 1232PYPI   D3A18529   1.044  17.590   6.819  0.2505 -0.0230  0.0440
 1232PYPI   C4A18530   1.163  17.522   7.160 -0.0469  0.0713  0.4456
 1232PYPI   C1B18531   0.772  17.586   5.957  0.1232  0.0461 -0.0907
 1232PYPI   C2B18532   0.502  17.475   6.332 -0.0615  0.2544 -0.2679
 1232PYPI   C3B18533   0.402  17.554   6.785  0.0198  0.0269  0.3406
 1232PYPI   C4B18534   0.278  17.818   7.090  0.2013  0.0272 -0.0544
 1233PYPI    C118535   6.797  14.927   4.894  0.1003  0.1725 -0.4506
 1233PYPI    C218536   6.476  15.162   4.857  0.0042  0.1633  0.2007
 1233PYPI    C318537   6.842  15.312   4.798 -0.0779  0.3735  0.2174
 1233PYPI   PO418538   6.741  14.845   5.144  0.2768 -0.0101  0.1269
 1233PYPI   GL118539   6.601  14.757   5.536 -0.1525  0.2977  0.2243
 1233PYPI   GL218540   6.879  14.966   5.669 -0.2018  0.0087  0.1816
 1233PYPI   C1A18541   6.640  14.638   5.944  0.3308 -0.0545  0.1848
 1233PYPI   C2A18542   6.809  14.625   6.365  0.0300 -0.0105  0.0459
 1233PYPI   D3A18543   6.758  14.831   6.883  0.0499 -0.0940  0.0011
 1233PYPI   C4A18544   6.442  14.830   7.245  0.3463  0.2833 -0.1653
 1233PYPI   C1B18545   6.902  15.036   5.992 -0.1801 -0.0787 -0.0659
 1233PYPI   C2B18546   6.981  15.146   6.400  0.3908 -0.3820  0.0181
 1233PYPI   C3B18547   7.028  15.244   6.818 -0.0394 -0.3168  0.1099
 1233PYPI   C4B18548   7.157  15.024   7.146  0.5342  0.0306  0.1395
 1234PYPI    C118549   7.840  12.280   4.765  0.3576  0.2684  0.1367
 1234PYPI    C218550   7.909  12.667   4.694 -0.1196  0.3092 -0.1459
 1234PYPI    C318551   7.589  12.488   4.534 -0.0120 -0.1565  0.1412
 1234PYPI   PO418552   7.916  12.323   5.164  0.0375 -0.0489 -0.0574
 1234PYPI   GL118553   8.037  12.077   5.460  0.2113  0.4935  0.1940
 1234PYPI   GL218554   8.239  11.949   5.428 -0.1612 -0.0511  0.2312
 1234PYPI   C1A18555   8.060  12.220   5.836  0.3116  0.1084 -0.2749
 1234PYPI   C2A18556   8.043  12.272   6.263  0.2233 -0.0030 -0.1020
 1234PYPI   D3A18557   8.219  12.215   6.734  0.2992  0.2531 -0.1035
 1234PYPI   C4A18558   8.214  11.920   6.846 -0.5097 -0.1621 -0.1033
 1234PYPI   C1B18559   8.497  12.033   5.794  0.3592  0.2395  0.1256
 1234PYPI   C2B18560   8.532  11.903   6.246  0.1429  0.0605 -0.0959
 1234PYPI   C3B18561   8.450  11.426   6.511  0.0792 -0.2606  0.2096
 1234PYPI   C4B18562   8.533  11.283   6.879 -0.0019 -0.2365  0.1808
 1235PYPI    C118563  12.410   1.033   4.870  0.0812  0.0596 -0.0920
 1235PYPI    C218564  12.519   1.292   4.586  0.0055 -0.2683 -0.4270
 1235PYPI    C318565  12.132   1.225   4.657  0.0203 -0.0052 -0.0710
 1235PYPI   PO418566  12.578   0.877   4.845  0.0278  0.0842  0.0394
 1235PYPI   GL118567  12.939   0.865   5.072  0.0633  0.1094  0.0320
 1235PYPI   GL218568  12.728   1.044   5.304  0.2638  0.0029  0.1043
 1235PYPI   C1A18569  12.975   0.588   5.394  0.0886 -0.1469  0.1115
 1235PYPI   C2A18570  12.953   0.495   5.778 -0.2947 -0.0706 -0.2306
 1235PYPI   D3A18571  13.134   0.457   6.188  0.2847 -0.2939 -0.2074
 1235PYPI   C4A18572  12.923   0.600   6.481  0.0591 -0.4075  0.1192
 1235PYPI   C1B18573  12.928   1.001   5.706  0.0720  0.1526 -0.2808
 1235PYPI   C2B18574  12.936   0.974   6.178 -0.1511  0.2128 -0.3117
 1235PYPI   C3B18575  13.131   0.998   6.711 -0.4249 -0.1358  0.0952
 1235PYPI   C4B18576  13.087   0.818   7.027  0.1670  0.0489 -0.0763
 1236PYPI    C118577   8.783   4.110   5.240  0.1291 -0.2315 -0.1627
 1236PYPI    C218578   8.583   3.917   4.951 -0.1647 -0.0667 -0.0734
 1236PYPI    C318579   8.631   4.314   4.931 -0.1798 -0.0553  0.1002
 1236PYPI   PO418580   8.950   3.909   5.345 -0.0821  0.6275 -0.1376
 1236PYPI   GL118581   9.055   3.718   5.712 -0.1497 -0.0822 -0.2459
 1236PYPI   GL218582   8.835   3.482   5.749  0.1182 -0.3411  0.1243
 1236PYPI   C1A18583   8.926   3.833   6.151 -0.1137  0.1503 -0.0634
 1236PYPI   C2A18584   8.758   3.585   6.571 -0.2337  0.1178 -0.1505
 1236PYPI   D3A18585   8.889   3.469   6.960 -0.1750 -0.1698  0.2074
 1236PYPI   C4A18586   8.910   3.818   7.222  0.1080  0.1894  0.0541
 1236PYPI   C1B18587   8.879   3.158   6.162 -0.0028  0.0805 -0.0040
 1236PYPI   C2B18588   8.700   2.773   6.379  0.0059 -0.1145  0.1260
 1236PYPI   C3B18589   8.278   2.701   6.604 -0.0136  0.1038 -0.2491
 1236PYPI   C4B18590   8.041   2.583   7.026  0.0783 -0.1843  0.1070
 1237PYPI    C118591   2.128   3.258   5.087 -0.0700 -0.0237 -0.0105
 1237PYPI    C218592   2.377   3.336   4.784 -0.0924 -0.3697 -0.1225
 1237PYPI    C318593   1.982   3.362   4.729 -0.0913 -0.1783 -0.0476
 1237PYPI   PO418594   2.166   3.430   5.334  0.0818  0.1602  0.1550
 1237PYPI   GL118595   2.343   3.607   5.697 -0.2337 -0.0031  0.1160
 1237PYPI   GL218596   2.251   3.951   5.830 -0.2176 -0.2303 -0.1127
 1237PYPI   C1A18597   2.046   3.538   5.986 -0.3153  0.1223  0.2187
 1237PYPI   C2A18598   1.942   3.177   6.100  0.0179  0.1578  0.1163
 1237PYPI   D3A18599   1.647   3.137   6.409 -0.0052 -0.1245 -0.2687
 1237PYPI   C4A18600   1.678   3.166   6.793  0.0382  0.1951 -0.2082
 1237PYPI   C1B18601   2.284   3.880   6.236  0.1148 -0.1274 -0.0608
 1237PYPI   C2B18602   2.366   3.990   6.607 -0.0477 -0.0971  0.0946
 1237PYPI   C3B18603   2.549   3.952   6.961 -0.0871 -0.1547 -0.1953
 1237PYPI   C4B18604   2.710   3.793   7.412  0.1410  0.2184  0.3234
 1238PYPI    C118605   0.176  11.967   5.036 -0.1797 -0.0390  0.0134
 1238PYPI    C218606   0.381  12.197   4.781 -0.1838 -0.1332 -0.0758
 1238PYPI    C318607  -0.016  12.236   4.812 -0.1323  0.1892  0.2426
 1238PYPI   PO418608   0.327  12.008   5.308 -0.3002  0.0932 -0.0567
 1238PYPI   GL118609   0.306  12.211   5.680  0.0499 -0.0084  0.0447
 1238PYPI   GL218610  -0.005  12.042   5.737 -0.1315  0.1512  0.0770
 1238PYPI   C1A18611   0.220  12.472   5.983  0.3232 -0.0164 -0.1068
 1238PYPI   C2A18612   0.244  12.544   6.348 -0.0303  0.2026 -0.3184
 1238PYPI   D3A18613   0.232  12.714   6.768  0.0513  0.0554  0.2381
 1238PYPI   C4A18614  -0.100  12.964   6.944 -0.1374  0.0809 -0.0996
 1238PYPI   C1B18615   0.101  12.047   6.152 -0.2965 -0.2962 -0.0614
 1238PYPI   C2B18616   0.151  12.063   6.565  0.2828 -0.0587  0.0700
 1238PYPI   C3B18617   0.133  12.000   6.986  0.2953  0.0425 -0.2015
 1238PYPI   C4B18618   0.375  11.880   7.356  0.1401  0.0539 -0.2476
 1239PYPI    C118619  17.392   7.166   5.650 -0.1312 -0.2351  0.0292
 1239PYPI    C218620  17.635   7.089   5.343 -0.0061  0.0177  0.0621
 1239PYPI    C318621  17.669   6.879   5.682  0.0143 -0.1006 -0.0124
 1239PYPI   PO418622  17.151   7.186   5.542  0.1865  0.1745  0.0983
 1239PYPI   GL118623  16.862   7.067   5.829 -0.1927  0.2063  0.0825
 1239PYPI   GL218624  16.948   7.165   6.038 -0.2651 -0.3937 -0.4389
 1239PYPI   C1A18625  16.621   6.804   6.218 -0.1355 -0.0150  0.1281
 1239PYPI   C2A18626  16.637   6.824   6.680  0.3465  0.1586  0.0493
 1239PYPI   D3A18627  16.519   6.524   7.054 -0.1925 -0.0970  0.3019
 1239PYPI   C4A18628  16.159   6.466   7.338  0.1849 -0.0103  0.1640
 1239PYPI   C1B18629  17.388   7.352   6.126  0.4054 -0.2277 -0.3596
 1239PYPI   C2B18630  17.584   7.210   6.396 -0.2014 -0.1454 -0.0035
 1239PYPI   C3B18631  17.788   7.384   6.709  0.0792 -0.2867 -0.0127
 1239PYPI   C4B18632  17.962   7.386   7.124  0.0839 -0.3430  0.5126
 1240PYPI    C118633  18.892   8.421   5.296 -0.0985 -0.3161 -0.1248
 1240PYPI    C218634  18.568   8.285   5.105 -0.1945  0.0470 -0.2300
 1240PYPI    C318635  18.693   8.659   5.042  0.0579  0.0143  0.0560
 1240PYPI   PO418636  18.859   8.414   5.474  0.0402  0.0854 -0.0918
 1240PYPI   GL118637  18.764   8.633   5.788  0.0728 -0.2481 -0.2930
 1240PYPI   GL218638  18.748   8.356   5.997 -0.0075  0.1202 -0.1845
 1240PYPI   C1A18639  19.160   8.528   6.122 -0.0414  0.0899 -0.0319
 1240PYPI   C2A18640  19.430   8.339   6.384  0.4307 -0.1214 -0.2757
 1240PYPI   D3A18641  19.358   8.485   6.817  0.1841  0.1017  0.0487
 1240PYPI   C4A18642  19.576   8.545   7.067 -0.1166 -0.0783 -0.1363
 1240PYPI   C1B18643  18.688   8.419   6.505 -0.2754 -0.0338  0.0352
 1240PYPI   C2B18644  18.855   8.524   6.935  0.2411  0.1359  0.1249
 1240PYPI   C3B18645  19.085   8.550   7.263 -0.2083 -0.0188  0.0578
 1240PYPI   C4B18646  19.198   8.480   7.697 -0.3049  0.0887 -0.2055
 1241PYPI    C118647  13.077   4.269   4.970  0.1929 -0.0288  0.1171
 1241PYPI    C218648  13.197   4.451   4.635  0.0671 -0.0244  0.0739
 1241PYPI    C318649  13.157   4.053   4.643 -0.0073 -0.0174  0.0592
 1241PYPI   PO418650  12.927   4.436   5.105 -0.0621 -0.0896 -0.0308
 1241PYPI   GL118651  12.792   4.617   5.540 -0.0899  0.2706  0.1305
 1241PYPI   GL218652  12.703   4.872   5.402  0.0434  0.0515  0.1726
 1241PYPI   C1A18653  12.654   4.739   5.920  0.1165  0.1678  0.2039
 1241PYPI   C2A18654  12.458   4.443   6.180  0.1420 -0.0711 -0.2594
 1241PYPI   D3A18655  12.094   4.314   6.430  0.0784  0.1232  0.0467
 1241PYPI   C4A18656  11.880   4.563   6.137  0.1088  0.3394 -0.0267
 1241PYPI   C1B18657  12.782   5.135   5.702  0.0684 -0.3767  0.0470
 1241PYPI   C2B18658  12.587   5.369   6.023 -0.1675 -0.1390 -0.1289
 1241PYPI   C3B18659  12.455   5.428   6.426  0.1796 -0.0926  0.1163
 1241PYPI   C4B18660  12.470   5.138   6.764 -0.0768 -0.2870  0.1177
 1242PYPI    C118661   8.238   9.115   5.357 -0.0462  0.0281  0.0681
 1242PYPI    C218662   8.275   9.489   5.222 -0.3126  0.0519  0.0554
 1242PYPI    C318663   8.023   9.409   5.521 -0.1824 -0.1023  0.1253
 1242PYPI   PO418664   8.350   8.956   5.115  0.4028  0.0688  0.0199
 1242PYPI   GL118665   8.590   8.722   5.357 -0.1482  0.2950 -0.0500
 1242PYPI   GL218666   8.667   8.410   5.467 -0.0562 -0.3279  0.0898
 1242PYPI   C1A18667   8.413   8.770   5.757  0.0559  0.0407  0.1796
 1242PYPI   C2A18668   8.498   8.782   6.129 -0.0321  0.2262 -0.1089
 1242PYPI   D3A18669   8.533   9.086   6.344  0.0295 -0.0040  0.1016
 1242PYPI   C4A18670   8.552   8.674   6.570  0.2861  0.0207  0.1005
 1242PYPI   C1B18671   8.777   8.386   5.952 -0.2033 -0.2828 -0.0408
 1242PYPI   C2B18672   8.914   8.386   6.428  0.1272  0.1084  0.0635
 1242PYPI   C3B18673   9.059   8.552   6.763 -0.1179 -0.1425 -0.1884
 1242PYPI   C4B18674   9.139   8.748   7.202 -0.0163  0.2223  0.2006
 1243PYPI    C118675   5.518   7.776   5.229  0.1234 -0.1684  0.1284
 1243PYPI    C218676   5.839   7.838   4.999  0.0894  0.0560  0.1392
 1243PYPI    C318677   5.615   7.511   4.945  0.0928  0.0965 -0.1341
 1243PYPI   PO418678   5.479   7.935   5.401 -0.1387  0.3673 -0.6389
 1243PYPI   GL118679   5.443   8.152   5.798  0.1077  0.0976  0.0011
 1243PYPI   GL218680   5.755   8.183   5.865 -0.0184  0.0517 -0.1511
 1243PYPI   C1A18681   5.394   8.227   6.291  0.2217  0.3210 -0.0737
 1243PYPI   C2A18682   5.253   8.357   6.788  0.0049  0.1986 -0.0318
 1243PYPI   D3A18683   5.141   8.665   7.027 -0.1293  0.2562 -0.1511
 1243PYPI   C4A18684   4.936   8.669   7.490 -0.4358  0.0104  0.1406
 1243PYPI   C1B18685   5.769   7.932   6.140  0.0764  0.1171 -0.0153
 1243PYPI   C2B18686   5.856   7.655   6.455  0.0743  0.1503 -0.3302
 1243PYPI   C3B18687   6.001   7.412   6.796 -0.3124 -0.3422  0.0666
 1243PYPI   C4B18688   6.145   7.263   7.214  0.2198 -0.1415 -0.0123
 1244PYPI    C118689  13.454   5.520   5.314 -0.1180 -0.0512  0.0399
 1244PYPI    C218690  13.276   5.689   4.998  0.2238 -0.0270 -0.1443
 1244PYPI    C318691  13.085   5.408   5.209 -0.1710  0.2567 -0.1142
 1244PYPI   PO418692  13.623   5.688   5.485  0.0067 -0.1525 -0.1064
 1244PYPI   GL118693  13.882   5.648   5.763 -0.1062  0.1815  0.2489
 1244PYPI   GL218694  13.932   5.894   5.935 -0.1528  0.0199  0.0346
 1244PYPI   C1A18695  14.190   5.416   6.045  0.0159  0.1324  0.0289
 1244PYPI   C2A18696  14.187   5.419   6.546  0.1848  0.0829 -0.1839
 1244PYPI   D3A18697  14.150   5.482   6.985 -0.3803 -0.1390 -0.0443
 1244PYPI   C4A18698  14.522   5.562   7.183  0.1866  0.0041 -0.0069
 1244PYPI   C1B18699  13.933   5.803   6.315 -0.4366 -0.1352 -0.0457
 1244PYPI   C2B18700  13.778   5.855   6.720  0.0641  0.3601  0.1772
 1244PYPI   C3B18701  13.473   5.946   6.978 -0.1122 -0.1245 -0.2050
 1244PYPI   C4B18702  13.078   5.817   7.115  0.0759 -0.1925 -0.3140
 1245PYPI    C118703  11.267  10.020   5.133 -0.0216  0.1943 -0.2059
 1245PYPI    C218704  11.601  10.178   4.977  0.1006  0.0815 -0.0614
 1245PYPI    C318705  11.582   9.786   5.056 -0.0738  0.0839 -0.0866
 1245PYPI   PO418706  11.242  10.245   5.319 -0.0999  0.0938 -0.0706
 1245PYPI   GL118707  11.212  10.527   5.646  0.1173 -0.1611 -0.1155
 1245PYPI   GL218708  11.509  10.586   5.520 -0.0717 -0.1623 -0.0997
 1245PYPI   C1A18709  11.306  10.418   6.117  0.0193 -0.3753  0.0136
 1245PYPI   C2A18710  11.410  10.350   6.414 -0.3551 -0.1670  0.0337
 1245PYPI   D3A18711  11.698  10.151   6.736  0.0448 -0.0399  0.4780
 1245PYPI   C4A18712  11.915   9.870   7.066  0.0060 -0.1686  0.2276
 1245PYPI   C1B18713  11.575  10.902   5.821 -0.0021  0.1250  0.1548
 1245PYPI   C2B18714  11.484  10.877   6.375 -0.1879 -0.2884  0.0214
 1245PYPI   C3B18715  11.388  11.008   6.731 -0.2446  0.3228  0.2742
 1245PYPI   C4B18716  11.533  11.157   7.123 -0.1020 -0.1374  0.0058
 1246PYPI    C118717   7.145  11.155   5.302  0.0749 -0.0095  0.0958
 1246PYPI    C218718   6.979  11.356   4.998  0.1669  0.1769  0.1672
 1246PYPI    C318719   7.248  11.069   4.925 -0.0856 -0.0350  0.0574
 1246PYPI   PO418720   7.097  11.376   5.557 -0.1018 -0.1274  0.4390
 1246PYPI   GL118721   7.260  11.390   5.965  0.0276 -0.3455  0.1468
 1246PYPI   GL218722   7.522  11.339   6.097  0.0857  0.0502  0.3996
 1246PYPI   C1A18723   6.975  11.354   6.228  0.2013  0.1681  0.2350
 1246PYPI   C2A18724   6.924  11.228   6.648  0.2388  0.0544  0.1808
 1246PYPI   D3A18725   6.864  11.124   6.970  0.1650  0.2576 -0.0439
 1246PYPI   C4A18726   6.471  11.177   7.157 -0.0499 -0.0061 -0.0681
 1246PYPI   C1B18727   7.488  11.399   6.522  0.0824 -0.3805 -0.1584
 1246PYPI   C2B18728   7.617  11.393   6.987 -0.0147  0.1023 -0.1129
 1246PYPI   C3B18729   7.754  10.996   7.189 -0.0384 -0.1326 -0.0054
 1246PYPI   C4B18730   7.974  10.873   7.535  0.1479  0.1461 -0.0897
 1247PYPI    C118731  10.668   0.745   4.998 -0.0991 -0.1975 -0.0391
 1247PYPI    C218732  10.933   0.748   4.698 -0.1339  0.2303 -0.0728
 1247PYPI    C318733  10.583   0.560   4.654  0.1058 -0.2322 -0.0726
 1247PYPI   PO418734  10.715   0.931   5.110 -0.2962 -0.0885 -0.2410
 1247PYPI   GL118735  10.565   1.193   5.464  0.0701  0.1501 -0.1097
 1247PYPI   GL218736  10.228   1.247   5.510  0.3098 -0.0636  0.1273
 1247PYPI   C1A18737  10.787   1.245   5.857  0.1717  0.2828 -0.1212
 1247PYPI   C2A18738  10.934   1.395   6.249 -0.2120 -0.1563  0.0838
 1247PYPI   D3A18739  11.067   1.637   6.579  0.0339  0.0329  0.1921
 1247PYPI   C4A18740  10.769   1.891   6.897 -0.2113 -0.0140 -0.4911
 1247PYPI   C1B18741  10.344   1.371   5.998 -0.0998 -0.2417  0.2760
 1247PYPI   C2B18742  10.439   1.380   6.342 -0.1401 -0.3722  0.3058
 1247PYPI   C3B18743  10.699   1.353   6.752  0.3594  0.4431  0.2015
 1247PYPI   C4B18744  10.991   1.507   7.087  0.0214 -0.1441  0.0422
 1248ERGO   ROH18745  11.854  14.590   5.237  0.1075  0.0655 -0.2014
 1248ERGO    R118746  11.852  14.519   5.511  0.0860  0.0267 -0.2124
 1248ERGO    R218747  12.084  14.491   5.659  0.0660  0.1323 -0.1696
 1248ERGO    R318748  11.963  14.670   5.824 -0.0644  0.0417 -0.1637
 1248ERGO    R418749  12.189  14.565   5.980 -0.0881  0.0562 -0.0995
 1248ERGO    R518750  11.980  14.570   6.042 -0.1236 -0.0311 -0.1866
 1248ERGO    C118751  12.136  14.777   6.321 -0.3003 -0.0732 -0.0532
 1248ERGO    C218752  12.289  15.046   6.399 -0.2353  0.0093 -0.0184
 1249ERGO   ROH18753   1.752   0.226   5.884  0.1103 -0.1536 -0.0954
 1249ERGO    R118754   1.558   0.220   6.090  0.1046 -0.1131 -0.0993
 1249ERGO    R218755   1.625   0.229   6.359  0.0952 -0.0202 -0.0997
 1249ERGO    R318756   1.453   0.439   6.361  0.0685 -0.0409 -0.1708
 1249ERGO    R418757   1.413   0.309   6.619  0.0722  0.0276 -0.1335
 1249ERGO    R518758   1.259   0.357   6.473  0.0729 -0.0341 -0.1567
 1249ERGO    C118759   1.127   0.553   6.772  0.0337  0.0361 -0.2199
 1249ERGO    C218760   0.890   0.884   6.896  0.2544 -0.2855 -0.2004
 1250ERGO   ROH18761   8.395   6.266   5.701  0.0193  0.2340 -0.0101
 1250ERGO    R118762   8.327   6.349   5.963 -0.0097  0.1780  0.0008
 1250ERGO    R218763   8.124   6.231   6.107 -0.0871  0.2038 -0.0781
 1250ERGO    R318764   8.319   6.197   6.294 -0.1361  0.0764 -0.0496
 1250ERGO    R418765   8.072   6.231   6.449 -0.1456  0.1014 -0.0869
 1250ERGO    R518766   8.256   6.345   6.472 -0.1175  0.0309 -0.0105
 1250ERGO    C118767   8.224   6.199   6.823 -0.2256 -0.0780 -0.0653
 1250ERGO    C218768   8.068   6.039   7.081  0.3782 -0.3914 -0.1019
 1251ERGO   ROH18769  11.938   9.949   5.903 -0.0305 -0.0931  0.0630
 1251ERGO    R118770  12.153   9.993   6.082  0.1001 -0.1845 -0.0681
 1251ERGO    R218771  12.116  10.025   6.354  0.2474  0.1457 -0.0797
 1251ERGO    R318772  12.296   9.822   6.370 -0.0091 -0.0772  0.0504
 1251ERGO    R418773  12.264   9.915   6.646  0.1510  0.1821 -0.0173
 1251ERGO    R518774  12.451   9.893   6.537  0.1095 -0.1453 -0.0311
 1251ERGO    C118775  12.519   9.660   6.831 -0.1459 -0.0057  0.1412
 1251ERGO    C218776  12.399   9.557   7.178  0.0675  0.0078  0.1393
 1252ERGO   ROH18777  18.269  10.691   5.799  0.1291 -0.0167  0.0777
 1252ERGO    R118778  18.111  10.840   5.981  0.0981  0.0572 -0.0090
 1252ERGO    R218779  17.909  10.726   6.131 -0.0799  0.1625 -0.1631
 1252ERGO    R318780  18.045  10.837   6.339 -0.1507  0.0454 -0.0527
 1252ERGO    R418781  17.805  10.722   6.461 -0.1198 -0.1558 -0.1770
 1252ERGO    R518782  17.875  10.927   6.480 -0.2056 -0.1420  0.0037
 1252ERGO    C118783  17.871  10.823   6.847 -0.2094 -0.4512 -0.0816
 1252ERGO    C218784  17.825  10.972   7.203  0.0429 -0.0575 -0.0079
 1253ERGO   ROH18785  12.303   3.249   5.551 -0.3507  0.0561 -0.0525
 1253ERGO    R118786  12.154   3.076   5.719 -0.2287  0.1246  0.1297
 1253ERGO    R218787  12.269   2.861   5.850 -0.1545  0.1102  0.0412
 1253ERGO    R318788  12.160   2.979   6.069  0.1090  0.1739  0.1414
 1253ERGO    R418789  12.249   2.717   6.164 -0.1019  0.0533  0.0185
 1253ERGO    R518790  12.050   2.801   6.185 -0.0042  0.2589  0.1675
 1253ERGO    C118791  12.135   2.743   6.552  0.1762  0.0800  0.0994
 1253ERGO    C218792  12.134   2.799   6.808 -0.0052  0.1729 -0.0112
 1254ERGO   ROH18793   0.723  12.256   5.440 -0.1474  0.2964  0.0320
 1254ERGO    R118794   0.819  12.221   5.704 -0.1914 -0.0591  0.0053
 1254ERGO    R218795   0.803  12.418   5.896  0.1549 -0.1620  0.1513
 1254ERGO    R318796   0.678  12.224   6.040 -0.1734 -0.0604  0.0125
 1254ERGO    R418797   0.801  12.398   6.241  0.1628 -0.4296  0.1374
 1254ERGO    R518798   0.826  12.182   6.224 -0.2203 -0.4663 -0.0341
 1254ERGO    C118799   0.683  12.204   6.577 -0.1409 -0.4899 -0.0010
 1254ERGO    C218800   0.506  12.360   6.969  0.4895  0.2090 -0.1321
 1255ERGO   ROH18801   8.117  12.561   5.502  0.0360  0.0322  0.0397
 1255ERGO    R118802   8.061  12.741   5.714  0.1482  0.0276  0.0737
 1255ERGO    R218803   7.878  12.683   5.913  0.0751  0.1252  0.0332
 1255ERGO    R318804   8.088  12.738   6.077  0.0956 -0.0783  0.0775
 1255ERGO    R418805   7.858  12.716   6.257  0.0849 -0.1357  0.0608
 1255ERGO    R518806   7.998  12.883   6.244  0.1466 -0.1743  0.1910
 1255ERGO    C118807   8.044  12.786   6.610  0.1098 -0.4787  0.1183
 1255ERGO    C218808   8.057  12.967   6.927 -0.0847 -0.1297 -0.0999
 1256ERGO   ROH18809   8.931   7.459   5.741  0.0273  0.2506 -0.0354
 1256ERGO    R118810   9.024   7.353   5.986 -0.0644 -0.0409 -0.1232
 1256ERGO    R218811   9.204   7.488   6.147  0.1136 -0.3716 -0.0475
 1256ERGO    R318812   9.012   7.450   6.337  0.0968 -0.2864 -0.0458
 1256ERGO    R418813   9.241   7.561   6.483  0.0668 -0.1254 -0.0939
 1256ERGO    R518814   9.134   7.377   6.530  0.1004 -0.1259  0.0209
 1256ERGO    C118815   9.084   7.569   6.856  0.0238  0.0980 -0.1193
 1256ERGO    C218816   9.128   7.496   7.209 -0.4492  0.5861  0.1419
 1257ERGO   ROH18817   7.977  11.230   5.909  0.0825  0.2925  0.1731
 1257ERGO    R118818   8.053  11.194   6.179 -0.0541  0.1572  0.1944
 1257ERGO    R218819   7.871  11.138   6.379 -0.1399 -0.0607  0.0541
 1257ERGO    R318820   8.035  10.927   6.426 -0.0632 -0.0106  0.0162
 1257ERGO    R418821   7.928  10.998   6.690 -0.0901 -0.0851  0.0344
 1257ERGO    R518822   8.139  10.978   6.636 -0.0788 -0.0019  0.0257
 1257ERGO    C118823   8.116  10.718   6.915  0.0109 -0.0522 -0.0127
 1257ERGO    C218824   8.104  10.492   7.198 -0.0364 -0.3071  0.3001
 1258ERGO   ROH18825  12.315  15.948   5.159  0.0986 -0.2622 -0.0865
 1258ERGO    R118826  12.427  15.931   5.418  0.1780 -0.3641 -0.1252
 1258ERGO    R218827  12.305  16.041   5.641  0.5313  0.0818 -0.1288
 1258ERGO    R318828  12.330  15.789   5.739 -0.0330  0.0682  0.0071
 1258ERGO    R418829  12.367  15.962   5.972  0.2411  0.0945 -0.0700
 1258ERGO    R518830  12.502  15.805   5.904 -0.0607 -0.2217  0.0605
 1258ERGO    C118831  12.426  15.679   6.256 -0.4577  0.0891  0.0918
 1258ERGO    C218832  12.345  15.589   6.566 -0.1324  0.0787 -0.0598
 1259ERGO   ROH18833  12.779  16.124   5.147  0.1276  0.2872  0.0410
 1259ERGO    R118834  12.826  16.234   5.404  0.1209  0.0490  0.1462
 1259ERGO    R218835  12.622  16.325   5.567  0.1411  0.2022  0.0820
 1259ERGO    R318836  12.734  16.154   5.746 -0.1871 -0.0700  0.0398
 1259ERGO    R418837  12.556  16.323   5.906 -0.0214  0.1033  0.0518
 1259ERGO    R518838  12.767  16.287   5.942 -0.0826 -0.2266  0.1328
 1259ERGO    C118839  12.623  16.161   6.272 -0.4242 -0.2099 -0.0053
 1259ERGO    C218840  12.318  16.092   6.520  0.0007 -0.5416 -0.2208
 1260ERGO   ROH18841  13.936  16.777   6.933  0.1034  0.1522 -0.1616
 1260ERGO    R118842  14.182  16.646   6.983  0.0913  0.1830 -0.0159
 1260ERGO    R218843  14.246  16.541   7.230 -0.0909  0.0887 -0.0051
 1260ERGO    R318844  14.287  16.313   7.087  0.0743  0.1598 -0.0737
 1260ERGO    R418845  14.368  16.244   7.360 -0.4438 -0.0409  0.0397
 1260ERGO    R518846  14.487  16.219   7.179 -0.1248  0.0238  0.2342
 1260ERGO    C118847  14.477  15.858   7.302 -0.4944 -0.0496  0.0015
 1260ERGO    C218848  14.617  15.677   7.475  0.0762  0.0647  0.2256
 1261ERGO   ROH18849  15.845   9.331   5.541 -0.0126 -0.2465 -0.0879
 1261ERGO    R118850  15.907   9.395   5.810 -0.0965  0.0132 -0.1287
 1261ERGO    R218851  15.744   9.554   5.966 -0.3087 -0.0983 -0.2372
 1261ERGO    R318852  15.755   9.343   6.136 -0.0277  0.0249 -0.0936
 1261ERGO    R418853  15.619   9.554   6.288 -0.4329 -0.0824 -0.2841
 1261ERGO    R518854  15.795   9.441   6.351 -0.2658  0.2394 -0.1401
 1261ERGO    C118855  15.556   9.355   6.636 -0.2413  0.0424 -0.1767
 1261ERGO    C218856  15.308   9.393   6.859 -0.2019 -0.1040  0.2143
 1262ERGO   ROH18857  17.654  12.300   5.682 -0.3013  0.0168  0.0360
 1262ERGO    R118858  17.768  12.256   5.937 -0.1525  0.2164  0.0097
 1262ERGO    R218859  17.701  12.408   6.158 -0.3318  0.1413  0.0260
 1262ERGO    R318860  17.646  12.166   6.269  0.0756  0.0545  0.0477
 1262ERGO    R418861  17.710  12.339   6.496 -0.0241  0.1045  0.0116
 1262ERGO    R518862  17.801  12.147   6.450  0.2092  0.2435 -0.0566
 1262ERGO    C118863  17.663  12.072   6.798  0.5375  0.0016  0.0235
 1262ERGO    C218864  17.491  11.990   7.189 -0.1083 -0.0679 -0.0479
 1263ERGO   ROH18865   7.357   5.234   5.822  0.0307  0.0378 -0.1737
 1263ERGO    R118866   7.281   5.278   6.091  0.0294  0.3044 -0.2154
 1263ERGO    R218867   7.053   5.417   6.160 -0.1994  0.0135 -0.3651
 1263ERGO    R318868   6.999   5.193   6.304  0.2317  0.1189 -0.0152
 1263ERGO    R418869   6.826   5.400   6.420 -0.2728 -0.0409 -0.4324
 1263ERGO    R518870   6.967   5.273   6.528 -0.0277  0.4323 -0.1541
 1263ERGO    C118871   6.643   5.180   6.707  0.0893  0.0264 -0.1431
 1263ERGO    C218872   6.395   5.180   6.902 -0.0601 -0.2304 -0.4256
 1264ERGO   ROH18873   1.018   9.875   6.022  0.2337 -0.0537  0.0464
 1264ERGO    R118874   1.048   9.780   6.287  0.0756 -0.0546  0.0649
 1264ERGO    R218875   0.851   9.809   6.479  0.0178  0.0736 -0.0122
 1264ERGO    R318876   0.879   9.540   6.503 -0.1497  0.0579  0.0171
 1264ERGO    R418877   0.870   9.638   6.779  0.1172  0.1172  0.0066
 1264ERGO    R518878   1.025   9.511   6.691 -0.0320 -0.0055 -0.0822
 1264ERGO    C118879   0.908   9.286   6.976  0.0177  0.1279  0.0450
 1264ERGO    C218880   0.794   9.164   7.184 -0.0088 -0.0268 -0.0125
 1265ERGO   ROH18881   4.176  13.510   5.743  0.0910  0.0939 -0.0434
 1265ERGO    R118882   4.337  13.440   5.965  0.0432  0.0307 -0.0279
 1265ERGO    R218883   4.450  13.629   6.132  0.0893 -0.0145 -0.0088
 1265ERGO    R318884   4.325  13.485   6.326  0.0201  0.0216 -0.0271
 1265ERGO    R418885   4.501  13.669   6.471 -0.0413  0.0662  0.0015
 1265ERGO    R518886   4.493  13.452   6.493 -0.0397  0.0676  0.0453
 1265ERGO    C118887   4.413  13.557   6.851 -0.1823  0.1469 -0.0098
 1265ERGO    C218888   4.281  13.668   7.159  0.4158  0.1715  0.0181
 1266ERGO   ROH18889  14.138  15.614   5.585  0.5199 -0.1283  0.0997
 1266ERGO    R118890  14.008  15.723   5.812  0.4586  0.1403 -0.0589
 1266ERGO    R218891  13.912  15.566   6.018 -0.1473  0.3204 -0.1722
 1266ERGO    R318892  14.065  15.730   6.171  0.0289 -0.0102  0.0143
 1266ERGO    R418893  13.877  15.607   6.359 -0.3895  0.3321 -0.1972
 1266ERGO    R518894  13.913  15.820   6.333  0.0573  0.2623 -0.1198
 1266ERGO    C118895  14.001  15.784   6.702 -0.3652  0.0285 -0.0365
 1266ERGO    C218896  13.938  15.866   7.099  0.1927  0.2001  0.0338
 1267ERGO   ROH18897  10.925   9.811   5.937  0.0196 -0.0592  0.1824
 1267ERGO    R118898  10.927   9.819   6.220  0.0874  0.0266  0.1798
 1267ERGO    R218899  11.084   9.995   6.363  0.0320  0.1482  0.0855
 1267ERGO    R318900  10.847  10.062   6.478  0.0287  0.0629  0.1300
 1267ERGO    R418901  11.050  10.155   6.668  0.0371 -0.1170  0.2287
 1267ERGO    R518902  10.881  10.025   6.712  0.0201 -0.1499  0.1040
 1267ERGO    C118903  10.807  10.312   6.953  0.0370 -0.3515  0.3538
 1267ERGO    C218904  10.829  10.380   7.331  0.0698  0.0515 -0.1620
 1268ERGO   ROH18905  18.278   8.369   6.010 -0.0251  0.0632 -0.2426
 1268ERGO    R118906  18.306   8.519   6.248  0.1472  0.1510 -0.3177
 1268ERGO    R218907  18.290   8.795   6.252 -0.2214  0.1311 -0.3615
 1268ERGO    R318908  18.099   8.749   6.441  0.1311 -0.0880 -0.0426
 1268ERGO    R418909  18.243   8.984   6.538  0.0144  0.0916 -0.2930
 1268ERGO    R518910  18.207   8.800   6.648  0.4113  0.0496 -0.2146
 1268ERGO    C118911  18.038   9.051   6.881  0.4829 -0.1371  0.0463
 1268ERGO    C218912  17.916   9.183   7.299  0.0213  0.0407  0.0667
 1269ERGO   ROH18913   3.317  16.035   5.504 -0.0757 -0.1584  0.1273
 1269ERGO    R118914   3.257  15.919   5.755  0.0367 -0.0936  0.1845
 1269ERGO    R218915   3.335  16.034   5.994 -0.0000  0.0573  0.1261
 1269ERGO    R318916   3.070  16.016   6.053  0.0190 -0.0895  0.1715
 1269ERGO    R418917   3.192  16.131   6.293 -0.0309  0.1367  0.0863
 1269ERGO    R518918   3.065  15.954   6.284  0.0894  0.0444  0.2084
 1269ERGO    C118919   2.860  16.170   6.523 -0.0311  0.0457  0.1057
 1269ERGO    C218920   2.573  16.381   6.761 -0.3112  0.1630  0.0766
 1270ERGO   ROH18921  15.193  14.581   7.233 -0.0504 -0.2019 -0.0256
 1270ERGO    R118922  14.956  14.560   7.385 -0.0660 -0.0462 -0.0282
 1270ERGO    R218923  14.774  14.768   7.407 -0.0156  0.0116 -0.1759
 1270ERGO    R318924  14.598  14.580   7.320 -0.0575 -0.0028 -0.0650
 1270ERGO    R418925  14.439  14.755   7.492  0.0126  0.0504 -0.0531
 1270ERGO    R518926  14.456  14.539   7.509  0.0071  0.0528 -0.0027
 1270ERGO    C118927  14.079  14.572   7.460 -0.0102  0.0595  0.1224
 1270ERGO    C218928  13.850  14.713   7.514 -0.1215  0.1518  0.3073
 1271ERGO   ROH18929  12.994   1.811   5.060  0.2821 -0.0794 -0.0396
 1271ERGO    R118930  12.812   1.769   5.273  0.1354  0.2229 -0.1002
 1271ERGO    R218931  12.797   1.530   5.412 -0.3652  0.2157 -0.1533
 1271ERGO    R318932  12.836   1.690   5.628 -0.1173  0.1002 -0.1081
 1271ERGO    R418933  12.733   1.439   5.739 -0.1121  0.0783 -0.1394
 1271ERGO    R518934  12.653   1.639   5.773 -0.0124  0.0948  0.0275
 1271ERGO    C118935  12.732   1.537   6.132  0.2678 -0.1101 -0.0888
 1271ERGO    C218936  12.609   1.398   6.384  0.4583 -0.1268 -0.1383
 1272ERGO   ROH18937   9.988  18.509   5.766 -0.1371 -0.2956  0.0343
 1272ERGO    R118938   9.863  18.502   6.020 -0.1584 -0.2157  0.0262
 1272ERGO    R218939   9.998  18.561   6.255 -0.1619 -0.2031  0.0250
 1272ERGO    R318940   9.796  18.739   6.288 -0.1211 -0.1467 -0.0253
 1272ERGO    R418941   9.798  18.583   6.535 -0.3047 -0.2264 -0.0739
 1272ERGO    R518942   9.627  18.617   6.405 -0.2248 -0.1280 -0.1539
 1272ERGO    C118943   9.491  18.763   6.730 -0.3496 -0.1872 -0.1786
 1272ERGO    C218944   9.325  18.842   7.045 -0.0665 -0.2291 -0.0323
 1273ERGO   ROH18945   6.188   1.739   6.038  0.2197  0.1642 -0.0324
 1273ERGO    R118946   6.159   1.891   6.275 -0.0759 -0.0178  0.0539
 1273ERGO    R218947   6.060   1.784   6.510  0.1712 -0.3570  0.0094
 1273ERGO    R318948   6.292   1.881   6.613 -0.0126  0.0783  0.0329
 1273ERGO    R418949   6.119   1.836   6.846  0.1354 -0.5407  0.0448
 1273ERGO    R518950   6.221   2.021   6.795 -0.2946 -0.2451  0.1873
 1273ERGO    C118951   6.371   1.957   7.140 -0.0577 -0.2391  0.0875
 1273ERGO    C218952   6.382   2.070   7.484  0.0928  0.5070 -0.1280
 1274ERGO   ROH18953   2.612   1.485   5.937 -0.0747 -0.0689 -0.0709
 1274ERGO    R118954   2.680   1.342   6.172 -0.0807  0.0258 -0.0107
 1274ERGO    R218955   2.917   1.383   6.307 -0.0666  0.0528 -0.0436
 1274ERGO    R318956   2.752   1.422   6.520 -0.0478  0.1711 -0.0503
 1274ERGO    R418957   3.022   1.477   6.623 -0.0109 -0.0169 -0.0410
 1274ERGO    R518958   2.876   1.338   6.707 -0.1129  0.0854 -0.0450
 1274ERGO    C118959   2.927   1.569   7.006  0.0392  0.0536 -0.0458
 1274ERGO    C218960   3.054   1.767   7.214  0.0226 -0.3187 -0.0257
 1275ERGO   ROH18961   4.106   2.564   5.773  0.0299 -0.0587  0.0713
 1275ERGO    R118962   4.037   2.676   6.023 -0.2588  0.0272 -0.0419
 1275ERGO    R218963   4.227   2.766   6.204 -0.4435 -0.2174  0.2880
 1275ERGO    R318964   4.083   2.996   6.191 -0.1328 -0.0294  0.0325
 1275ERGO    R418965   4.166   2.975   6.472 -0.4306 -0.0027  0.1250
 1275ERGO    R518966   3.963   3.002   6.398 -0.3283  0.2308 -0.0842
 1275ERGO    C118967   3.996   3.313   6.616 -0.1312  0.2988 -0.2099
 1275ERGO    C218968   4.050   3.352   6.884  0.2344  0.0967  0.1411
 1276ERGO   ROH18969   3.677  17.998   6.018 -0.0640 -0.1101 -0.1046
 1276ERGO    R118970   3.590  17.920   6.276 -0.0050 -0.0989 -0.0797
 1276ERGO    R218971   3.714  18.007   6.507 -0.0077 -0.0119 -0.1027
 1276ERGO    R318972   3.463  18.087   6.574 -0.0294 -0.0921 -0.0961
 1276ERGO    R418973   3.549  17.918   6.797 -0.1350 -0.3916 -0.2870
 1276ERGO    R518974   3.366  17.896   6.681 -0.0839 -0.2283 -0.3897
 1276ERGO    C118975   3.217  17.941   7.028 -0.2296 -0.6881 -0.3882
 1276ERGO    C218976   3.039  17.957   7.374  0.1517 -0.0983  0.0487
 1277ERGO   ROH18977  13.598   3.983   5.728 -0.1424 -0.1198 -0.0528
 1277ERGO    R118978  13.428   4.029   5.950 -0.1115 -0.1390 -0.0245
 1277ERGO    R218979  13.440   3.877   6.180 -0.0458 -0.1284 -0.0185
 1277ERGO    R318980  13.469   4.120   6.300 -0.0640 -0.1182 -0.0360
 1277ERGO    R418981  13.475   3.927   6.521 -0.0229 -0.1004 -0.0252
 1277ERGO    R518982  13.345   4.101   6.504 -0.0432 -0.1182 -0.0249
 1277ERGO    C118983  13.522   4.183   6.831 -0.0265 -0.0746 -0.0456
 1277ERGO    C218984  13.670   4.225   7.108  0.0100 -0.1058 -0.1740
 1278ERGO   ROH18985  13.306   6.940   6.030 -0.0612  0.2924  0.2108
 1278ERGO    R118986  13.515   6.848   6.198  0.0361  0.3318  0.1122
 1278ERGO    R218987  13.508   6.876   6.473  0.0898  0.1941  0.1261
 1278ERGO    R318988  13.549   6.607   6.469  0.2482  0.2185 -0.0119
 1278ERGO    R418989  13.626   6.691   6.740 -0.1058  0.0864  0.1397
 1278ERGO    R518990  13.748   6.576   6.600  0.1223  0.2497  0.1941
 1278ERGO    C118991  13.733   6.331   6.892 -0.0709  0.0466  0.0180
 1278ERGO    C218992  13.867   6.220   7.123  0.0124  0.1104 -0.0670
 1279ERGO   ROH18993   1.502  12.979   5.622  0.0708 -0.4452 -0.1050
 1279ERGO    R118994   1.604  12.867   5.861  0.1177 -0.1904 -0.0023
 1279ERGO    R218995   1.690  13.023   6.073 -0.1274  0.0353 -0.0603
 1279ERGO    R318996   1.514  12.870   6.214 -0.0068 -0.0813 -0.0347
 1279ERGO    R418997   1.671  13.010   6.418 -0.2307  0.2058 -0.0588
 1279ERGO    R518998   1.639  12.795   6.404  0.0121  0.1618  0.0502
 1279ERGO    C118999   1.495  12.860   6.751 -0.1777  0.1955 -0.0340
 1279ERGO    C219000   1.526  12.861   7.021  0.1232 -0.4734 -0.1834
 1280ERGO   ROH19001   3.551  15.016   5.727  0.0776  0.2543  0.0697
 1280ERGO    R119002   3.438  15.087   5.977 -0.0599 -0.0288  0.0927
 1280ERGO    R219003   3.234  14.942   6.095 -0.0094 -0.2745 -0.0905
 1280ERGO    R319004   3.405  14.932   6.305 -0.0641 -0.3289 -0.0500
 1280ERGO    R419005   3.144  14.865   6.419 -0.0741 -0.3084 -0.1170
 1280ERGO    R519006   3.280  15.020   6.489 -0.0792 -0.3465 -0.0646
 1280ERGO    C119007   3.253  14.811   6.806 -0.1631 -0.3791 -0.0945
 1280ERGO    C219008   3.364  14.553   7.123  0.0289 -0.3044 -0.0613
 1281ERGO   ROH19009   0.803   4.185   5.820  0.0321  0.2314  0.1385
 1281ERGO    R119010   0.917   4.133   6.073  0.0576 -0.0765  0.0669
 1281ERGO    R219011   0.775   4.156   6.309  0.1890  0.0310  0.1328
 1281ERGO    R319012   0.859   3.901   6.347 -0.1933 -0.1274 -0.0251
 1281ERGO    R419013   0.760   3.987   6.609  0.1705 -0.0327  0.0966
 1281ERGO    R519014   0.956   3.903   6.566  0.0060 -0.3475 -0.1032
 1281ERGO    C119015   0.830   3.648   6.821 -0.1991 -0.2185 -0.0727
 1281ERGO    C219016   0.717   3.426   7.102 -0.2008 -0.2275 -0.0494
 1282ERGO   ROH19017   5.388  16.221   5.703 -0.0105 -0.1134  0.0988
 1282ERGO    R119018   5.223  16.121   5.911 -0.0596  0.1542  0.1929
 1282ERGO    R219019   5.311  15.931   6.092 -0.2920 -0.0637  0.0825
 1282ERGO    R319020   5.231  16.115   6.275  0.1951  0.0559  0.1880
 1282ERGO    R419021   5.251  15.864   6.425 -0.1250 -0.0132  0.1235
 1282ERGO    R519022   5.078  15.997   6.416  0.0974  0.3047  0.2977
 1282ERGO    C119023   5.141  15.998   6.792  0.4294  0.1285  0.2465
 1282ERGO    C219024   5.254  15.935   7.098 -0.0110 -0.0078 -0.0451
 1283ERGO   ROH19025  18.794  10.469   5.932  0.2735 -0.1168  0.0400
 1283ERGO    R119026  18.861  10.390   6.195  0.3482 -0.1006  0.0262
 1283ERGO    R219027  18.680  10.268   6.364  0.3058  0.1794  0.1890
 1283ERGO    R319028  18.874  10.078   6.382  0.0906 -0.0510  0.1307
 1283ERGO    R419029  18.674   9.999   6.582  0.1091  0.2522  0.2754
 1283ERGO    R519030  18.887  10.029   6.616  0.1692  0.0067  0.1391
 1283ERGO    C119031  18.853   9.665   6.726 -0.2075  0.0783  0.2711
 1283ERGO    C219032  18.944   9.434   7.044 -0.0584 -0.1302  0.1710
 1284ERGO   ROH19033  11.399   1.253   5.966  0.0488  0.2324 -0.0283
 1284ERGO    R119034  11.649   1.133   6.022  0.0259  0.2417  0.0985
 1284ERGO    R219035  11.742   1.095   6.280 -0.1623  0.1231  0.1517
 1284ERGO    R319036  11.766   0.837   6.198 -0.0637  0.1683  0.0355
 1284ERGO    R419037  11.963   0.865   6.412 -0.2506  0.0787  0.2223
 1284ERGO    R519038  12.001   0.791   6.211 -0.0686  0.1888  0.2140
 1284ERGO    C119039  12.115   0.488   6.413 -0.2095  0.0953  0.1543
 1284ERGO    C219040  12.501   0.338   6.511  0.1256  0.3065 -0.2418
 1285ERGO   ROH19041  17.213   3.956   5.670 -0.0059  0.2690 -0.0606
 1285ERGO    R119042  17.028   4.068   5.852 -0.0122  0.2849 -0.0763
 1285ERGO    R219043  16.923   3.926   6.065 -0.1962  0.2289 -0.1998
 1285ERGO    R319044  17.017   4.137   6.209 -0.1196  0.0881 -0.0408
 1285ERGO    R419045  16.808   4.018   6.377 -0.2775  0.1377 -0.2026
 1285ERGO    R519046  16.822   4.227   6.316 -0.1074  0.1620 -0.0827
 1285ERGO    C119047  16.829   4.270   6.695 -0.2530 -0.0476 -0.0551
 1285ERGO    C219048  17.125   4.182   6.975  0.1184  0.1200  0.2836
 1286ERGO   ROH19049   0.585  18.939   5.738 -0.1657  0.2123 -0.2372
 1286ERGO    R119050   0.442  19.106   5.916 -0.0534  0.1364 -0.0727
 1286ERGO    R219051   0.218  19.019   6.053 -0.1091  0.1487 -0.1531
 1286ERGO    R319052   0.358  19.105   6.270 -0.0472 -0.1528 -0.0700
 1286ERGO    R419053   0.088  19.050   6.372 -0.1721  0.2316 -0.1867
 1286ERGO    R519054   0.200  19.236   6.394  0.1142  0.0497 -0.0762
 1286ERGO    C119055   0.143  19.148   6.761 -0.1506 -0.0031 -0.1281
 1286ERGO    C219056   0.236  19.247   7.019 -0.1699  0.0357 -0.1522
 1287ERGO   ROH19057   0.288  13.216   5.438 -0.0420  0.1829 -0.0742
 1287ERGO    R119058   0.158  13.276   5.683 -0.0733 -0.0592 -0.0301
 1287ERGO    R219059   0.079  13.080   5.861  0.3909 -0.2131  0.0166
 1287ERGO    R319060   0.226  13.226   6.037  0.1670  0.1044 -0.0502
 1287ERGO    R419061   0.075  13.039   6.204  0.4297 -0.0337  0.0403
 1287ERGO    R519062   0.082  13.255   6.225  0.1073 -0.0062 -0.0765
 1287ERGO    C119063   0.211  13.152   6.569  0.2421  0.3688 -0.0086
 1287ERGO    C219064   0.230  13.261   7.014 -0.2114 -0.0744  0.2705
 1288ERGO   ROH19065   8.318   9.063   6.851 -0.3883 -0.0479 -0.2113
 1288ERGO    R119066   8.252   9.174   7.103 -0.1019  0.0410 -0.1718
 1288ERGO    R219067   8.019   9.315   7.147 -0.0198  0.1239  0.0270
 1288ERGO    R319068   7.986   9.135   7.348  0.1300  0.1859  0.1079
 1288ERGO    R419069   7.886   9.388   7.458 -0.0399  0.1570  0.0102
 1288ERGO    R519070   8.037   9.258   7.547  0.0610  0.3046  0.0502
 1288ERGO    C119071   7.778   9.262   7.827  0.0888  0.2346  0.0762
 1288ERGO    C219072   7.543   9.313   8.129 -0.4568 -0.4768  0.1208
 1289ERGO   ROH19073   6.520  16.445   5.892 -0.0850  0.0616 -0.0292
 1289ERGO    R119074   6.283  16.518   6.028 -0.1622 -0.1769 -0.0314
 1289ERGO    R219075   6.161  16.352   6.214  0.1083 -0.2245  0.1085
 1289ERGO    R319076   6.183  16.571   6.374 -0.1637 -0.0787 -0.0464
 1289ERGO    R419077   6.025  16.380   6.530  0.3461 -0.3053  0.2196
 1289ERGO    R519078   5.971  16.585   6.484 -0.0997 -0.4291  0.1401
 1289ERGO    C119079   5.967  16.601   6.865  0.2293 -0.2153  0.1389
 1289ERGO    C219080   6.131  16.672   7.208  0.1824 -0.0954 -0.0039
 1290ERGO   ROH19081  12.133   5.046   5.413 -0.0450  0.0388  0.0211
 1290ERGO    R119082  12.272   5.029   5.658 -0.0134 -0.1645 -0.0096
 1290ERGO    R219083  12.200   5.176   5.881  0.2644 -0.0352 -0.0041
 1290ERGO    R319084  12.195   4.932   6.000 -0.0897 -0.0245  0.0148
 1290ERGO    R419085  12.152   5.121   6.219  0.1005  0.0599 -0.0106
 1290ERGO    R519086  12.303   4.965   6.211 -0.0972 -0.1464  0.0421
 1290ERGO    C119087  12.119   4.860   6.527 -0.3272  0.1253  0.0034
 1290ERGO    C219088  12.199   4.659   6.827  0.0218  0.0416 -0.6177
 1291ERGO   ROH19089   8.938   0.600   5.631  0.1501 -0.1428  0.0743
 1291ERGO    R119090   8.955   0.764   5.861  0.0194 -0.0916  0.0488
 1291ERGO    R219091   8.736   0.893   5.969 -0.0608 -0.1438 -0.0472
 1291ERGO    R319092   8.814   0.766   6.196 -0.0912 -0.0742  0.0023
 1291ERGO    R419093   8.611   0.957   6.285  0.0348  0.0854 -0.0542
 1291ERGO    R519094   8.813   0.937   6.364  0.0372  0.0105 -0.0827
 1291ERGO    C119095   8.612   0.875   6.682  0.0617  0.2841 -0.0119
 1291ERGO    C219096   8.401   0.987   6.877 -0.1260  0.0245 -0.2242
 1292ERGO   ROH19097  10.131   6.624   5.725  0.0249  0.0324  0.1566
 1292ERGO    R119098  10.101   6.447   5.944  0.0474  0.0165  0.1456
 1292ERGO    R219099  10.311   6.302   6.049  0.0933  0.1493  0.2265
 1292ERGO    R319100  10.234   6.419   6.282 -0.0686  0.0999  0.2007
 1292ERGO    R419101  10.338   6.157   6.361  0.3157  0.2538  0.2586
 1292ERGO    R519102  10.143   6.239   6.411  0.1898 -0.0096  0.2446
 1292ERGO    C119103  10.282   6.182   6.762  0.2931  0.2682  0.2530
 1292ERGO    C219104  10.313   5.983   7.151  0.0471  0.0948  0.2001
 1293ERGO   ROH19105  17.791  14.780   5.260  0.3610  0.5264 -0.1849
 1293ERGO    R119106  17.797  14.945   5.489  0.2483  0.2957 -0.0124
 1293ERGO    R219107  17.574  14.989   5.647  0.1399  0.2360 -0.1536
 1293ERGO    R319108  17.738  14.905   5.846 -0.0629 -0.0339 -0.0936
 1293ERGO    R419109  17.570  15.111   5.970 -0.0154 -0.0066 -0.0608
 1293ERGO    R519110  17.788  15.104   5.970 -0.0143 -0.1576  0.0955
 1293ERGO    C119111  17.721  15.103   6.346 -0.2965 -0.4010  0.0496
 1293ERGO    C219112  17.598  15.145   6.575 -0.2556 -0.1515  0.3211
 1294ERGO   ROH19113  13.423  13.337   5.570  0.2206  0.1104  0.0721
 1294ERGO    R119114  13.479  13.344   5.847  0.2125  0.1309  0.0726
 1294ERGO    R219115  13.356  13.521   6.019  0.2090  0.1416  0.0534
 1294ERGO    R319116  13.294  13.295   6.157  0.2052  0.1537  0.0732
 1294ERGO    R419117  13.166  13.511   6.308  0.1297  0.1673  0.0032
 1294ERGO    R519118  13.303  13.361   6.387  0.1334  0.1976  0.0669
 1294ERGO    C119119  12.998  13.292   6.605  0.0799  0.1937 -0.0076
 1294ERGO    C219120  12.756  13.140   6.768  0.0467 -0.1211 -0.0356
 1295ERGO   ROH19121   7.063  14.500   5.306  0.0033 -0.1270 -0.1288
 1295ERGO    R119122   7.115  14.435   5.577  0.1247 -0.1195 -0.1482
 1295ERGO    R219123   7.345  14.514   5.708  0.1140  0.0229 -0.2042
 1295ERGO    R319124   7.169  14.618   5.887  0.0924 -0.1104 -0.1486
 1295ERGO    R419125   7.415  14.576   6.040  0.0365 -0.3275 -0.1195
 1295ERGO    R519126   7.217  14.503   6.091  0.0045 -0.3267 -0.2495
 1295ERGO    C119127   7.291  14.711   6.402 -0.0290 -0.6567 -0.0180
 1295ERGO    C219128   7.286  14.817   6.701  0.2065  0.0765  0.3103
 1296ERGO   ROH19129  18.725   2.457   5.531  0.0077 -0.0450  0.0449
 1296ERGO    R119130  18.604   2.549   5.770 -0.1352 -0.0954 -0.0063
 1296ERGO    R219131  18.385   2.424   5.884 -0.0565 -0.2646 -0.0328
 1296ERGO    R319132  18.545   2.417   6.104 -0.1020 -0.0726  0.0081
 1296ERGO    R419133  18.272   2.404   6.210 -0.1182 -0.0990 -0.0433
 1296ERGO    R519134  18.427   2.546   6.268 -0.1802 -0.0106 -0.0977
 1296ERGO    C119135  18.355   2.385   6.606 -0.1970  0.1777 -0.0110
 1296ERGO    C219136  18.463   2.402   6.977 -0.1468  0.0147  0.0154
 1297ERGO   ROH19137  15.726   5.748   5.350 -0.0630 -0.1955  0.0167
 1297ERGO    R119138  15.781   5.840   5.612 -0.1057 -0.0091 -0.0391
 1297ERGO    R219139  15.584   5.931   5.782 -0.1732 -0.1695 -0.0324
 1297ERGO    R319140  15.688   5.746   5.951  0.0957  0.0314  0.0291
 1297ERGO    R419141  15.547   5.935   6.126 -0.2064 -0.1251 -0.0360
 1297ERGO    R519142  15.755   5.872   6.144 -0.1073  0.1916 -0.0008
 1297ERGO    C119143  15.623   5.762   6.484  0.0269  0.0893  0.0195
 1297ERGO    C219144  15.704   5.676   6.691 -0.2285 -0.2822  0.0416
 1298ERGO   ROH19145  16.611  11.148   5.728  0.0265  0.2653  0.0135
 1298ERGO    R119146  16.592  11.264   5.985 -0.1259  0.2458  0.0144
 1298ERGO    R219147  16.396  11.192   6.167 -0.1555  0.1281 -0.0468
 1298ERGO    R319148  16.610  11.148   6.329 -0.1793  0.2352  0.0105
 1298ERGO    R419149  16.388  11.201   6.512 -0.2294  0.1576 -0.0512
 1298ERGO    R519150  16.580  11.301   6.510 -0.2796  0.2331 -0.0134
 1298ERGO    C119151  16.583  11.164   6.866 -0.2947  0.2753  0.0001
 1298ERGO    C219152  16.659  11.272   7.315  0.2911 -0.1878  0.0701
 1299ERGO   ROH19153   8.635   9.702   5.605  0.0295  0.0967  0.0644
 1299ERGO    R119154   8.458   9.861   5.758 -0.1416 -0.0451  0.0160
 1299ERGO    R219155   8.242   9.754   5.893  0.0060 -0.2451  0.0982
 1299ERGO    R319156   8.354   9.881   6.106 -0.1131 -0.0077  0.0225
 1299ERGO    R419157   8.092   9.792   6.203 -0.0536 -0.1498  0.0580
 1299ERGO    R519158   8.171   9.994   6.211 -0.2147 -0.0789 -0.0742
 1299ERGO    C119159   8.110   9.933   6.582 -0.2003  0.1286 -0.0365
 1299ERGO    C219160   8.181  10.134   6.863 -0.1571 -0.1414 -0.2039
 1300ERGO   ROH19161   7.880   7.991   5.837  0.1517 -0.1144  0.0203
 1300ERGO    R119162   7.913   7.835   6.070  0.0188 -0.0769  0.0647
 1300ERGO    R219163   7.915   7.945   6.324 -0.0777 -0.0311  0.0439
 1300ERGO    R319164   7.719   7.763   6.370 -0.1294  0.0103 -0.0084
 1300ERGO    R419165   7.826   7.826   6.636 -0.2461  0.0584  0.0317
 1300ERGO    R519166   7.805   7.627   6.548 -0.2344  0.0389  0.0670
 1300ERGO    C119167   7.591   7.584   6.860 -0.3927  0.1493 -0.0246
 1300ERGO    C219168   7.467   7.665   7.112 -0.1973 -0.0604 -0.1494
 1301ERGO   ROH19169   8.450   4.392   6.140 -0.0700  0.1342  0.1781
 1301ERGO    R119170   8.520   4.314   6.403 -0.1004  0.1693  0.1974
 1301ERGO    R219171   8.730   4.143   6.457 -0.3399 -0.1352  0.2161
 1301ERGO    R319172   8.810   4.345   6.621  0.0307 -0.1605  0.0747
 1301ERGO    R419173   8.874   4.100   6.768 -0.2893 -0.1738  0.1868
 1301ERGO    R519174   8.756   4.268   6.841 -0.0059  0.0491  0.1380
 1301ERGO    C119175   9.033   4.264   7.103  0.0879 -0.2201  0.0371
 1301ERGO    C219176   9.191   4.194   7.471 -0.1922  0.0112  0.0718
 1302ERGO   ROH19177  16.683   1.793   5.415  0.0438 -0.1931 -0.0642
 1302ERGO    R119178  16.590   1.744   5.678 -0.0749 -0.4274 -0.1484
 1302ERGO    R219179  16.610   1.497   5.799  0.4271 -0.3906 -0.1500
 1302ERGO    R319180  16.736   1.638   5.995 -0.0866 -0.0800 -0.0199
 1302ERGO    R419181  16.604   1.417   6.136  0.6231 -0.6749 -0.2089
 1302ERGO    R519182  16.585   1.629   6.181 -0.1237 -0.7409 -0.0511
 1302ERGO    C119183  16.719   1.502   6.515  0.2549 -0.5488 -0.1210
 1302ERGO    C219184  16.636   1.334   6.825  0.1665  0.4632 -0.0737
 1303ERGO   ROH19185   2.628   3.230   5.754 -0.3112 -0.2766 -0.0840
 1303ERGO    R119186   2.467   3.169   5.979 -0.0521 -0.2407  0.1168
 1303ERGO    R219187   2.572   3.125   6.230  0.2140  0.1766  0.0889
 1303ERGO    R319188   2.397   3.319   6.303  0.0170  0.0327  0.0078
 1303ERGO    R419189   2.486   3.202   6.556  0.1591  0.2459  0.0583
 1303ERGO    R519190   2.280   3.227   6.490  0.1258  0.0015  0.0607
 1303ERGO    C119191   2.272   3.429   6.814 -0.0577  0.1512 -0.0356
 1303ERGO    C219192   2.345   3.461   7.131 -0.1647 -0.0957  0.1014
 1304ERGO   ROH19193   2.443  18.187   6.035  0.1035 -0.2006 -0.1320
 1304ERGO    R119194   2.225  18.015   6.091  0.0341 -0.1120 -0.1276
 1304ERGO    R219195   2.146  17.955   6.349  0.0515 -0.1228 -0.1278
 1304ERGO    R319196   1.904  18.040   6.260  0.0724  0.0016 -0.0684
 1304ERGO    R419197   1.843  17.882   6.499  0.0376 -0.1556 -0.1713
 1304ERGO    R519198   1.756  17.856   6.300  0.0283  0.0042 -0.1943
 1304ERGO    C119199   1.439  17.921   6.502  0.0491 -0.0579 -0.1407
 1304ERGO    C219200   1.212  18.099   6.762 -0.1301 -0.1708 -0.0519
 1305ERGO   ROH19201   9.853   4.355   5.769 -0.3676 -0.1812 -0.2370
 1305ERGO    R119202   9.927   4.250   6.021 -0.2480 -0.3107 -0.3242
 1305ERGO    R219203   9.866   4.377   6.259  0.1678 -0.2471 -0.2394
 1305ERGO    R319204   9.756   4.136   6.321 -0.1008 -0.1074 -0.1607
 1305ERGO    R419205   9.825   4.255   6.580  0.0203 -0.1015 -0.2020
 1305ERGO    R519206   9.884   4.058   6.508 -0.1951 -0.1905 -0.1328
 1305ERGO    C119207   9.698   3.959   6.826 -0.3179  0.1143 -0.1063
 1305ERGO    C219208   9.466   3.950   7.132  0.0218  0.0438 -0.2445
 1306ERGO   ROH19209  17.897  16.169   5.577 -0.3018 -0.0203 -0.2180
 1306ERGO    R119210  17.749  16.146   5.817 -0.0963 -0.2431 -0.1109
 1306ERGO    R219211  17.830  15.985   6.027  0.4061  0.0310 -0.0914
 1306ERGO    R319212  17.805  16.215   6.170 -0.0181  0.0478 -0.1746
 1306ERGO    R419213  17.742  16.002   6.361  0.4338 -0.0311 -0.0789
 1306ERGO    R519214  17.618  16.175   6.314  0.0733 -0.2762 -0.1252
 1306ERGO    C119215  17.667  16.228   6.689  0.0518 -0.0516 -0.1498
 1306ERGO    C219216  17.874  16.091   6.912  0.2410  0.0672  0.3982
 1307ERGO   ROH19217   7.282  14.097   5.852  0.1807 -0.0913  0.0192
 1307ERGO    R119218   7.395  14.079   6.112  0.1958 -0.0517  0.0156
 1307ERGO    R219219   7.595  14.249   6.199  0.0206  0.1311  0.0686
 1307ERGO    R319220   7.422  14.295   6.403 -0.0320 -0.1080  0.0805
 1307ERGO    R419221   7.686  14.322   6.524 -0.0584 -0.0211  0.1259
 1307ERGO    R519222   7.525  14.194   6.594  0.0115 -0.1680  0.0268
 1307ERGO    C119223   7.577  14.408   6.905 -0.1537 -0.3341  0.1704
 1307ERGO    C219224   7.565  14.708   7.159  0.0317  0.1898 -0.4587
 1308ERGO   ROH19225   5.570   9.175   5.763 -0.0859 -0.0583  0.0137
 1308ERGO    R119226   5.548   9.152   6.045  0.0308 -0.0964  0.0210
 1308ERGO    R219227   5.760   9.078   6.205  0.1282 -0.0111 -0.0647
 1308ERGO    R319228   5.700   9.310   6.335  0.0663 -0.0516 -0.0216
 1308ERGO    R419229   5.824   9.139   6.540  0.2434 -0.0062 -0.0879
 1308ERGO    R519230   5.630   9.239   6.553  0.1975 -0.1055  0.0038
 1308ERGO    C119231   5.805   9.392   6.856  0.2525 -0.0415 -0.0609
 1308ERGO    C219232   5.972   9.357   7.133  0.2758 -0.0346 -0.0268
 1309ERGO   ROH19233  12.808   2.752   5.731  0.0653 -0.0856 -0.0483
 1309ERGO    R119234  12.649   2.724   5.963  0.0802 -0.0666 -0.0358
 1309ERGO    R219235  12.678   2.514   6.139  0.0230 -0.1081 -0.0740
 1309ERGO    R319236  12.705   2.713   6.323  0.1161 -0.1473 -0.0440
 1309ERGO    R419237  12.721   2.465   6.479 -0.1112 -0.1740 -0.0657
 1309ERGO    R519238  12.586   2.633   6.515  0.0018 -0.0798 -0.0871
 1309ERGO    C119239  12.771   2.624   6.849 -0.1021 -0.2492 -0.0327
 1309ERGO    C219240  12.782   2.398   7.236  0.1158 -0.2216 -0.0073
 1310ERGO   ROH19241  12.455  17.797   5.575 -0.3096 -0.1064 -0.0251
 1310ERGO    R119242  12.534  17.709   5.832 -0.2563 -0.0486 -0.0209
 1310ERGO    R219243  12.479  17.852   6.063 -0.2086  0.0054 -0.0391
 1310ERGO    R319244  12.369  17.617   6.143 -0.1938  0.0234  0.0330
 1310ERGO    R419245  12.390  17.777   6.388  0.1453 -0.0486  0.0499
 1310ERGO    R519246  12.467  17.575   6.358  0.0425 -0.0648 -0.0912
 1310ERGO    C119247  12.234  17.512   6.653  0.3653 -0.0631  0.1693
 1310ERGO    C219248  11.997  17.346   6.894  0.0526  0.0394  0.3606
 1311ERGO   ROH19249   4.669  16.802   5.852 -0.0651 -0.2839  0.0786
 1311ERGO    R119250   4.522  16.831   6.091 -0.1338 -0.3451  0.0452
 1311ERGO    R219251   4.437  16.615   6.242 -0.0149 -0.3815  0.0671
 1311ERGO    R319252   4.567  16.745   6.442 -0.1409 -0.2555  0.0675
 1311ERGO    R419253   4.375  16.571   6.579 -0.0624 -0.3387  0.0633
 1311ERGO    R519254   4.398  16.786   6.606 -0.2008 -0.3206  0.0190
 1311ERGO    C119255   4.461  16.667   6.963 -0.2083 -0.1955  0.0615
 1311ERGO    C219256   4.476  16.514   7.299 -0.1274  0.1543 -0.2518
 1312ERGO   ROH19257  13.344  15.592   5.872 -0.0451  0.1167  0.0710
 1312ERGO    R119258  13.488  15.637   6.112  0.0467 -0.0005  0.0400
 1312ERGO    R219259  13.453  15.864   6.265  0.2546  0.0238  0.0593
 1312ERGO    R319260  13.408  15.684   6.464  0.1623  0.0484  0.0597
 1312ERGO    R419261  13.483  15.931   6.603  0.1096  0.0587  0.0652
 1312ERGO    R519262  13.574  15.734   6.628  0.0909  0.0599  0.1266
 1312ERGO    C119263  13.458  15.800   6.986 -0.0615  0.1021  0.0690
 1312ERGO    C219264  13.402  15.924   7.257  0.1283 -0.0826  0.1737
 1313ERGO   ROH19265  14.594  18.771   5.448  0.2292 -0.1394  0.0894
 1313ERGO    R119266  14.781  18.794   5.660  0.2372  0.0942  0.0598
 1313ERGO    R219267  14.830  19.032   5.790 -0.1160  0.1392  0.1205
 1313ERGO    R319268  14.772  18.886   6.012  0.1559 -0.0229  0.0890
 1313ERGO    R419269  15.024  19.023   6.076 -0.0346  0.3442  0.0745
 1313ERGO    R519270  14.985  18.809   6.089  0.2963  0.2772  0.0172
 1313ERGO    C119271  15.082  18.880   6.451  0.2681  0.3115  0.0181
 1313ERGO    C219272  15.048  18.757   6.749 -0.1877 -0.3852 -0.2366
 1314ERGO   ROH19273  15.484   4.460   5.663  0.0443  0.1592  0.1644
 1314ERGO    R119274  15.596   4.248   5.813  0.1541  0.0907 -0.0099
 1314ERGO    R219275  15.834   4.273   5.951  0.1579  0.0907 -0.0109
 1314ERGO    R319276  15.685   4.188   6.161  0.2121 -0.1389 -0.0632
 1314ERGO    R419277  15.945   4.258   6.278  0.2174 -0.2064 -0.0425
 1314ERGO    R519278  15.839   4.068   6.299  0.2563 -0.2453 -0.2058
 1314ERGO    C119279  15.868   4.169   6.666  0.3029 -0.5950 -0.1101
 1314ERGO    C219280  15.796   4.266   7.009  0.1781  0.3733  0.0535
 1315ERGO   ROH19281  13.338  11.328   6.012  0.0033 -0.1756 -0.0013
 1315ERGO    R119282  13.286  11.493   6.236 -0.1408 -0.2340  0.0098
 1315ERGO    R219283  13.199  11.392   6.479  0.1195 -0.3498  0.0583
 1315ERGO    R319284  13.415  11.526   6.575 -0.0316 -0.0185 -0.0509
 1315ERGO    R419285  13.267  11.441   6.814  0.2390 -0.2943  0.0262
 1315ERGO    R519286  13.331  11.644   6.766 -0.1105 -0.1798  0.0163
 1315ERGO    C119287  13.509  11.596   7.100  0.1667  0.0490 -0.0950
 1315ERGO    C219288  13.779  11.485   7.340 -0.0479 -0.0760  0.4233
 1316ERGO   ROH19289   9.774  14.067   5.674 -0.0185 -0.2025 -0.1647
 1316ERGO    R119290   9.779  13.944   5.929  0.1528  0.0713 -0.0315
 1316ERGO    R219291   9.823  14.087   6.162 -0.1370  0.4025 -0.1699
 1316ERGO    R319292   9.589  13.972   6.239  0.0454  0.0683 -0.0965
 1316ERGO    R419293   9.693  14.096   6.482 -0.0403  0.1949 -0.1230
 1316ERGO    R519294   9.633  13.889   6.459  0.2393  0.1084 -0.1179
 1316ERGO    C119295   9.398  13.994   6.741  0.1872 -0.2398 -0.0268
 1316ERGO    C219296   9.139  14.112   6.983 -0.1106 -0.1969  0.1664
 1317ERGO   ROH19297   9.263  15.634   5.836 -0.1116  0.0502 -0.0538
 1317ERGO    R119298   9.419  15.777   6.024 -0.2195 -0.2083  0.2420
 1317ERGO    R219299   9.436  16.053   6.023  0.4110 -0.2350  0.1202
 1317ERGO    R319300   9.358  16.027   6.282 -0.2781  0.0689 -0.0344
 1317ERGO    R419301   9.511  16.277   6.275  0.4433 -0.3375  0.2025
 1317ERGO    R519302   9.544  16.108   6.409 -0.3296 -0.3965  0.3670
 1317ERGO    C119303   9.481  16.382   6.666 -0.1847 -0.1119  0.1052
 1317ERGO    C219304   9.536  16.643   6.953  0.3124  0.1865  0.1719
 1318ERGO   ROH19305  18.762  11.555   5.804  0.0271 -0.0074  0.1173
 1318ERGO    R119306  18.880  11.447   6.037  0.0382  0.0576  0.1415
 1318ERGO    R219307  18.826  11.544   6.290 -0.1425 -0.0337  0.1385
 1318ERGO    R319308  18.764  11.285   6.341  0.0701 -0.1000  0.0709
 1318ERGO    R419309  18.865  11.388   6.596 -0.0454 -0.0727  0.1067
 1318ERGO    R519310  18.936  11.211   6.491  0.1169  0.0095  0.0725
 1318ERGO    C119311  18.831  11.054   6.822  0.2109 -0.1576  0.0247
 1318ERGO    C219312  18.760  10.878   7.110  0.0753 -0.0731  0.1563
 1319ERGO   ROH19313  18.890  12.664   5.640  0.4339  0.0190 -0.0264
 1319ERGO    R119314  18.724  12.698   5.867  0.2094 -0.0934 -0.1721
 1319ERGO    R219315  18.651  12.488   6.030  0.4235 -0.1023 -0.0917
 1319ERGO    R319316  18.752  12.647   6.226  0.0245  0.1914 -0.1128
 1319ERGO    R419317  18.637  12.417   6.368  0.5217 -0.0574 -0.0777
 1319ERGO    R519318  18.594  12.628   6.405  0.0235 -0.1331 -0.1385
 1319ERGO    C119319  18.724  12.526   6.749  0.2042  0.2444 -0.0894
 1319ERGO    C219320  18.862  12.480   7.067  0.3038  0.0502 -0.3047
 1320ERGO   ROH19321  14.987   7.439   5.600  0.0696  0.1405  0.1029
 1320ERGO    R119322  14.957   7.496   5.876  0.0523  0.1200  0.1058
 1320ERGO    R219323  14.860   7.311   6.056  0.0129  0.1149  0.0827
 1320ERGO    R319324  15.091   7.366   6.188  0.0090  0.0751  0.1050
 1320ERGO    R419325  14.887   7.353   6.398  0.0206 -0.0641  0.1047
 1320ERGO    R519326  15.026   7.517   6.362 -0.0036 -0.0274  0.1883
 1320ERGO    C119327  15.120   7.429   6.721  0.0216 -0.2057  0.1383
 1320ERGO    C219328  15.008   7.381   7.074 -0.3923  0.1270  0.2730
 1321ERGO   ROH19329  11.341   6.983   5.869  0.2436  0.0647 -0.0244
 1321ERGO    R119330  11.483   7.021   6.111  0.0567  0.1299  0.0779
 1321ERGO    R219331  11.358   7.041   6.356 -0.1171 -0.1180  0.0144
 1321ERGO    R319332  11.527   6.839   6.423  0.0782  0.0469  0.0268
 1321ERGO    R419333  11.402   6.921   6.677 -0.0224 -0.0774  0.0168
 1321ERGO    R519334  11.616   6.906   6.636 -0.0031  0.1338  0.0339
 1321ERGO    C119335  11.587   6.661   6.927  0.2161  0.1010  0.0297
 1321ERGO    C219336  11.504   6.712   7.274 -0.0787  0.0247  0.1863
 1322ERGO   ROH19337   9.584  12.008   5.851 -0.2530  0.0393 -0.0787
 1322ERGO    R119338   9.522  12.234   6.010 -0.1991  0.0070 -0.0120
 1322ERGO    R219339   9.412  12.213   6.263 -0.0856 -0.0450  0.0325
 1322ERGO    R319340   9.625  12.365   6.333 -0.0661 -0.0411 -0.0338
 1322ERGO    R419341   9.480  12.323   6.583 -0.0608  0.0662 -0.0103
 1322ERGO    R519342   9.540  12.515   6.500 -0.0442  0.0299 -0.0846
 1322ERGO    C119343   9.720  12.531   6.836 -0.0281  0.1347 -0.0974
 1322ERGO    C219344   9.784  12.689   7.217 -0.1759  0.1529  0.1199
 1323ERGO   ROH19345   8.849   6.308   5.583 -0.0984 -0.2923 -0.0577
 1323ERGO    R119346   8.894   6.221   5.849  0.0965  0.0619  0.0335
 1323ERGO    R219347   8.963   6.394   6.053 -0.2237  0.4150 -0.1426
 1323ERGO    R319348   8.747   6.284   6.175 -0.0054  0.1114 -0.0214
 1323ERGO    R419349   8.897   6.411   6.392 -0.1457  0.4790 -0.1311
 1323ERGO    R519350   8.831   6.204   6.385  0.1975  0.3579 -0.0041
 1323ERGO    C119351   8.656   6.318   6.704  0.1046  0.2312 -0.0107
 1323ERGO    C219352   8.653   6.229   7.042  0.0547 -0.0375 -0.0224
 1324ERGO   ROH19353  14.943   2.402   5.416 -0.0280  0.1813  0.0016
 1324ERGO    R119354  14.814   2.442   5.665  0.0909  0.0937  0.0781
 1324ERGO    R219355  14.887   2.305   5.893  0.2768  0.0958  0.0219
 1324ERGO    R319356  14.910   2.556   5.997  0.2248  0.0934  0.0400
 1324ERGO    R419357  14.794   2.396   6.214  0.1216  0.0889 -0.0197
 1324ERGO    R519358  14.715   2.582   6.133  0.1590  0.0895 -0.0533
 1324ERGO    C119359  14.763   2.683   6.498 -0.0176  0.0827 -0.0270
 1324ERGO    C219360  14.769   2.719   6.818 -0.0702 -0.1063 -0.1962
 1325ERGO   ROH19361   8.216   8.127   5.522 -0.0203  0.0739 -0.1398
 1325ERGO    R119362   8.338   8.240   5.751 -0.1546  0.2647 -0.1577
 1325ERGO    R219363   8.192   8.342   5.962 -0.2893 -0.0403 -0.0829
 1325ERGO    R319364   8.345   8.171   6.108  0.0822  0.2030 -0.1759
 1325ERGO    R419365   8.203   8.332   6.307 -0.1668 -0.1471 -0.0907
 1325ERGO    R519366   8.418   8.301   6.295 -0.1153  0.2725 -0.1566
 1325ERGO    C119367   8.353   8.166   6.645  0.2533  0.0192 -0.1826
 1325ERGO    C219368   8.201   8.046   6.958 -0.4381  0.1473  0.1289
 1326ERGO   ROH19369   6.705   0.029   5.739  0.0556 -0.0720  0.1153
 1326ERGO    R119370   6.720  -0.026   6.017 -0.0334 -0.0138  0.1312
 1326ERGO    R219371   6.688   0.170   6.210 -0.1646  0.0123  0.0784
 1326ERGO    R319372   6.497  -0.000   6.303 -0.1497 -0.0252  0.0439
 1326ERGO    R419373   6.616   0.116   6.544 -0.2174  0.0072  0.0673
 1326ERGO    R519374   6.593  -0.096   6.500 -0.1659 -0.0015  0.0663
 1326ERGO    C119375   6.396  -0.074   6.826 -0.2342 -0.0310  0.0285
 1326ERGO    C219376   6.211  -0.219   6.976  0.0383  0.0045  0.0702
 1327ERGO   ROH19377  11.344  11.309   5.983  0.2839  0.0469 -0.0523
 1327ERGO    R119378  11.323  11.308   6.266  0.2397 -0.0059 -0.0559
 1327ERGO    R219379  11.524  11.399   6.431  0.1329  0.1559 -0.0136
 1327ERGO    R319380  11.327  11.556   6.532 -0.0250 -0.0318 -0.0248
 1327ERGO    R419381  11.550  11.587   6.720 -0.0314  0.2496 -0.0584
 1327ERGO    R519382  11.345  11.529   6.769  0.0340  0.0402 -0.0207
 1327ERGO    C119383  11.379  11.843   6.984 -0.2753  0.1280 -0.0950
 1327ERGO    C219384  11.408  12.135   7.328  0.4836  0.1996  0.3674
 1328ERGO   ROH19385   3.717   0.065   6.238 -0.0469  0.2082  0.0101
 1328ERGO    R119386   3.715  -0.011   6.511 -0.1004 -0.0609 -0.0614
 1328ERGO    R219387   3.668   0.169   6.716  0.3325 -0.1561  0.1431
 1328ERGO    R319388   3.474  -0.009   6.784 -0.0081  0.1569  0.0172
 1328ERGO    R419389   3.522   0.145   7.028  0.2302 -0.0727  0.1013
 1328ERGO    R519390   3.526  -0.072   7.008 -0.1643 -0.0686 -0.0137
 1328ERGO    C119391   3.255  -0.036   7.273 -0.1491  0.2698 -0.0414
 1328ERGO    C219392   3.080  -0.065   7.640  0.0108  0.2330  0.3910
 1329ERGO   ROH19393   2.133  10.456   5.924  0.1849 -0.0106  0.0932
 1329ERGO    R119394   2.152  10.222   6.081  0.3063  0.0344  0.1431
 1329ERGO    R219395   2.201  10.229   6.353 -0.1115  0.1432  0.2126
 1329ERGO    R319396   1.975  10.079   6.365  0.0929 -0.2113 -0.1034
 1329ERGO    R419397   2.105  10.039   6.626 -0.3120  0.2292  0.2045
 1329ERGO    R519398   2.040   9.884   6.488  0.1969 -0.0094  0.1932
 1329ERGO    C119399   1.836   9.788   6.795 -0.2368 -0.0537 -0.0970
 1329ERGO    C219400   1.870   9.666   7.201 -0.1875  0.2200  0.1210
 1330ERGO   ROH19401   0.031   6.107   5.847 -0.2017 -0.0965 -0.0639
 1330ERGO    R119402  -0.120   6.079   6.085 -0.1281  0.0395 -0.0015
 1330ERGO    R219403  -0.122   5.846   6.233 -0.2447  0.0572  0.0161
 1330ERGO    R319404  -0.050   6.012   6.436 -0.0403  0.0191 -0.0210
 1330ERGO    R419405  -0.076   5.749   6.562 -0.3820  0.0681  0.0400
 1330ERGO    R519406  -0.174   5.933   6.625 -0.1554  0.2153 -0.0061
 1330ERGO    C119407   0.018   5.848   6.943 -0.2700  0.0387  0.0192
 1330ERGO    C219408  -0.008   5.912   7.261 -0.1386 -0.0770  0.1208
 1331ERGO   ROH19409   3.704  17.451   5.949  0.0599 -0.0094  0.1558
 1331ERGO    R119410   3.578  17.388   6.195 -0.0169  0.1742  0.1623
 1331ERGO    R219411   3.720  17.313   6.420 -0.1217 -0.2755  0.0745
 1331ERGO    R319412   3.584  17.518   6.535  0.3989  0.0045  0.2301
 1331ERGO    R419413   3.626  17.327   6.752 -0.3969 -0.4957  0.0109
 1331ERGO    R519414   3.435  17.412   6.690 -0.0995  0.2054 -0.0716
 1331ERGO    C119415   3.443  17.528   7.053 -0.0683 -0.3612  0.1199
 1331ERGO    C219416   3.471  17.580   7.322  0.0346 -0.0891 -0.0179
 1332ERGO   ROH19417  18.105  14.740   7.288  0.0119 -0.0439 -0.0536
 1332ERGO    R119418  18.124  14.986   7.427  0.2046 -0.0368 -0.0894
 1332ERGO    R219419  18.357  15.134   7.436  0.2460 -0.0792 -0.3442
 1332ERGO    R319420  18.196  15.333   7.342  0.1832 -0.0573 -0.1918
 1332ERGO    R419421  18.469  15.437   7.313  0.1439  0.0868 -0.0396
 1332ERGO    R519422  18.303  15.535   7.415  0.0824 -0.0785  0.0183
 1332ERGO    C119423  18.384  15.800   7.153  0.0252  0.2040  0.2809
 1332ERGO    C219424  18.344  16.051   7.067  0.3767 -0.2964  0.0100
 1333ERGO   ROH19425  11.829   3.193   5.370  0.1725 -0.2279 -0.0736
 1333ERGO    R119426  11.717   3.229   5.628 -0.0142 -0.0581 -0.1762
 1333ERGO    R219427  11.522   3.061   5.730  0.0446 -0.0977 -0.1384
 1333ERGO    R319428  11.698   3.038   5.937 -0.0689  0.2266  0.0018
 1333ERGO    R419429  11.443   2.937   6.043  0.0349 -0.3482 -0.2383
 1333ERGO    R519430  11.568   3.093   6.131 -0.3617 -0.0918 -0.0899
 1333ERGO    C119431  11.561   2.842   6.419 -0.0774 -0.1896 -0.1649
 1333ERGO    C219432  11.512   2.595   6.729  0.0404 -0.1204 -0.1786
 1334ERGO   ROH19433   4.717   9.615   5.677  0.0536 -0.0556 -0.0137
 1334ERGO    R119434   4.678   9.708   5.941  0.0969 -0.0615 -0.0050
 1334ERGO    R219435   4.443   9.830   6.022  0.1858  0.1225 -0.0181
 1334ERGO    R319436   4.448   9.639   6.215  0.0012  0.0878 -0.0461
 1334ERGO    R419437   4.335   9.875   6.348  0.0167  0.1087 -0.0714
 1334ERGO    R519438   4.506   9.757   6.415 -0.0671  0.0314  0.0074
 1334ERGO    C119439   4.277   9.721   6.718 -0.2551  0.0682 -0.1289
 1334ERGO    C219440   4.130   9.791   6.977 -0.0126  0.1803 -0.2112
 1335ERGO   ROH19441   7.034  15.464   5.732  0.2235 -0.1264 -0.1085
 1335ERGO    R119442   7.189  15.584   5.937  0.1724 -0.0571 -0.1098
 1335ERGO    R219443   7.077  15.739   6.137  0.1215  0.0061 -0.1854
 1335ERGO    R319444   7.207  15.564   6.300  0.0858  0.0604 -0.0987
 1335ERGO    R419445   7.151  15.797   6.469  0.1280  0.1523 -0.2121
 1335ERGO    R519446   7.345  15.704   6.437  0.1101  0.1001 -0.1641
 1335ERGO    C119447   7.316  15.668   6.816  0.0984  0.2884 -0.1463
 1335ERGO    C219448   7.332  15.664   7.205  0.0458 -0.0082  0.0598
 1336ERGO   ROH19449  13.853  18.200   5.404 -0.2141  0.1144 -0.1589
 1336ERGO    R119450  13.733  18.391   5.574 -0.0814  0.0420  0.0200
 1336ERGO    R219451  13.753  18.379   5.849  0.2015 -0.0332  0.0004
 1336ERGO    R319452  13.846  18.633   5.821  0.1232 -0.0071 -0.0241
 1336ERGO    R419453  13.842  18.586   6.111  0.1038  0.0350 -0.0198
 1336ERGO    R519454  13.748  18.752   6.005  0.0637 -0.0111 -0.0541
 1336ERGO    C119455  13.981  18.945   6.237 -0.0268  0.0993 -0.0545
 1336ERGO    C219456  14.233  19.068   6.634 -0.2629 -0.2474 -0.1853
 1337ERGO   ROH19457  17.242  12.118   5.460 -0.1790 -0.0279 -0.1011
 1337ERGO    R119458  17.157  12.220   5.709 -0.0142  0.1046 -0.0999
 1337ERGO    R219459  17.100  12.058   5.926 -0.2068  0.1974 -0.0935
 1337ERGO    R319460  17.280  12.218   6.052  0.0188 -0.0320 -0.1082
 1337ERGO    R419461  17.125  12.096   6.268 -0.1447  0.1524 -0.0909
 1337ERGO    R519462  17.158  12.309   6.238  0.1333  0.1253 -0.0956
 1337ERGO    C119463  17.308  12.268   6.586  0.1036 -0.0893 -0.1033
 1337ERGO    C219464  17.290  12.336   6.899 -0.1326 -0.0572  0.2817
 1338ERGO   ROH19465  13.175   4.924   5.341 -0.0474 -0.1323 -0.0909
 1338ERGO    R119466  13.299   4.922   5.596 -0.0072  0.0000 -0.1073
 1338ERGO    R219467  13.292   5.140   5.767 -0.2318 -0.0076 -0.0957
 1338ERGO    R319468  13.192   4.958   5.942 -0.0032 -0.1328 -0.0928
 1338ERGO    R419469  13.349   5.142   6.107 -0.1844  0.0301 -0.1050
 1338ERGO    R519470  13.368   4.925   6.101  0.0565  0.0519 -0.1218
 1338ERGO    C119471  13.288   4.973   6.471  0.0576 -0.0656 -0.1076
 1338ERGO    C219472  13.020   5.009   6.746 -0.1362  0.2372  0.1261
 1339ERGO   ROH19473   8.397  14.929   5.912 -0.3472  0.0616  0.1404
 1339ERGO    R119474   8.408  15.067   6.159  0.0111  0.1890  0.0571
 1339ERGO    R219475   8.343  14.948   6.399 -0.0777  0.4389  0.1542
 1339ERGO    R319476   8.591  15.033   6.472  0.1114  0.0614 -0.0121
 1339ERGO    R419477   8.479  14.914   6.716 -0.0442  0.4862  0.1457
 1339ERGO    R519478   8.562  15.115   6.696  0.3211  0.3297 -0.0727
 1339ERGO    C119479   8.790  14.975   6.968  0.1527  0.1593 -0.0153
 1339ERGO    C219480   8.925  14.944   7.299 -0.0663  0.1348  0.0387
 1340ERGO   ROH19481  15.837   3.171   5.521 -0.0075  0.1821  0.0341
 1340ERGO    R119482  15.926   3.223   5.785 -0.0314  0.0329  0.0716
 1340ERGO    R219483  15.782   3.147   6.008 -0.0835 -0.0323  0.0130
 1340ERGO    R319484  16.015   3.025   6.078 -0.1273 -0.1292 -0.0064
 1340ERGO    R419485  15.866   3.051   6.329 -0.1109 -0.0873  0.0043
 1340ERGO    R519486  16.069   3.120   6.291 -0.0827 -0.1632 -0.0002
 1340ERGO    C119487  16.133   2.881   6.582 -0.1680 -0.2102 -0.0189
 1340ERGO    C219488  16.178   2.914   7.023 -0.0239 -0.0235 -0.0867
 1341ERGO   ROH19489   6.347  10.782   5.614  0.0094  0.0411 -0.2247
 1341ERGO    R119490   6.466  10.910   5.836 -0.0191 -0.0809 -0.1370
 1341ERGO    R219491   6.414  11.174   5.901  0.2520 -0.0029 -0.2166
 1341ERGO    R319492   6.351  11.068   6.143 -0.0921  0.1001 -0.2549
 1341ERGO    R419493   6.472  11.328   6.205  0.3526 -0.1123 -0.1803
 1341ERGO    R519494   6.532  11.135   6.286 -0.0486 -0.2321 -0.1446
 1341ERGO    C119495   6.448  11.318   6.609  0.0881 -0.0792 -0.1951
 1341ERGO    C219496   6.540  11.530   6.824  0.0502  0.1290 -0.5018
 1342ERGO   ROH19497   9.994   9.917   5.868  0.1507  0.0243  0.0387
 1342ERGO    R119498   9.862   9.887   6.117  0.1372  0.0186  0.0311
 1342ERGO    R219499   9.990   9.795   6.343  0.1469  0.0970  0.0588
 1342ERGO    R319500   9.893  10.025   6.452  0.0596  0.0821  0.0121
 1342ERGO    R419501   9.994   9.872   6.680  0.2153  0.2142  0.0317
 1342ERGO    R519502   9.794   9.955   6.659  0.1637  0.0999  0.0675
 1342ERGO    C119503   9.906  10.131   6.979  0.1732  0.2686 -0.0279
 1342ERGO    C219504   9.913  10.211   7.456  0.0065  0.1937  0.3325
 1343ERGO   ROH19505  15.768  12.468   5.973 -0.1902  0.0275  0.0628
 1343ERGO    R119506  15.744  12.748   6.007  0.0377  0.0410  0.1242
 1343ERGO    R219507  15.841  12.880   6.229  0.1838 -0.0826  0.1303
 1343ERGO    R319508  15.970  13.031   6.043  0.2683 -0.1416  0.1391
 1343ERGO    R419509  15.936  13.210   6.273  0.2432 -0.0954  0.1056
 1343ERGO    R519510  15.875  13.249   6.067  0.3067 -0.1153  0.0793
 1343ERGO    C119511  16.112  13.543   6.123  0.3571 -0.1582  0.0995
 1343ERGO    C219512  16.317  13.705   5.881 -0.0275 -0.1948 -0.0803
 1344ERGO   ROH19513   0.771   5.579   5.879  0.1610 -0.0906 -0.0837
 1344ERGO    R119514   0.898   5.520   6.125  0.1339 -0.0467 -0.0593
 1344ERGO    R219515   1.009   5.715   6.286  0.0435 -0.0101 -0.0433
 1344ERGO    R319516   0.848   5.605   6.475  0.0436 -0.0559 -0.0693
 1344ERGO    R419517   1.074   5.718   6.625 -0.0263  0.0387 -0.0301
 1344ERGO    R519518   1.000   5.513   6.636  0.0459  0.0108 -0.0312
 1344ERGO    C119519   0.960   5.617   7.001 -0.0669  0.0240 -0.0467
 1344ERGO    C219520   1.163   5.715   7.240  0.0328 -0.0485  0.0847
 1345ERGO   ROH19521   3.570   9.930   5.848  0.1250  0.3298 -0.0910
 1345ERGO    R119522   3.452  10.094   6.046  0.1174  0.2849 -0.0582
 1345ERGO    R219523   3.356   9.993   6.285 -0.0762  0.2003 -0.1692
 1345ERGO    R319524   3.521  10.181   6.393 -0.0179  0.0362  0.0334
 1345ERGO    R419525   3.333  10.113   6.608 -0.2585  0.1137 -0.1487
 1345ERGO    R519526   3.377  10.312   6.532 -0.0339  0.1051 -0.0482
 1345ERGO    C119527   3.475  10.358   6.898 -0.3100 -0.0907  0.0534
 1345ERGO    C219528   3.599  10.308   7.337 -0.2409 -0.0076  0.0013
 1346ERGO   ROH19529   5.286   7.312   6.049 -0.2747 -0.0723  0.0933
 1346ERGO    R119530   5.238   7.300   6.328 -0.1277 -0.0209  0.1216
 1346ERGO    R219531   5.357   7.112   6.491  0.0449  0.0791  0.1128
 1346ERGO    R319532   5.436   7.331   6.631  0.0126  0.1542  0.0144
 1346ERGO    R419533   5.464   7.109   6.820  0.1671  0.2218  0.0753
 1346ERGO    R519534   5.354   7.293   6.853  0.1076  0.1907  0.0573
 1346ERGO    C119535   5.601   7.313   7.143  0.2078  0.3753 -0.0388
 1346ERGO    C219536   5.538   7.400   7.495  0.0268 -0.1371  0.1789
 1347ERGO   ROH19537  15.979  11.556   5.952  0.0843 -0.0957  0.0238
 1347ERGO    R119538  15.885  11.452   6.198  0.1203 -0.1609  0.0100
 1347ERGO    R219539  16.051  11.410   6.415  0.1259 -0.0924  0.0156
 1347ERGO    R319540  15.869  11.566   6.544  0.0393 -0.1954  0.0191
 1347ERGO    R419541  15.946  11.363   6.741  0.3578 -0.0106  0.1043
 1347ERGO    R519542  15.744  11.412   6.678  0.2667 -0.2503  0.1818
 1347ERGO    C119543  15.714  11.482   7.051  0.4116 -0.0598  0.1593
 1347ERGO    C219544  15.691  11.650   7.307  0.1646  0.0908  0.1695
 1348ERGO   ROH19545  17.255  13.247   5.550 -0.2007  0.1299  0.0211
 1348ERGO    R119546  17.234  13.294   5.828 -0.3231  0.2020 -0.0002
 1348ERGO    R219547  16.998  13.262   5.967 -0.2563 -0.3426  0.0016
 1348ERGO    R319548  17.148  13.098   6.123  0.1668  0.0999  0.0862
 1348ERGO    R419549  16.969  13.235   6.310 -0.4942 -0.5263 -0.0291
 1348ERGO    R519550  17.187  13.225   6.323 -0.4381  0.1965  0.1654
 1348ERGO    C119551  17.095  13.065   6.657 -0.2357 -0.2179  0.0325
 1348ERGO    C219552  17.194  12.968   7.021  0.2354 -0.4721 -0.1003
 1349W        W19553  14.431   5.692   1.564 -0.1277 -0.1435  0.1542
 1350W        W19554  14.272   9.963  10.847 -0.1252 -0.3021 -0.0458
 1351W        W19555  14.770   1.721  14.869 -0.0125 -0.0511 -0.2260
 1352W        W19556   9.432  13.295  14.844 -0.0856  0.0464  0.0609
 1353W        W19557   4.370   5.052  11.038 -0.2406  0.1706 -0.2162
 1354W        W19558   9.059   5.901   3.520 -0.1206  0.0493 -0.0849
 1355W        W19559   9.469   6.976   0.341  0.2116  0.1944  0.0599
 1356W        W19560  15.967   5.780   3.535  0.2820 -0.2455 -0.3378
 1357W        W19561   1.851   7.421   5.375 -0.0722  0.1037 -0.0125
 1358W        W19562   2.866  16.579   3.302  0.1359  0.0473  0.3250
 1359W        W19563  10.836  14.314  10.535 -0.0358 -0.1560 -0.0364
 1360W        W19564   4.579   3.590  13.462  0.1984 -0.0575 -0.0899
 1361W        W19565  12.504   4.750  14.155  0.0251  0.0684 -0.2399
 1362W        W19566  14.230   9.260   1.275  0.1772 -0.3426 -0.1780
 1363W        W19567   5.863  11.222  12.671  0.0744 -0.0975  0.0391
 1364W        W19568   6.474  13.533  11.469  0.1395 -0.1000 -0.0000
 1365W        W19569  16.450   3.957  13.566  0.2166  0.1142  0.2475
 1366W        W19570   0.127   6.366  11.838 -0.0594 -0.1147  0.1686
 1367W        W19571   3.483   3.972  10.723 -0.1147 -0.0072  0.3130
 1368W        W19572  18.009  17.658   4.055  0.1118 -0.0007 -0.2337
 1369W        W19573  12.290   0.840  13.575 -0.2612 -0.0409 -0.2070
 1370W        W19574   8.916  16.591   3.256  0.0305 -0.1035 -0.1124
 1371W        W19575   4.270  14.517   1.955  0.2039  0.0091 -0.0639
 1372W        W19576  15.266   8.252  10.976 -0.0625 -0.1686  0.0303
 1373W        W19577  13.714  10.811  11.699  0.1212  0.3554  0.1441
 1374W        W19578  18.299  18.046  10.222  0.4717  0.1060  0.0098
 1375W        W19579  11.422  15.911   1.647  0.0668  0.0793  0.4447
 1376W        W19580   3.262   8.315   3.257  0.0491 -0.2050 -0.3253
 1377W        W19581  13.318  13.288  10.752  0.0251  0.1783  0.1101
 1378W        W19582   1.963  10.337   4.882  0.1094  0.2474 -0.0535
 1379W        W19583   2.704   3.758   1.418 -0.0205  0.1454  0.0772
 1380W        W19584   4.626   3.066  14.842  0.1840 -0.1850 -0.0707
 1381W        W19585   0.467   6.263  11.402 -0.0769  0.1999  0.2798
 1382W        W19586  10.741  16.010   3.488 -0.5698  0.1860 -0.0800
 1383W        W19587  18.209  16.180  11.744  0.3152 -0.1400 -0.2098
 1384W        W19588  16.860  14.648  12.813 -0.0967  0.0153 -0.1044
 1385W        W19589  13.419  16.457  12.057 -0.2568  0.0975 -0.0796
 1386W        W19590   4.736   0.588   2.874 -0.0765 -0.0196  0.1596
 1387W        W19591   1.994  12.440   4.333  0.0551  0.0568  0.2619
 1388W        W19592   8.267  10.445  13.182  0.1727 -0.1179 -0.1571
 1389W        W19593  15.677   2.971  14.744 -0.0617  0.1206 -0.1362
 1390W        W19594   2.846   8.450  12.850  0.0597 -0.1146  0.2145
 1391W        W19595  12.845   8.439  13.901 -0.0620 -0.1664 -0.1617
 1392W        W19596   4.682   6.695  11.994 -0.0112 -0.3471  0.0595
 1393W        W19597  15.810   6.251   0.792 -0.1594 -0.2941 -0.0101
 1394W        W19598   3.767  14.533   0.383 -0.0254  0.0897  0.2008
 1395W        W19599  17.392   2.062   4.781  0.0171 -0.1515 -0.2804
 1396W        W19600   2.967  11.368   2.316 -0.1199  0.2141  0.2371
 1397W        W19601   9.914   2.299  13.373 -0.1866 -0.2265  0.1887
 1398W        W19602  14.731   4.912  13.967  0.2870 -0.0220 -0.2526
 1399W        W19603  12.359  18.788  10.851  0.1726  0.0059 -0.1727
 1400W        W19604   6.690  14.684   3.105 -0.1205 -0.0459  0.2915
 1401W        W19605  18.474   1.971   1.608 -0.0846 -0.1160 -0.1224
 1402W        W19606   9.006  13.352   1.934 -0.2373  0.2617  0.0908
 1403W        W19607   5.307   5.147   2.680 -0.1884  0.0126 -0.1052
 1404W        W19608  10.750   8.461   1.442 -0.0247  0.4261  0.1713
 1405W        W19609  13.032   0.278  11.231  0.0474 -0.3716  0.5068
 1406W        W19610  17.561   3.039  11.301 -0.2356 -0.2552 -0.1863
 1407W        W19611   0.273  17.016   0.835 -0.1943 -0.1755  0.0044
 1408W        W19612   3.062   2.273  11.423 -0.5106 -0.0660  0.1491
 1409W        W19613   9.769  15.874  10.350 -0.0300 -0.2584  0.0385
 1410W        W19614  10.348  16.178   1.692 -0.2598  0.1154  0.0285
 1411W        W19615   0.876  17.791   0.815 -0.0363 -0.0906 -0.0106
 1412W        W19616   8.348   7.806   2.964 -0.2197 -0.2200  0.2042
 1413W        W19617  11.399  18.483   3.547 -0.4027 -0.2518  0.1062
 1414W        W19618  14.619   3.337   3.365  0.4070  0.1669 -0.0495
 1415W        W19619  11.307   3.561  14.426  0.1552 -0.0443 -0.1967
 1416W        W19620  10.414   2.089  14.377 -0.1923 -0.1621 -0.3120
 1417W        W19621   8.389   5.559   3.993  0.0279 -0.4463  0.2429
 1418W        W19622   4.623   8.418  14.894 -0.1209 -0.2143  0.2323
 1419W        W19623   0.559   9.299   0.627 -0.3238 -0.1125  0.1169
 1420W        W19624  16.818   5.699   2.101 -0.0853 -0.0179 -0.0205
 1421W        W19625  16.022   4.904   0.986 -0.0783 -0.1901  0.2069
 1422W        W19626  17.244   4.440  11.198  0.2822 -0.2931  0.0246
 1423W        W19627   3.984   3.771  14.184  0.0817  0.0088  0.0068
 1424W        W19628   9.782   0.281  13.281  0.0034  0.0242  0.2623
 1425W        W19629  16.711  14.062   3.590  0.3508  0.0290  0.0821
 1426W        W19630  18.748  10.979   1.602 -0.0745  0.0859  0.1019
 1427W        W19631  16.724   0.983  11.922  0.0512  0.0299  0.3594
 1428W        W19632   9.468   5.450  13.336  0.0231 -0.1962  0.3248
 1429W        W19633  17.024  18.356  14.425 -0.1070  0.0029  0.0707
 1430W        W19634  14.271  11.952  11.058 -0.1974  0.1025  0.0474
 1431W        W19635   0.796  14.306  11.227 -0.1454  0.1122  0.2414
 1432W        W19636  14.185  10.967  10.864  0.1043 -0.0212  0.1080
 1433W        W19637  13.160   2.055   2.577 -0.0579  0.2581 -0.0040
 1434W        W19638   3.076   7.297  11.553 -0.5124 -0.2433 -0.0582
 1435W        W19639  14.294   0.507   1.867  0.2759  0.2225  0.0422
 1436W        W19640  14.646   7.349   1.036 -0.0087 -0.1256 -0.0904
 1437W        W19641   1.720   6.531   0.960 -0.2164  0.0856 -0.3706
 1438W        W19642   9.846   4.983  10.975  0.1218  0.3061  0.0908
 1439W        W19643   3.824   3.051  11.228 -0.0416  0.2010 -0.0101
 1440W        W19644  11.598  16.966  10.521  0.1040  0.1934  0.0128
 1441W        W19645   5.719   3.586  14.955 -0.1888 -0.2526  0.0084
 1442W        W19646   5.938  18.142   2.623 -0.2348 -0.1107 -0.4209
 1443W        W19647   5.089   0.291  13.631  0.1185 -0.2851  0.0595
 1444W        W19648  14.573  15.077  11.225 -0.0202  0.1553 -0.1679
 1445W        W19649  18.572   3.691  13.490 -0.1934 -0.3271  0.2029
 1446W        W19650  18.265   7.029  13.132 -0.1881  0.1386 -0.0571
 1447W        W19651   7.448  10.092   1.909 -0.0826 -0.1571 -0.0973
 1448W        W19652  12.061  10.214   1.203  0.1478  0.0140 -0.0741
 1449W        W19653   6.994  10.684   2.379  0.3942  0.0813 -0.3966
 1450W        W19654   7.425   6.547  11.507 -0.1145  0.0722 -0.3043
 1451W        W19655   7.540  13.127  13.924 -0.2102  0.2350  0.0507
 1452W        W19656   7.876  10.410   4.522 -0.0133  0.0556 -0.0879
 1453W        W19657  13.253  10.399   0.676 -0.4814  0.0731  0.0193
 1454W        W19658   2.378   3.212   3.855 -0.0970  0.2654  0.2512
 1455W        W19659   0.669  10.007   3.155  0.3146 -0.2262 -0.1345
 1456W        W19660  17.624  13.587   2.058 -0.1732  0.0924  0.2391
 1457W        W19661  15.826   8.210   4.224 -0.0520  0.2388  0.2012
 1458W        W19662   8.878   7.125  12.155 -0.0652  0.1420  0.0594
 1459W        W19663  14.482  13.721   1.427  0.1276  0.0082  0.1205
 1460W        W19664  16.596   2.497   2.593  0.0140 -0.0132 -0.0542
 1461W        W19665  13.333  16.220  10.671 -0.1753  0.1882  0.2248
 1462W        W19666  18.126   9.055   3.444 -0.0179 -0.2127  0.0630
 1463W        W19667   5.816   3.707  12.104 -0.1606  0.0107  0.1680
 1464W        W19668  10.259   6.323  11.367  0.0967 -0.0546 -0.1764
 1465W        W19669  13.577   1.175  11.853 -0.0574  0.2631  0.0185
 1466W        W19670   6.703   5.467   3.411  0.0543  0.3709  0.0365
 1467W        W19671   1.282   6.526   2.424  0.1617  0.1283  0.0590
 1468W        W19672  17.690   9.947   3.637 -0.0458 -0.1133  0.4087
 1469W        W19673  17.292   2.175   4.280  0.0481 -0.2046 -0.1491
 1470W        W19674   1.918   8.771   2.660 -0.2806 -0.3918 -0.3352
 1471W        W19675   2.535  15.835  10.754 -0.1801 -0.1066 -0.2464
 1472W        W19676   7.604  12.219  10.156 -0.0109 -0.1134 -0.1015
 1473W        W19677  13.053   3.748  14.256  0.3230 -0.0601  0.3283
 1474W        W19678   8.748   2.282  11.718  0.1877  0.0456 -0.0608
 1475W        W19679  16.786  13.860   1.862  0.3776 -0.2411  0.1904
 1476W        W19680   9.968  15.848   0.565  0.0305  0.0402 -0.1069
 1477W        W19681   8.249  16.634  11.729  0.1181 -0.0111  0.0920
 1478W        W19682  18.732   2.528  13.497 -0.0722  0.2488  0.1618
 1479W        W19683  15.091   6.290  14.055 -0.1811  0.0514  0.1396
 1480W        W19684  13.279  12.649  11.510 -0.0080 -0.2848  0.0990
 1481W        W19685   7.733  15.441   0.804 -0.1313  0.0893 -0.0584
 1482W        W19686   3.756   0.080  12.678  0.2301  0.1345  0.1850
 1483W        W19687  11.291  13.248   0.800  0.2169  0.3324 -0.3005
 1484W        W19688   9.751   8.654  12.031 -0.1651 -0.3571  0.1264
 1485W        W19689  14.481   1.379   1.564 -0.0943 -0.1770 -0.1943
 1486W        W19690   2.133  10.614   5.373  0.1655 -0.1873 -0.0260
 1487W        W19691   7.744   6.876   2.012 -0.1108 -0.0349  0.1782
 1488W        W19692   1.076  17.633  12.244  0.3203  0.2738  0.1411
 1489W        W19693  16.435  13.925   2.562 -0.0497 -0.0206  0.3593
 1490W        W19694  10.046   2.667  11.875  0.0829  0.1250 -0.0545
 1491W        W19695  11.065   2.739   1.483 -0.4989 -0.1630  0.0761
 1492W        W19696  14.208   2.275   3.593 -0.0948 -0.0515  0.1875
 1493W        W19697  16.519   9.777   9.944  0.4745 -0.1371  0.0883
 1494W        W19698  18.227   1.622   1.867 -0.2661  0.0495 -0.1252
 1495W        W19699   8.663  18.797  13.928 -0.0824 -0.1749 -0.1835
 1496W        W19700   6.774  14.192  14.063 -0.3506 -0.1353  0.1363
 1497W        W19701  18.356  14.117   1.139 -0.0056  0.0339  0.0111
 1498W        W19702  15.407  10.969   3.619  0.1092 -0.0931  0.1505
 1499W        W19703  11.684  16.715  14.109 -0.2172  0.0671 -0.1061
 1500W        W19704  15.095  15.824   2.070  0.1764  0.3344  0.0230
 1501W        W19705   0.160  11.732   2.913 -0.1442 -0.1206 -0.2077
 1502W        W19706  14.002   0.749  11.905  0.1206  0.1071 -0.2818
 1503W        W19707  18.015   8.668   2.542 -0.0163  0.1695 -0.0992
 1504W        W19708  18.549   6.740   3.501 -0.0778 -0.3082 -0.2012
 1505W        W19709  13.267  18.655  10.698  0.1162  0.0272 -0.1735
 1506W        W19710  16.643  15.251   3.358 -0.1406  0.0320 -0.1578
 1507W        W19711   1.762   6.326  14.106 -0.0265 -0.1288  0.1808
 1508W        W19712  17.837   7.600   4.372  0.3743 -0.2914 -0.2096
 1509W        W19713  16.217  12.662  11.571  0.1001  0.2416 -0.0797
 1510W        W19714  11.453   2.049  10.789  0.2090  0.0702  0.3404
 1511W        W19715  12.583   3.548   4.231 -0.0194  0.0515  0.1003
 1512W        W19716  18.132   6.604   0.401 -0.0596  0.2378  0.1232
 1513W        W19717   5.085  16.826   2.781  0.0593  0.1246  0.1175
 1514W        W19718  12.365  17.169   1.087 -0.0011 -0.0400  0.1621
 1515W        W19719   1.645   4.550   1.754  0.0755 -0.1927  0.1113
 1516W        W19720   0.503   6.784   2.433 -0.2495 -0.0468 -0.1389
 1517W        W19721  15.583  14.064   3.280 -0.1359 -0.1970  0.1182
 1518W        W19722   5.309   7.936   9.737  0.3263 -0.0168 -0.0933
 1519W        W19723   3.113   7.873  13.730 -0.1971  0.3466 -0.0268
 1520W        W19724   8.967   3.462   2.278  0.1347  0.2280  0.0813
 1521W        W19725  14.257  12.679   4.435  0.0825 -0.0906 -0.1640
 1522W        W19726  12.643  11.975  11.767  0.1456 -0.0908 -0.1367
 1523W        W19727   9.613   3.042   2.654  0.0157 -0.1125 -0.0211
 1524W        W19728   1.907   3.085   4.046 -0.1558  0.5026  0.1196
 1525W        W19729   1.513   1.620  11.351 -0.1054 -0.1482  0.1419
 1526W        W19730  14.513   2.599   0.708  0.1095 -0.0321 -0.0882
 1527W        W19731  18.613   2.377  14.905  0.0321 -0.1881 -0.0465
 1528W        W19732  13.427  17.334  10.548  0.0401 -0.1339 -0.2027
 1529W        W19733  12.749   8.487  11.592 -0.2590  0.1548 -0.0656
 1530W        W19734  18.607   9.702  12.416  0.0224 -0.0038  0.1927
 1531W        W19735  11.579  17.082  13.785 -0.0691  0.2721  0.1084
 1532W        W19736   0.427   6.521  12.812  0.0529 -0.2691 -0.1613
 1533W        W19737   7.752   9.913   0.347 -0.0319  0.1323 -0.0087
 1534W        W19738   4.945  10.600  14.973  0.2052 -0.0541 -0.1038
 1535W        W19739   6.121   7.119   2.044  0.0136  0.2277  0.2430
 1536W        W19740   4.400  13.632  11.022  0.2093 -0.1778  0.1196
 1537W        W19741   6.994  17.937   4.723  0.1069 -0.2436  0.3116
 1538W        W19742  12.139   8.696   3.650  0.1229 -0.0832 -0.2296
 1539W        W19743  11.711   8.026  11.813  0.4231 -0.1253  0.1416
 1540W        W19744  17.611  11.062   2.560  0.4547 -0.1993  0.0146
 1541W        W19745  10.587  10.401   0.284  0.2546  0.2440 -0.0407
 1542W        W19746  15.163  17.234   3.328 -0.1280 -0.0610  0.1096
 1543W        W19747  10.188  10.225   2.207  0.2299 -0.2877 -0.0370
 1544W        W19748  16.074   6.232   3.739  0.2225  0.1226  0.4193
 1545W        W19749   7.162  13.312  12.723  0.0865  0.0374 -0.2592
 1546W        W19750   3.808   4.461  12.002 -0.3252  0.0485  0.1791
 1547W        W19751   3.671  17.276   5.469 -0.2607  0.0601 -0.4477
 1548W        W19752  10.373   3.670   5.375  0.2482 -0.2210 -0.1691
 1549W        W19753  14.909   2.495  11.169 -0.1885 -0.1111 -0.3052
 1550W        W19754   6.121   6.410  14.280  0.0045  0.1708 -0.2451
 1551W        W19755   1.023  10.181  14.256  0.1063 -0.1384  0.1716
 1552W        W19756  15.724   0.672  10.588  0.1298  0.1116  0.1601
 1553W        W19757  14.071   0.918   0.044  0.1433 -0.0439 -0.0443
 1554W        W19758   2.526  16.636  10.921  0.0302  0.2650  0.0785
 1555W        W19759  10.911  10.980   2.411  0.0223  0.1856  0.1503
 1556W        W19760   2.360   0.149   0.772 -0.1715  0.3457 -0.1097
 1557W        W19761  10.008  17.178  11.442  0.0476 -0.1780  0.0026
 1558W        W19762   5.540  16.316  14.003 -0.1766  0.0122 -0.0257
 1559W        W19763  14.894  11.690  14.116  0.0784 -0.2583 -0.1631
 1560W        W19764   7.686  10.397   0.233 -0.0790  0.4067 -0.0336
 1561W        W19765   9.725   6.777  12.137 -0.1109  0.2474 -0.1373
 1562W        W19766   8.867   1.866   3.856 -0.0629 -0.3205  0.1058
 1563W        W19767   5.688   3.130  10.960 -0.0808  0.2182  0.2823
 1564W        W19768  17.172  12.041   4.391 -0.0461 -0.2036 -0.2941
 1565W        W19769   0.133   0.307   0.895  0.1080 -0.0972  0.0591
 1566W        W19770   9.253   6.717  11.988  0.0634  0.2164  0.2136
 1567W        W19771  15.679   8.185   2.696 -0.2549 -0.2999 -0.2686
 1568W        W19772   0.709  11.381   2.081  0.0766 -0.2046  0.0033
 1569W        W19773   0.345   7.780  12.131  0.1921 -0.0444  0.0271
 1570W        W19774   6.295   0.037  15.032  0.1579  0.1656  0.1706
 1571W        W19775  15.620  12.648  12.144  0.0180  0.2285 -0.0416
 1572W        W19776   3.883   1.979   4.656 -0.0601  0.0212  0.1147
 1573W        W19777   0.506  13.279   0.079 -0.0701 -0.1912 -0.0487
 1574W        W19778  12.173   4.224   0.208  0.0311 -0.0499 -0.2239
 1575W        W19779   1.808  11.975  13.273 -0.3007 -0.0512  0.1507
 1576W        W19780  16.851  12.197   0.170 -0.5687  0.2339  0.0254
 1577W        W19781   3.962   9.841  14.470  0.1953  0.1060  0.2395
 1578W        W19782   2.385  16.278   0.956 -0.1586 -0.3984  0.0662
 1579W        W19783   0.943   7.387   2.247  0.3077  0.1174 -0.1984
 1580W        W19784   6.057  15.207   4.435  0.1201  0.2009  0.4018
 1581W        W19785  12.534   6.973  12.925  0.1386 -0.0597  0.1157
 1582W        W19786   2.429   3.512  14.919 -0.3868 -0.0674 -0.1281
 1583W        W19787   6.888   5.657   0.377  0.2369 -0.1025 -0.0126
 1584W        W19788  18.479   8.457  10.932  0.1591  0.0222 -0.2063
 1585W        W19789   7.339   6.287  12.377 -0.1623 -0.0010  0.0302
 1586W        W19790  10.205   3.787   9.241  0.1581  0.0263 -0.0150
 1587W        W19791   6.358   0.167  10.945  0.1669 -0.1429 -0.2190
 1588W        W19792  10.010   2.645   5.694  0.1504  0.0581  0.1200
 1589W        W19793   6.481   6.343  11.818 -0.1534  0.2114 -0.1532
 1590W        W19794   1.301   9.425  15.004 -0.1781  0.0959 -0.0169
 1591W        W19795  18.655   8.440   4.128  0.1502 -0.1678  0.0002
 1592W        W19796   7.412   9.998  12.959  0.0215  0.0804  0.2873
 1593W        W19797  15.015   7.663   1.367 -0.1286  0.0275  0.1984
 1594W        W19798   8.256   9.998   0.500 -0.0091 -0.2464 -0.3514
 1595W        W19799  10.137  14.203   1.942  0.2073 -0.0262 -0.1645
 1596W        W19800  11.406  14.379  11.839  0.0770 -0.0436  0.0540
 1597W        W19801   3.032  16.396   3.759 -0.0925  0.1235 -0.0311
 1598W        W19802  15.284   9.604   4.946  0.1840  0.0506 -0.0789
 1599W        W19803   7.327  10.246   2.403 -0.1321 -0.1852  0.2769
 1600W        W19804  15.767  14.267  10.061 -0.5369 -0.0308  0.0512
 1601W        W19805   5.528   6.698  12.999 -0.0294 -0.2071  0.0775
 1602W        W19806  12.219  16.721  13.249  0.0269 -0.1925 -0.1187
 1603W        W19807  15.451  12.458  10.376  0.0856  0.2607  0.2138
 1604W        W19808   6.257   3.716  11.178  0.0937  0.3235  0.2168
 1605W        W19809  18.772  18.293   1.574 -0.0121  0.1394 -0.2195
 1606W        W19810  15.927   2.888   2.965 -0.0581 -0.1270 -0.0104
 1607W        W19811   4.153   0.189   4.671  0.1991 -0.1986  0.1397
 1608W        W19812  13.165   1.603   2.009  0.0117 -0.3097 -0.3294
 1609W        W19813  16.883   3.676  12.765  0.1716  0.1813  0.0478
 1610W        W19814  18.198   1.026  10.835  0.1263  0.0955  0.1092
 1611W        W19815  14.580  10.008  13.250  0.2751 -0.2303  0.1344
 1612W        W19816  14.191  17.754   2.343  0.2460 -0.0140  0.0774
 1613W        W19817   9.771  12.695   3.754 -0.0579  0.2148 -0.0506
 1614W        W19818   1.342  13.718  12.567 -0.2726 -0.1545 -0.0636
 1615W        W19819  16.170   4.273   3.151 -0.2764 -0.0627  0.1170
 1616W        W19820   0.348  17.720   2.832 -0.0755  0.0736 -0.1909
 1617W        W19821   4.555   0.600   4.723 -0.2497 -0.1734 -0.0020
 1618W        W19822  11.706   6.552  12.040  0.0154  0.0602  0.1893
 1619W        W19823   0.257   2.111   2.057  0.1211 -0.0657  0.0393
 1620W        W19824   6.613  10.691   3.410 -0.2073  0.0069 -0.0185
 1621W        W19825  17.943  13.552  14.604  0.2697 -0.2235 -0.0400
 1622W        W19826   0.646   1.160  12.549  0.0910 -0.1234  0.3131
 1623W        W19827   3.921  16.229   1.697 -0.0937 -0.0159  0.1003
 1624W        W19828  18.148   6.870  14.999  0.2048  0.0777  0.2370
 1625W        W19829  12.011   2.349   0.089 -0.1823 -0.1509  0.0381
 1626W        W19830  16.566   3.347   2.289  0.0268  0.1682  0.2446
 1627W        W19831  11.029  11.148   1.375 -0.1854 -0.1283 -0.1543
 1628W        W19832  13.487  14.804  13.556 -0.2061 -0.0513 -0.0433
 1629W        W19833   5.438   8.085   1.379 -0.2338  0.0774  0.3439
 1630W        W19834  11.165  15.933  11.997 -0.0810  0.4616  0.2212
 1631W        W19835   4.120   9.915   2.871  0.0828 -0.1000  0.0215
 1632W        W19836   6.553   8.224   2.964  0.0548 -0.0440  0.1550
 1633W        W19837   1.241  18.391   2.076 -0.1488 -0.1889 -0.0061
 1634W        W19838   6.540  11.066  14.198 -0.1070 -0.1231  0.0927
 1635W        W19839   6.220  18.810   5.881  0.1278 -0.1123 -0.2000
 1636W        W19840  11.248  11.399  14.712  0.2758  0.0496  0.0996
 1637W        W19841   9.097  12.969   4.191 -0.4661  0.0947  0.1312
 1638W        W19842  17.707  17.103  14.224 -0.2065  0.0713 -0.3661
 1639W        W19843   2.983  10.832   2.278  0.1695 -0.2409  0.0527
 1640W        W19844   7.194   9.188  14.859  0.0058  0.0699 -0.1781
 1641W        W19845  14.700   8.284  12.298 -0.2922  0.0681 -0.1231
 1642W        W19846  16.446  13.441   0.935 -0.0000 -0.1802 -0.0051
 1643W        W19847  16.743  18.611  12.278  0.2793  0.0391  0.2755
 1644W        W19848  13.290  18.507  11.826  0.1001  0.0344 -0.2024
 1645W        W19849  16.993   0.632  14.955  0.3328  0.0602  0.2686
 1646W        W19850   9.143   2.035  13.863 -0.0145  0.1708  0.1342
 1647W        W19851   7.788   8.025   4.615 -0.1120  0.2201  0.3477
 1648W        W19852  14.319  11.633   1.508  0.1419  0.2520  0.0394
 1649W        W19853   1.043  10.960  13.364 -0.1559  0.2212 -0.1227
 1650W        W19854  16.380   5.701   5.240  0.0848  0.2585  0.1670
 1651W        W19855  14.902  10.211  12.896 -0.1010  0.0353 -0.3657
 1652W        W19856   4.885  14.566  13.443 -0.2281  0.1226  0.1082
 1653W        W19857   0.795  18.046  12.792 -0.2106 -0.2346  0.1015
 1654W        W19858  18.840  15.481  14.324 -0.2059 -0.3441 -0.0862
 1655W        W19859  10.960  10.723  13.360  0.0238  0.0284  0.4524
 1656W        W19860   2.476  15.710   4.637  0.0234  0.3586  0.2186
 1657W        W19861   9.284   7.888  12.880 -0.1164  0.2214 -0.1285
 1658W        W19862   0.876   6.297  12.901  0.1664  0.2508  0.2431
 1659W        W19863  15.095   5.979   3.673  0.1100  0.3568 -0.0985
 1660W        W19864   9.348  15.664  14.881  0.1866 -0.3379  0.4055
 1661W        W19865  12.240  10.713  11.127  0.0532  0.0918 -0.0887
 1662W        W19866   6.364  15.373  11.046  0.0533 -0.1038  0.0837
 1663W        W19867  18.311   7.249   1.729  0.0337  0.1853  0.0316
 1664W        W19868  15.198   0.302   0.308 -0.0684 -0.2271 -0.2117
 1665W        W19869   6.087  15.387   2.206  0.0002  0.0274  0.0729
 1666W        W19870  13.283   9.418  14.902 -0.2190  0.0937 -0.3352
 1667W        W19871   0.661  12.541   1.212  0.2132 -0.0138 -0.0344
 1668W        W19872   0.264  10.308   2.069 -0.0859  0.1617  0.0029
 1669W        W19873   4.002  14.172   2.500 -0.0113  0.0940 -0.1672
 1670W        W19874   2.672   4.395  10.835  0.2664  0.2960 -0.2621
 1671W        W19875  18.631   3.122   0.718 -0.0348  0.2082  0.1117
 1672W        W19876   4.894  15.735  12.433 -0.1463  0.3313  0.3491
 1673W        W19877   0.567   5.441   2.449 -0.1327 -0.1608  0.1635
 1674W        W19878   3.838   8.450   2.698  0.1032 -0.1119 -0.0292
 1675W        W19879   3.783   0.601  12.933  0.1749  0.4095 -0.3470
 1676W        W19880   5.146  12.691  14.241 -0.3994  0.3472  0.2783
 1677W        W19881   9.365  16.012   3.439  0.1863  0.1623  0.1002
 1678W        W19882   8.261   9.611   2.410 -0.1508 -0.2352 -0.0022
 1679W        W19883   3.833  11.913  14.593 -0.1293  0.0023  0.0175
 1680W        W19884  13.692  15.842  14.679  0.3444  0.0002 -0.1005
 1681W        W19885   1.033   7.504  11.041 -0.0746 -0.2602  0.0618
 1682W        W19886   9.314   5.433   2.647  0.1504 -0.1226  0.0287
 1683W        W19887   3.960  18.131   2.580  0.1594  0.0059 -0.0152
 1684W        W19888   4.254   4.544  10.797  0.1029 -0.0234 -0.1292
 1685W        W19889  10.702  14.939  11.412  0.2391 -0.0410 -0.4577
 1686W        W19890   2.546   3.813   0.396  0.2144  0.1269  0.4047
 1687W        W19891  10.350   5.334   1.943 -0.0855 -0.1246 -0.0917
 1688W        W19892  10.185  14.591  13.360 -0.1000  0.1504 -0.1616
 1689W        W19893  12.946   2.293  13.824 -0.1163  0.0835 -0.0148
 1690W        W19894   1.803  16.134  12.695 -0.3218  0.1001 -0.3690
 1691W        W19895  18.701   8.244   0.844 -0.1787 -0.1711 -0.1807
 1692W        W19896   8.768  17.368  11.677 -0.2806 -0.2284  0.0297
 1693W        W19897   2.000  18.553   2.960  0.2041  0.3477  0.1783
 1694W        W19898  18.107   8.241   1.022 -0.1558 -0.0333  0.0699
 1695W        W19899   3.615  14.802  12.059 -0.4274 -0.1569  0.1399
 1696W        W19900  13.307   3.151  10.598  0.1179  0.0146 -0.2501
 1697W        W19901   8.917  13.946   2.104  0.2019  0.0916 -0.3253
 1698W        W19902  17.543  11.957  12.118  0.0716  0.1836  0.0507
 1699W        W19903  15.456  11.744   5.854  0.1136  0.0619 -0.1187
 1700W        W19904   4.797   3.230  11.004 -0.2168 -0.2066  0.0251
 1701W        W19905  16.164  15.124   2.318 -0.1049  0.1723  0.0592
 1702W        W19906   4.915  18.076   1.405 -0.1169 -0.0352  0.3541
 1703W        W19907   3.412   4.010   0.887  0.1283  0.1247  0.2483
 1704W        W19908  13.121  15.027   0.125  0.1548 -0.2753 -0.1790
 1705W        W19909   5.804  10.909  13.066  0.1998  0.0710 -0.1754
 1706W        W19910   4.485  16.385  11.503 -0.1170 -0.0382 -0.0533
 1707W        W19911   8.601   3.733   4.190  0.2250  0.0672 -0.0000
 1708W        W19912  11.445  11.957   3.350  0.1739  0.0676 -0.0689
 1709W        W19913   1.461   4.924  13.610  0.0060 -0.0562  0.0689
 1710W        W19914   0.502   0.792  13.408 -0.0442  0.0644 -0.0571
 1711W        W19915   5.067   7.554   3.740  0.2192 -0.1268  0.4688
 1712W        W19916   5.209  14.160  13.221 -0.2256 -0.0351  0.3293
 1713W        W19917  14.417   3.358  11.369 -0.3645  0.0928  0.0384
 1714W        W19918   4.171  16.522  12.495  0.0624  0.0178 -0.3506
 1715W        W19919   1.337  10.545  14.448  0.1713  0.1548 -0.4249
 1716W        W19920  15.764   6.945   9.743 -0.3539 -0.2296 -0.3614
 1717W        W19921   1.427   4.606   3.572  0.1046  0.0821 -0.1039
 1718W        W19922   3.572  11.937   2.221  0.1046 -0.1917  0.2138
 1719W        W19923   5.625   8.530   3.812  0.2221 -0.0641  0.0695
 1720W        W19924  18.426  11.916  14.431  0.3025 -0.2052 -0.2937
 1721W        W19925   9.724   0.535   5.596 -0.1848 -0.1691 -0.1583
 1722W        W19926  12.372   5.483   5.505  0.0772 -0.3128  0.0051
 1723W        W19927   1.424  13.104   3.067 -0.0133  0.3306  0.0723
 1724W        W19928  15.169  16.160  14.710 -0.3297 -0.3674  0.0209
 1725W        W19929   6.508   9.726  11.160 -0.2604 -0.1216 -0.0369
 1726W        W19930   7.235   9.874   0.548 -0.0037 -0.1011  0.1305
 1727W        W19931  16.602  11.347  11.619  0.0702  0.1135 -0.1097
 1728W        W19932   9.358   8.573   3.214  0.0065  0.1331 -0.0225
 1729W        W19933  14.104   8.866   0.916  0.0864  0.2001  0.0842
 1730W        W19934  13.239  15.617   2.636 -0.0806  0.1122 -0.2367
 1731W        W19935  17.538   9.664  11.337 -0.3199  0.2008 -0.0826
 1732W        W19936   5.454  10.982   1.707 -0.2418 -0.2008 -0.1521
 1733W        W19937   9.076   3.710   0.945 -0.0810  0.1680  0.1789
 1734W        W19938   0.998  11.689   4.000  0.3354 -0.2695 -0.0399
 1735W        W19939  12.612   0.385  11.606  0.0614 -0.1715 -0.1459
 1736W        W19940   0.590  17.345  12.395 -0.3730 -0.3411  0.0671
 1737W        W19941  10.877   4.276   3.280  0.0928 -0.0533  0.2699
 1738W        W19942   3.249   2.803  14.621 -0.0407 -0.0557 -0.1510
 1739W        W19943  16.361  17.237  14.436  0.5190 -0.0590  0.0784
 1740W        W19944   7.904   7.269  15.032  0.2209 -0.0217 -0.2171
 1741W        W19945  17.929   6.655   4.325 -0.1184  0.0423  0.1262
 1742W        W19946   8.811  10.974   0.054  0.0057  0.0096 -0.1493
 1743W        W19947   2.136   4.001  12.487 -0.0063 -0.2620 -0.0821
 1744W        W19948   6.623  15.202  12.087 -0.0330 -0.4735 -0.0591
 1745W        W19949  13.957   7.899   4.420 -0.4491  0.3081  0.1912
 1746W        W19950   5.407   8.765   4.270  0.1730 -0.0209  0.0432
 1747W        W19951  10.985   0.449  14.069  0.0107 -0.0565  0.0761
 1748W        W19952   5.967   8.066  12.050  0.1462 -0.2042  0.0751
 1749W        W19953   6.315   8.226   1.656  0.2415  0.0641 -0.0748
 1750W        W19954   2.572   3.245  12.439 -0.1516 -0.1675 -0.0737
 1751W        W19955   3.999  16.518  11.714 -0.0599 -0.2362  0.0906
 1752W        W19956  11.993   3.327  11.700 -0.0597  0.1070 -0.1009
 1753W        W19957   9.303  11.152   4.796  0.4518 -0.0235  0.2040
 1754W        W19958   6.416   3.167   2.719  0.0666 -0.4568  0.4442
 1755W        W19959  14.041  11.046   3.198 -0.0255 -0.0047 -0.0891
 1756W        W19960  14.493   8.089  10.364  0.3177 -0.2834  0.0396
 1757W        W19961   3.583   0.818  12.050  0.0279 -0.1954  0.2131
 1758W        W19962   4.806  11.709  14.596 -0.2570 -0.1977 -0.0504
 1759W        W19963   0.624  18.442   0.531  0.1618 -0.3234 -0.0815
 1760W        W19964   5.602  15.425  14.205 -0.1538 -0.1003 -0.2158
 1761W        W19965   8.137  16.075  13.824  0.1388  0.1932  0.1120
 1762W        W19966   3.181   8.582   0.004  0.0806 -0.2590  0.2832
 1763W        W19967   6.889  17.304   2.375  0.2661  0.0441 -0.1423
 1764W        W19968  13.683   4.902   2.579 -0.0061 -0.0223 -0.0973
 1765W        W19969  10.982  18.549   1.410 -0.0298 -0.1997 -0.1748
 1766W        W19970  13.674  16.823   1.633  0.3627  0.0339  0.1300
 1767W        W19971   7.406  18.463  14.243 -0.2842  0.1080  0.2322
 1768W        W19972   8.951  11.583   4.259 -0.1756  0.1949  0.0617
 1769W        W19973  15.655  13.971   9.332  0.0868 -0.2405 -0.2802
 1770W        W19974  15.746  12.791   3.508 -0.3523  0.0922  0.0606
 1771W        W19975   4.991   0.621  13.229 -0.0176  0.0730  0.0359
 1772W        W19976   5.716   4.719   0.232  0.2871  0.3605 -0.0320
 1773W        W19977   7.208  18.401  14.763  0.0971  0.0673 -0.1556
 1774W        W19978  11.573   5.003  12.117 -0.3328 -0.0215 -0.0673
 1775W        W19979   2.577  15.515  11.463  0.0708  0.2539 -0.1383
 1776W        W19980   7.485  16.908  13.340  0.1495 -0.1268  0.4484
 1777W        W19981   3.589   9.542  10.528  0.0711  0.0077  0.1044
 1778W        W19982  10.338   7.792  14.932  0.2288  0.0496  0.0887
 1779W        W19983  15.978  10.552   0.133 -0.1128  0.3480  0.4017
 1780W        W19984  16.076  11.275   2.063  0.2171 -0.1844 -0.3933
 1781W        W19985   3.922   0.958  13.407 -0.0540  0.0333  0.1890
 1782W        W19986   3.461   3.799   4.697 -0.1882  0.3996  0.1604
 1783W        W19987  16.358  18.011   2.573 -0.1449  0.0909  0.0189
 1784W        W19988   5.328  18.893   3.402 -0.0107 -0.0370 -0.4929
 1785W        W19989   1.329  17.821  15.032 -0.0680 -0.0775  0.2559
 1786W        W19990   6.590   6.890  11.779  0.0259  0.1149 -0.1773
 1787W        W19991  16.547   4.073   1.302  0.4017  0.0186  0.0901
 1788W        W19992  18.366   1.382  11.200  0.3217 -0.0336  0.0042
 1789W        W19993   0.585   0.171  10.823  0.0177 -0.2710  0.0681
 1790W        W19994   2.782   8.644   3.393 -0.0777  0.1001 -0.0434
 1791W        W19995   2.781   0.458  13.945 -0.1469  0.0558 -0.0672
 1792W        W19996   3.493  13.378   5.205 -0.2048  0.2122 -0.0880
 1793W        W19997   2.035   8.584   3.143 -0.0968  0.0912 -0.0235
 1794W        W19998  12.734  11.967  12.243 -0.1614  0.0239  0.0069
 1795W        W19999  14.392   9.141   4.325 -0.2476  0.1719  0.0370
 1796W        W20000   4.695  16.110   0.156  0.1098  0.2017 -0.0859
 1797W        W20001  14.795  16.244   3.904  0.4354 -0.0598  0.2451
 1798W        W20002  12.962  16.211  10.937  0.1987  0.0362 -0.1616
 1799W        W20003  12.931   8.284   1.696  0.1276  0.2662  0.1497
 1800W        W20004   4.185  12.507   1.236  0.2252 -0.3082  0.2758
 1801W        W20005   5.979   5.482   1.465  0.2482  0.1405  0.0638
 1802W        W20006   2.348  17.511   2.858 -0.2586 -0.2432  0.1706
 1803W        W20007   8.676  15.275  14.173  0.1894 -0.1845 -0.1493
 1804W        W20008   2.574  17.896  12.484  0.0737 -0.1653  0.2376
 1805W        W20009  15.605   5.457   4.224 -0.2348  0.3325 -0.1250
 1806W        W20010   9.647   8.459   1.049 -0.2391 -0.3267 -0.3104
 1807W        W20011  16.871  17.388  10.934  0.1800  0.0375  0.4434
 1808W        W20012  13.454  12.381   4.115  0.1062  0.1630 -0.1954
 1809W        W20013   8.612  10.878   2.122  0.0648  0.1750  0.2398
 1810W        W20014   7.372   2.282   2.598  0.0313  0.2896  0.2184
 1811W        W20015  14.091  15.066  11.079  0.0237 -0.1373  0.2767
 1812W        W20016  18.933  18.447   3.511  0.2091 -0.2502 -0.2355
 1813W        W20017  17.592   3.827   9.990 -0.0020  0.2649  0.0196
 1814W        W20018  13.306   4.638  10.789  0.0470  0.2881  0.3027
 1815W        W20019  18.091  10.994   3.833  0.2047 -0.0302 -0.1712
 1816W        W20020  13.976   8.077  13.664 -0.1208 -0.0878 -0.0507
 1817W        W20021  10.403  11.945  13.066  0.0587 -0.0176  0.0888
 1818W        W20022   5.281   7.565   0.111 -0.0165  0.0468  0.2942
 1819W        W20023   4.001   7.358  12.109  0.7410 -0.1028  0.0372
 1820W        W20024  10.323   8.946  12.465 -0.1224  0.0824 -0.2231
 1821W        W20025  18.563   7.272  12.562  0.1307  0.0831 -0.0604
 1822W        W20026   6.288  12.789   1.411 -0.2895  0.2962 -0.3615
 1823W        W20027   3.424   0.584   0.872  0.1785  0.0193 -0.1014
 1824W        W20028  14.002   9.255  11.742 -0.0631 -0.2407 -0.2339
 1825W        W20029  18.333   9.590  14.096 -0.1980  0.0831 -0.1888
 1826W        W20030   7.556  12.071  10.773  0.2307 -0.1990 -0.1207
 1827W        W20031  10.973   5.079  10.305 -0.2893  0.0913  0.0254
 1828W        W20032  12.625  16.815  13.623  0.2521  0.0186  0.3993
 1829W        W20033  16.557  10.844   2.406  0.0997  0.2010 -0.1754
 1830W        W20034   9.876  18.175  10.957  0.2864  0.2772  0.0981
 1831W        W20035   8.233  14.675   4.155  0.3755 -0.3370  0.1612
 1832W        W20036  10.687  10.072   2.239  0.0446  0.1061  0.0816
 1833W        W20037  17.126  15.285  14.054 -0.1278 -0.1751 -0.1201
 1834W        W20038  13.790  15.571  11.922 -0.0799 -0.0145 -0.1306
 1835W        W20039   0.744  15.993  13.000  0.0283 -0.3709  0.1750
 1836W        W20040  16.550   2.079   2.925  0.0177 -0.1511 -0.0080
 1837W        W20041   6.881  13.887  12.008 -0.0640 -0.0473  0.0721
 1838W        W20042  13.876   1.327   2.585  0.4143 -0.0656  0.0338
 1839W        W20043   5.472   2.783   2.867 -0.2817 -0.0491 -0.2220
 1840W        W20044   3.975   9.567  11.880 -0.1928  0.0963 -0.3409
 1841W        W20045   8.171   8.910  12.878  0.0274 -0.3654 -0.0789
 1842W        W20046   5.083   1.204  13.239 -0.1608  0.2647 -0.1740
 1843W        W20047   7.237  18.874  11.280  0.1904 -0.1079  0.0016
 1844W        W20048  11.153   9.495  14.441 -0.1716  0.1804  0.0406
 1845W        W20049   8.637   3.126  12.292 -0.2274  0.1044 -0.1103
 1846W        W20050   0.287  10.862   4.333 -0.0464  0.0700 -0.2617
 1847W        W20051  11.146   0.016   1.197 -0.0481 -0.3544  0.1531
 1848W        W20052   4.338   7.743   0.445  0.0990 -0.0670  0.0289
 1849W        W20053   6.917   1.936  12.282  0.0049  0.2448  0.0373
 1850W        W20054  12.429  18.720  13.545 -0.0957  0.0016  0.0590
 1851W        W20055   4.261  12.941  10.877  0.4469  0.0899 -0.2266
 1852W        W20056  12.660  10.824   4.464  0.0436 -0.0867 -0.0519
 1853W        W20057  14.189   5.205  13.072  0.0885 -0.0970  0.0246
 1854W        W20058   1.597   7.227   1.663  0.1441  0.0908 -0.1941
 1855W        W20059   3.458  11.480   2.348 -0.0153 -0.2583  0.2028
 1856W        W20060  13.805   9.950  12.282 -0.1610  0.0952  0.0509
 1857W        W20061   7.821   0.998   2.583 -0.1293 -0.3333  0.0036
 1858W        W20062  10.397   9.735  13.707 -0.0077 -0.0202  0.1334
 1859W        W20063  16.637  15.008   2.050  0.0439  0.1784  0.0903
 1860W        W20064   8.710  14.684   4.352 -0.0164 -0.2192  0.1273
 1861W        W20065  17.467  15.992   1.027  0.1015 -0.0103 -0.2979
 1862W        W20066  17.431  16.345   0.573  0.2004  0.2848  0.1755
 1863W        W20067   2.874  12.550   1.689  0.4968 -0.0730  0.0672
 1864W        W20068  10.490   8.312   2.429  0.3945  0.1994 -0.1602
 1865W        W20069  11.660   4.943  14.681  0.2557 -0.1445 -0.2447
 1866W        W20070   3.708  13.966   1.067  0.0391  0.1029 -0.0049
 1867W        W20071  12.480  17.055  12.946  0.0799  0.1236 -0.2001
 1868W        W20072   7.022   3.264  12.665  0.3003  0.0465 -0.1242
 1869W        W20073   5.374  13.631   1.241  0.2986 -0.0036  0.0336
 1870W        W20074   6.108   1.265   0.696 -0.1018  0.0330  0.1165
 1871W        W20075  12.006  16.754   2.494  0.1963  0.2706 -0.2415
 1872W        W20076   7.183  17.065  14.284  0.1960  0.0913 -0.1815
 1873W        W20077   3.884   0.567   1.724 -0.2065 -0.0670  0.4727
 1874W        W20078  11.299   3.077   5.328  0.2133  0.1371  0.1761
 1875W        W20079   9.640   7.491   4.883  0.0622 -0.0886  0.1220
 1876W        W20080  14.632   6.515  11.910  0.2115  0.3899  0.1328
 1877W        W20081   5.170   1.824  13.880  0.1004 -0.0340 -0.0320
 1878W        W20082  17.575   4.809  11.216  0.5748  0.0653 -0.2804
 1879W        W20083   4.631  17.512  10.945 -0.1220  0.1386 -0.1834
 1880W        W20084   0.037   0.036  13.722  0.1547  0.1384 -0.0522
 1881W        W20085  13.298   9.767   1.483 -0.3405  0.0351 -0.0322
 1882W        W20086  15.691   5.213  10.691  0.1131 -0.0769 -0.2239
 1883W        W20087   3.954   8.004  10.601  0.0835 -0.2715  0.1609
 1884W        W20088  16.804   5.444   5.109  0.2065  0.1122 -0.3496
 1885W        W20089  13.350  18.952   3.907  0.0638 -0.0714  0.2836
 1886W        W20090  15.704  17.947   1.932  0.0192  0.0177 -0.0018
 1887W        W20091   2.855   4.311  13.592 -0.0647  0.1314  0.2174
 1888W        W20092  18.678   3.869  14.364 -0.2072 -0.1831  0.2844
 1889W        W20093  16.776   8.219   3.185  0.0498 -0.2382  0.0065
 1890W        W20094   5.640   0.264   3.555 -0.1162  0.0114 -0.1963
 1891W        W20095   6.998   3.663  14.378  0.2635  0.1218  0.0755
 1892W        W20096  18.597   0.690  11.687 -0.1269  0.0768 -0.1063
 1893W        W20097  17.350  12.106   0.096 -0.0342 -0.1545  0.1607
 1894W        W20098   0.939   1.945   2.048  0.0805  0.1608  0.0361
 1895W        W20099   0.756   7.055  10.783  0.1114  0.0233  0.1886
 1896W        W20100  12.004  18.417  13.666 -0.2174 -0.0086  0.1927
 1897W        W20101  11.375   2.543  12.803  0.2660  0.2303 -0.0829
 1898W        W20102   0.336   0.880   0.018  0.0722 -0.1623  0.2494
 1899W        W20103   4.004  14.166  11.306  0.2250  0.1347 -0.0871
 1900W        W20104   3.285  15.087   3.390  0.0678  0.0476  0.0350
 1901W        W20105  12.981   4.032   2.282 -0.0760  0.0992  0.1169
 1902W        W20106  10.215  10.285  12.338 -0.3493  0.4287  0.1527
 1903W        W20107  18.537  13.364  14.707 -0.3525 -0.2221 -0.1783
 1904W        W20108   5.626   3.147  14.289  0.1861  0.0869  0.1274
 1905W        W20109  11.601   5.559  12.980  0.1368 -0.2055  0.2596
 1906W        W20110   8.962  15.955  14.977 -0.1239  0.2007  0.1331
 1907W        W20111  16.258   9.298  10.563 -0.0876  0.1409 -0.0785
 1908W        W20112  11.892   5.161  13.400  0.1275 -0.0112  0.0180
 1909W        W20113   3.256  16.837   3.524  0.3436  0.0668 -0.4294
 1910W        W20114   2.005  11.736  12.179 -0.2446  0.1704  0.0254
 1911W        W20115   2.145  15.334  13.095 -0.0848  0.0108 -0.0866
 1912W        W20116   3.335   1.623  12.756  0.0022 -0.1311  0.2024
 1913W        W20117   2.845  10.174   5.207 -0.1878  0.0127  0.2260
 1914W        W20118  17.393  16.282  13.872  0.0260 -0.2365 -0.0823
 1915W        W20119   5.487  16.586  13.191 -0.2785  0.0686 -0.5316
 1916W        W20120  16.201  12.782  10.226  0.2339 -0.0786 -0.1149
 1917W        W20121  15.577  10.196   2.905 -0.1164  0.1259  0.2018
 1918W        W20122   0.302   7.623  13.996  0.2414 -0.2301 -0.1565
 1919W        W20123   2.031   4.525  11.029  0.1326  0.1837  0.0829
 1920W        W20124  10.196  12.814   2.537 -0.0559  0.1556  0.0609
 1921W        W20125   1.546  13.429  14.171 -0.0310 -0.0014  0.0994
 1922W        W20126  16.854  10.688   0.694  0.0530  0.0563  0.0291
 1923W        W20127   2.411   8.315   4.336 -0.1311  0.0599 -0.1610
 1924W        W20128  11.179  12.814   0.605 -0.3085  0.5705 -0.0240
 1925W        W20129   5.542   3.854   2.879 -0.0528  0.0736 -0.1361
 1926W        W20130   7.843  17.480  10.880  0.0281 -0.0367 -0.1546
 1927W        W20131  13.713   2.178   3.511  0.1255  0.0771 -0.0004
 1928W        W20132   7.019  10.365   0.989  0.1625  0.0708  0.3071
 1929W        W20133  17.200  12.736   3.819 -0.2866  0.1639  0.2233
 1930W        W20134  16.794  16.342  11.165 -0.0399  0.0560  0.1698
 1931W        W20135   5.834  10.205   0.358  0.2667  0.1619 -0.2053
 1932W        W20136   8.489  12.734   0.964  0.5087  0.0057 -0.0492
 1933W        W20137   5.196  11.197   3.194  0.1956 -0.1256  0.0095
 1934W        W20138  12.471   9.011   0.103  0.1186 -0.3939 -0.2560
 1935W        W20139  17.580  11.564  15.013 -0.0130  0.0117  0.2960
 1936W        W20140   9.830  13.731   4.307 -0.0912  0.0850  0.3832
 1937W        W20141  11.638   2.402   3.878  0.2605  0.2989  0.0901
 1938W        W20142   6.523   8.446   0.239 -0.2310 -0.1634 -0.3256
 1939W        W20143   4.480   8.467  13.840  0.1032 -0.0398 -0.0728
 1940W        W20144   9.740   2.962  13.058  0.0514 -0.3128  0.2106
 1941W        W20145   1.314   9.351  11.838 -0.0495 -0.0133  0.1279
 1942W        W20146   9.459   2.659   4.029 -0.3527 -0.0448 -0.0665
 1943W        W20147   2.053   5.755   1.377  0.1157  0.0182 -0.1217
 1944W        W20148  10.155   2.604   1.640 -0.0741  0.3697  0.0444
 1945W        W20149   2.247   4.826   3.817  0.0064  0.1043 -0.0380
 1946W        W20150  14.089   3.235   9.706  0.0706 -0.1502 -0.2936
 1947W        W20151  11.712   5.999   0.126 -0.1255  0.3883 -0.0098
 1948W        W20152  10.012  15.327   0.844 -0.0407 -0.3384  0.2206
 1949W        W20153  18.664   5.216  14.695  0.0554 -0.0301  0.1300
 1950W        W20154   4.875   5.889   0.110 -0.0333  0.3430 -0.0633
 1951W        W20155  12.143  17.182  11.272  0.0493  0.7306 -0.0837
 1952W        W20156  12.156   1.130  10.456  0.1028 -0.0645  0.2550
 1953W        W20157   3.168   4.821   1.483 -0.2559  0.2040 -0.0078
 1954W        W20158  13.057   6.390   5.488  0.3087 -0.2079  0.0112
 1955W        W20159  10.500  18.049  11.156 -0.1372 -0.0825  0.0920
 1956W        W20160  14.702  18.422   2.877  0.0134 -0.1308 -0.1596
 1957W        W20161   6.831   5.826  13.746  0.0226  0.1327  0.1168
 1958W        W20162   4.334   6.185   4.304 -0.2278  0.2645 -0.2150
 1959W        W20163   2.154  10.984   2.817  0.1823 -0.2579 -0.0820
 1960W        W20164   9.573   1.169  10.906 -0.0136  0.1440  0.2596
 1961W        W20165   3.656   7.521   3.898 -0.2633 -0.0405 -0.1332
 1962W        W20166  12.335  11.378  12.400 -0.1411 -0.4050  0.3279
 1963W        W20167   7.824  12.604  13.838 -0.2675 -0.0898  0.0375
 1964W        W20168  16.094  10.130   4.770  0.0766  0.0887  0.3767
 1965W        W20169   7.128  10.885   3.127 -0.4349 -0.1354 -0.1995
 1966W        W20170  17.575  14.942  14.378 -0.2534  0.0599  0.0973
 1967W        W20171   0.562  13.482   2.697 -0.1904 -0.0398  0.0508
 1968W        W20172  13.628   4.172  11.437 -0.1910 -0.2175  0.0870
 1969W        W20173  15.647  12.050   1.040  0.1078 -0.0326 -0.1701
 1970W        W20174  15.491   0.553   2.669  0.1547  0.2349 -0.0348
 1971W        W20175   0.520   3.014   3.386 -0.0212 -0.2230 -0.1614
 1972W        W20176   2.585  16.294  13.988 -0.3366  0.1028  0.1752
 1973W        W20177  17.221  17.134   1.679 -0.0026 -0.0464 -0.0064
 1974W        W20178   4.451  11.532  12.072 -0.0434 -0.3101  0.2944
 1975W        W20179   3.195  18.052   5.684 -0.3359  0.1447  0.1691
 1976W        W20180  10.614   1.348   0.082  0.4280  0.1573  0.1572
 1977W        W20181   1.673  18.376   1.829 -0.1147  0.0643  0.1003
 1978W        W20182   0.915  10.772   5.272  0.2951  0.0934  0.1058
 1979W        W20183  15.505  12.389  12.544  0.2470 -0.0734  0.1326
 1980W        W20184   4.411  13.073   0.394  0.0923  0.0545 -0.1864
 1981W        W20185  14.276  15.533  12.110 -0.2226  0.0029  0.4583
 1982W        W20186   6.971  16.255   1.631  0.0006 -0.1060  0.2634
 1983W        W20187  15.481  10.562  14.753 -0.1515 -0.0175 -0.0131
 1984W        W20188   1.799  10.634  13.589 -0.2488  0.1630  0.2991
 1985W        W20189   9.764  18.376   3.503  0.0529 -0.2873  0.3375
 1986W        W20190   9.876   0.572  12.104  0.2782 -0.1249 -0.2361
 1987W        W20191   5.407   2.797  12.276  0.1100 -0.0891  0.0345
 1988W        W20192  13.435   1.193   2.263  0.1241  0.0547 -0.0754
 1989W        W20193  14.990   2.491   3.599  0.1021  0.0388 -0.0754
 1990W        W20194  17.341  18.808   1.903 -0.0799 -0.0580  0.0530
 1991W        W20195   9.340   6.762  10.614 -0.0957  0.0177  0.3511
 1992W        W20196  10.046  17.614  10.064 -0.1390  0.1690  0.2106
 1993W        W20197  14.737  16.904   2.373  0.2585 -0.2942  0.0214
 1994W        W20198   7.089  14.977   1.060 -0.1206 -0.1111  0.0553
 1995W        W20199   9.048   9.823  10.239 -0.1749 -0.1566 -0.0976
 1996W        W20200  11.642  16.356  12.003 -0.1262  0.0837  0.0352
 1997W        W20201  11.842   2.951   0.862 -0.1369  0.1253  0.1658
 1998W        W20202   4.617   5.110  11.594 -0.0363  0.1988  0.0707
 1999W        W20203  12.084   2.808  11.023  0.2860  0.1987 -0.0145
 2000W        W20204   0.617  17.708  11.980  0.0543  0.0096  0.0699
 2001W        W20205   0.693  12.441   2.109  0.1901 -0.3366 -0.1069
 2002W        W20206   0.623  13.280  12.254 -0.0735  0.2385  0.0567
 2003W        W20207   6.399  13.407   0.221 -0.1340  0.0833 -0.2160
 2004W        W20208  16.456   7.378   4.252  0.0936  0.0031 -0.0075
 2005W        W20209  17.375   0.355   2.708 -0.3366 -0.0226  0.1279
 2006W        W20210   0.649   4.637  13.075  0.0064  0.2758 -0.1967
 2007W        W20211  18.631   5.238  10.008 -0.1091  0.1515 -0.0876
 2008W        W20212   1.703   8.587  10.960  0.0878  0.0387 -0.2615
 2009W        W20213  12.160   6.569  13.881  0.1622 -0.4110  0.0196
 2010W        W20214   2.557   5.000  13.669 -0.2455 -0.0753  0.1890
 2011W        W20215   7.363   1.905  13.633  0.0350 -0.0872 -0.0056
 2012W        W20216   3.376   6.966   0.737  0.0310 -0.0684 -0.0304
 2013W        W20217   7.301   5.020  11.810 -0.2399  0.0524  0.0368
 2014W        W20218  12.767   5.762  11.975  0.0676 -0.0443 -0.3921
 2015W        W20219  10.382  11.331  13.015  0.2319  0.1004 -0.0477
 2016W        W20220   5.538  14.902  13.878 -0.0176 -0.3870 -0.0444
 2017W        W20221   3.914  18.040  11.694 -0.0192 -0.3224  0.0548
 2018W        W20222  18.001  16.915   1.338 -0.2669 -0.1924 -0.1193
 2019W        W20223  15.519   0.865  12.617 -0.1432 -0.1486 -0.0396
 2020W        W20224   6.246   0.103   1.042  0.2035 -0.1291 -0.0079
 2021W        W20225  15.214   6.615  14.986 -0.2690  0.0805  0.0088
 2022W        W20226   1.210   8.810   3.385  0.0603 -0.0477  0.1820
 2023W        W20227   3.729  13.396  12.488 -0.3880 -0.0247 -0.1393
 2024W        W20228  16.551   5.012   0.819 -0.1602  0.1128 -0.3422
 2025W        W20229   8.349   9.909  11.536 -0.0985  0.3511  0.0087
 2026W        W20230  13.261  13.461   0.419  0.2590  0.0599  0.0436
 2027W        W20231  10.974   9.067  13.798  0.2174 -0.0216 -0.2902
 2028W        W20232   4.877  12.389   1.672 -0.0298 -0.1560 -0.0954
 2029W        W20233   1.922  12.165   1.516 -0.1357  0.0027  0.0577
 2030W        W20234   7.110   7.009   1.849 -0.2550 -0.2548  0.1428
 2031W        W20235   0.307   0.487  12.658  0.0940 -0.2320  0.3322
 2032W        W20236   0.549   1.051   2.096 -0.5351  0.3020  0.3472
 2033W        W20237  17.683   5.067   4.088  0.2227  0.2355  0.1509
 2034W        W20238  17.254  15.551   0.878 -0.0461  0.0944  0.0472
 2035W        W20239   0.780  13.318   0.451 -0.1034 -0.0750  0.2088
 2036W        W20240   9.475   9.922  14.756 -0.2141 -0.1544 -0.0602
 2037W        W20241  11.825   7.723  14.073 -0.0389 -0.2329 -0.1418
 2038W        W20242  17.537   1.803  11.981 -0.1489 -0.1463 -0.1810
 2039W        W20243   3.391  15.716  11.224  0.2092  0.0650  0.3228
 2040W        W20244   7.612  17.381  14.147 -0.1178 -0.0319 -0.1251
 2041W        W20245  13.209   8.796  13.034 -0.0504  0.0013 -0.4196
 2042W        W20246   6.359  10.718  11.362 -0.2444 -0.1759  0.0652
 2043W        W20247  18.940   2.839  12.434 -0.1016  0.1836  0.3250
 2044W        W20248   0.950  17.030   3.399  0.2954 -0.0994 -0.2118
 2045W        W20249   7.816   2.226  10.544  0.3462  0.1480 -0.3002
 2046W        W20250   2.478   2.046   1.162 -0.0938 -0.0266  0.0912
 2047W        W20251  16.215  12.493  11.020  0.0379  0.1101  0.1199
 2048W        W20252   8.175   7.660  12.596 -0.1290  0.0562  0.0510
 2049W        W20253   5.228   2.853   1.007  0.0116  0.1297  0.5854
 2050W        W20254   6.270  11.773   3.583 -0.1613 -0.2988 -0.0240
 2051W        W20255   3.527   1.584  10.905 -0.0649 -0.1041  0.1267
 2052W        W20256  11.248  12.456   3.627  0.3201 -0.1982  0.2172
 2053W        W20257  12.511   7.988  13.842  0.1729  0.1771 -0.0066
 2054W        W20258  13.332   2.567   2.418 -0.0193 -0.3626 -0.0232
 2055W        W20259  15.907   1.332   2.176  0.4209  0.0731 -0.2839
 2056W        W20260  12.268   9.041  11.795 -0.1443 -0.0267 -0.1805
 2057W        W20261   4.193   3.052  13.598  0.2681 -0.0109 -0.2209
 2058W        W20262  16.994   2.441   0.751 -0.0790 -0.0520 -0.0763
 2059W        W20263   2.361   7.781  12.541 -0.0932 -0.0487  0.0193
 2060W        W20264   6.184   4.448   3.433  0.1484  0.0819 -0.0061
 2061W        W20265  11.213  15.642  10.963  0.2397 -0.0046  0.1242
 2062W        W20266  15.988  14.647  12.755 -0.0363  0.1129 -0.0058
 2063W        W20267  18.245  10.370   5.411  0.0426 -0.0024 -0.2439
 2064W        W20268  10.976   6.585   3.095  0.0884 -0.2712 -0.1202
 2065W        W20269  17.038  18.149   3.438 -0.2414  0.1400 -0.0194
 2066W        W20270   1.394   5.725  13.745 -0.2774 -0.0332 -0.0091
 2067W        W20271   3.805   2.189   1.947  0.0202 -0.0143 -0.0255
 2068W        W20272   1.144   2.955  10.738  0.1982  0.1189 -0.0307
 2069W        W20273  18.844  15.169   2.901  0.0133  0.3093 -0.3130
 2070W        W20274  12.346  10.330   4.370 -0.0436 -0.5128 -0.0272
 2071W        W20275  17.134   6.539  14.513 -0.1079 -0.1590 -0.2209
 2072W        W20276   7.308  18.174  12.641 -0.0618  0.0768 -0.1180
 2073W        W20277  10.040   8.474   0.531 -0.2351  0.1617  0.0810
 2074W        W20278  12.710   1.351  14.548  0.0025  0.0308  0.0129
 2075W        W20279   4.962   3.930  12.570  0.0781  0.2793 -0.0563
 2076W        W20280  16.889  15.638  10.690  0.1228 -0.1243 -0.1713
 2077W        W20281  12.915  12.084   0.148  0.1128  0.1882 -0.0060
 2078W        W20282  11.537  16.594   4.177  0.0272  0.5289  0.2910
 2079W        W20283   4.803   0.124   0.820  0.3843  0.1556  0.1104
 2080W        W20284  13.972  12.513  11.066 -0.0442 -0.0888 -0.3700
 2081W        W20285   6.696  18.125  11.064 -0.2391  0.0769  0.0906
 2082W        W20286   6.696   2.364   3.464  0.0200  0.0966  0.2367
 2083W        W20287  18.005   5.313   9.349 -0.3798  0.2216  0.1724
 2084W        W20288  10.479   8.163   0.533 -0.1726  0.1107 -0.2031
 2085W        W20289   4.269  17.546   0.258 -0.1422 -0.2148 -0.0844
 2086W        W20290  18.458  12.173   4.529  0.2986  0.1573 -0.0512
 2087W        W20291   4.670   6.654   5.066 -0.5605 -0.0287  0.1988
 2088W        W20292  10.650   2.688  14.965  0.1994  0.2077  0.1142
 2089W        W20293   1.539   9.159   4.304  0.1112 -0.1378  0.0012
 2090W        W20294  10.627   3.952  14.788 -0.2613 -0.2843 -0.3184
 2091W        W20295  10.436   4.377   1.755 -0.0152 -0.0659 -0.0690
 2092W        W20296  16.121  13.868   9.167 -0.1323 -0.1206 -0.0372
 2093W        W20297   2.717   6.613   2.067 -0.0011 -0.2506  0.2968
 2094W        W20298   1.792   3.208  14.007  0.1135 -0.0583 -0.0134
 2095W        W20299  11.908  10.631   0.887  0.1602  0.3789  0.0028
 2096W        W20300   0.684  18.577  12.511  0.0180  0.3419  0.0819
 2097W        W20301  17.049  12.831  10.603  0.0801 -0.2841  0.0060
 2098W        W20302  12.446   1.805   0.298 -0.0063 -0.0535 -0.3515
 2099W        W20303  16.482   7.224  11.321 -0.0695 -0.0128  0.0433
 2100W        W20304   1.598  15.764   0.189 -0.0814 -0.0021  0.1247
 2101W        W20305  12.236   7.694  12.674 -0.2280 -0.1904 -0.1640
 2102W        W20306   4.762   1.969  10.018  0.2307 -0.2841 -0.0043
 2103W        W20307   4.285  15.832   2.887  0.1559 -0.1430  0.0230
 2104W        W20308  13.308  11.935   1.149  0.1265 -0.3073  0.3228
 2105W        W20309   0.670  12.834   4.091  0.2872 -0.3135 -0.0027
 2106W        W20310  10.260  13.869  11.893  0.0090 -0.1375 -0.5191
 2107W        W20311  17.476   5.809   2.427  0.0109 -0.0156 -0.1821
 2108W        W20312  15.165   2.815  11.591  0.0978  0.1807 -0.0093
 2109W        W20313  10.230   1.956   2.745 -0.1441 -0.3165  0.1407
 2110W        W20314  16.613   0.271   3.180  0.0128 -0.1278 -0.2484
 2111W        W20315   9.520  10.997  11.856  0.1260  0.0527 -0.2387
 2112W        W20316  17.821   1.908   3.471 -0.1467 -0.1513 -0.1134
 2113W        W20317  14.824  14.141  12.870  0.1353  0.0536  0.2769
 2114W        W20318  15.323   1.626  12.692  0.0110 -0.2861 -0.1170
 2115W        W20319   9.592  17.586  10.321 -0.1137  0.1328 -0.0679
 2116W        W20320  17.693  12.171   2.996  0.1044 -0.2030 -0.1251
 2117W        W20321   3.514   9.576  13.233  0.0059  0.1755 -0.1043
 2118W        W20322   6.694  12.096  11.462  0.0736  0.1583  0.0083
 2119W        W20323  10.011  14.618   0.811 -0.0199 -0.0944 -0.1961
 2120W        W20324   6.043   9.572  12.311 -0.1040 -0.1811  0.2482
 2121W        W20325   4.572   0.572  15.031 -0.0675  0.1473  0.2919
 2122W        W20326   5.230   2.506  12.678  0.2202  0.2316  0.0265
 2123W        W20327  18.272  15.123   3.889 -0.1755 -0.2773 -0.0787
 2124W        W20328   7.529   1.422  13.729  0.0299  0.0048 -0.0701
 2125W        W20329   5.284  10.987  12.532  0.1463 -0.0188 -0.2362
 2126W        W20330  17.492   9.809   1.470 -0.1719 -0.1541 -0.0631
 2127W        W20331   9.742   4.653   3.214 -0.1154  0.1178 -0.2221
 2128W        W20332   6.098   8.491  12.370  0.6594  0.4303 -0.1822
 2129W        W20333   9.561   9.274  11.002  0.0290 -0.2891  0.3371
 2130W        W20334  13.218  11.967   4.841 -0.1752  0.1302  0.1830
 2131W        W20335  16.141   1.232  13.060 -0.2773 -0.1069 -0.1942
 2132W        W20336  18.750   0.264  11.963  0.3727 -0.1787  0.3013
 2133W        W20337   0.472   2.217  13.939  0.1464 -0.0253  0.1407
 2134W        W20338   7.875   6.675  14.206  0.0107  0.1293 -0.1060
 2135W        W20339  15.357   3.662  13.451 -0.2897  0.0132  0.1180
 2136W        W20340   6.445   4.001   0.075  0.1637 -0.1120 -0.1281
 2137W        W20341   5.963  14.822  11.703 -0.0325 -0.1213 -0.0853
 2138W        W20342   5.090  15.413  13.860 -0.3891  0.0602 -0.3170
 2139W        W20343  13.941  10.176   1.082  0.0963  0.0757  0.2337
 2140W        W20344   2.009  11.129   2.348 -0.0595 -0.1501 -0.0602
 2141W        W20345  13.784   9.327   3.242 -0.2342  0.2960  0.4624
 2142W        W20346  16.036   0.594   0.370 -0.2222  0.1279  0.2734
 2143W        W20347  16.389   7.912  13.267  0.1091 -0.2450 -0.0248
 2144W        W20348  17.053  16.449   2.363 -0.0859 -0.0487  0.0175
 2145W        W20349   6.842   8.833  10.396 -0.0319  0.0633 -0.0607
 2146W        W20350   8.739  14.661  12.013 -0.1864 -0.3252 -0.2108
 2147W        W20351   8.086  15.004   3.144  0.0861 -0.2654 -0.0312
 2148W        W20352   1.173  18.187  11.163  0.3154  0.0154 -0.0296
 2149W        W20353  13.508  12.414  11.111 -0.2793 -0.0249 -0.2909
 2150W        W20354  15.218  11.658   1.906  0.2833  0.3747 -0.0627
 2151W        W20355  17.300   6.413   1.689  0.2690  0.2895  0.2368
 2152W        W20356   5.723   6.734  13.510  0.1893 -0.0999  0.0877
 2153W        W20357   8.539  15.485  10.933 -0.0411  0.1657 -0.2357
 2154W        W20358  17.903  11.009  12.341 -0.2378 -0.1274 -0.0569
 2155W        W20359  14.582   9.891   4.547 -0.2269 -0.2916  0.0466
 2156W        W20360  18.816   1.150  13.688  0.0538 -0.1204  0.0805
 2157W        W20361  15.048   6.147   1.101 -0.0861  0.0346  0.0079
 2158W        W20362  17.425   6.354  14.078  0.2135  0.3667 -0.0865
 2159W        W20363  17.319   2.352   0.401  0.1558  0.4782 -0.1899
 2160W        W20364   1.410  15.098   4.748 -0.0835  0.0918 -0.2878
 2161W        W20365  15.825  18.774   1.830 -0.0020  0.1051  0.1554
 2162W        W20366  12.942   9.654   2.777 -0.1435 -0.0338 -0.1587
 2163W        W20367  17.404  18.301  10.596 -0.1477  0.3709 -0.0971
 2164W        W20368   4.836  15.332  12.812  0.3410 -0.1646 -0.0765
 2165W        W20369   6.190  13.614   1.658 -0.1334 -0.0722  0.3143
 2166W        W20370   4.019  14.637  13.719 -0.1395 -0.0043 -0.0218
 2167W        W20371   7.920   5.342   2.023 -0.1676 -0.0299  0.1177
 2168W        W20372   2.124   9.626  10.072 -0.2414  0.0515 -0.0542
 2169W        W20373   1.634   8.144   2.310 -0.0590 -0.3096 -0.0584
 2170W        W20374   2.840   8.830   2.272 -0.0116  0.2869 -0.2318
 2171W        W20375  10.390   5.113  12.229 -0.2532  0.0381  0.0110
 2172W        W20376  18.488  18.667  14.311  0.0903 -0.2045  0.0821
 2173W        W20377   6.080  18.579   4.391 -0.0107  0.0616  0.1516
 2174W        W20378  15.365  17.657   2.174  0.2659 -0.3035  0.2347
 2175W        W20379  10.900   7.081   1.745  0.0305 -0.0934  0.2205
 2176W        W20380   4.786   9.031  13.485  0.0823  0.0568  0.2181
 2177W        W20381  10.489  14.241  13.240  0.0836 -0.0182  0.2744
 2178W        W20382   4.450  18.096  11.747 -0.0107 -0.0507  0.2005
 2179W        W20383   5.036   2.896   0.119 -0.2612  0.0776  0.3080
 2180W        W20384   1.485   1.409  12.253 -0.0782  0.2723 -0.2342
 2181W        W20385  11.344   1.833   1.658  0.1012 -0.1678  0.2415
 2182W        W20386  13.451   5.733  14.173  0.0548  0.1510  0.3528
 2183W        W20387   1.754   1.191  11.195 -0.0134  0.1129 -0.2463
 2184W        W20388  15.964   8.444  11.942  0.0425  0.0646  0.1381
 2185W        W20389   3.855   2.042  10.876  0.1741  0.0691  0.0402
 2186W        W20390   0.421   4.548   3.428 -0.0815  0.3731 -0.0211
 2187W        W20391   6.466  16.827  13.185 -0.0690 -0.0408 -0.4525
 2188W        W20392   3.057   0.338   9.783 -0.0261  0.1298 -0.1890
 2189W        W20393   5.037  10.780   1.479 -0.2473  0.0190  0.3815
 2190W        W20394   5.838  13.693  12.522 -0.1410  0.0739  0.0520
 2191W        W20395   3.221   5.797  10.637 -0.1142 -0.0773  0.1037
 2192W        W20396   5.872  14.101   4.027 -0.1823  0.3285  0.1408
 2193W        W20397  16.196   7.403  10.506  0.1740 -0.1271  0.3203
 2194W        W20398  14.603  12.009   0.582 -0.2914  0.0752  0.1994
 2195W        W20399   9.756   3.837  14.896 -0.0123  0.0515 -0.0714
 2196W        W20400   3.860   9.347  13.048 -0.1384 -0.0775  0.0311
 2197W        W20401   5.982   4.332   4.303  0.1474  0.0495  0.0388
 2198W        W20402   9.560   2.609   5.177  0.1852 -0.0766  0.4643
 2199W        W20403   6.352   9.119  12.921 -0.0638 -0.0440 -0.0802
 2200W        W20404   8.333  10.847   4.137 -0.2334  0.1544 -0.1697
 2201W        W20405   3.543   4.570  10.646 -0.1448  0.2910  0.3414
 2202W        W20406   3.968  11.652   0.789  0.0045  0.0036  0.1023
 2203W        W20407  10.843   2.901  12.863  0.0981  0.0582 -0.1272
 2204W        W20408   0.366   0.686   3.577  0.1738  0.1419 -0.2284
 2205W        W20409  17.784  14.813  12.359 -0.2538  0.1028 -0.1842
 2206W        W20410  13.664  13.726   0.738 -0.0169  0.1574 -0.1207
 2207W        W20411   1.692   6.868   2.675 -0.2618 -0.1889  0.2569
 2208W        W20412   4.917   3.626   2.133 -0.0228 -0.0969 -0.1015
 2209W        W20413  17.855   4.935  13.564 -0.1799  0.0743  0.3068
 2210W        W20414  17.498   1.283  12.127 -0.1728 -0.1200  0.1117
 2211W        W20415  18.750   5.162   1.978  0.1741 -0.0377 -0.2826
 2212W        W20416   0.793  17.941   4.183 -0.1370 -0.0023 -0.2111
 2213W        W20417   1.819   4.141  14.319 -0.2548 -0.2842 -0.1734
 2214W        W20418  17.157  12.325  11.041  0.1393  0.1683  0.0848
 2215W        W20419   1.908   5.842  10.736 -0.1305  0.1100 -0.2319
 2216W        W20420   9.077   5.558   2.224 -0.0248 -0.1464 -0.1267
 2217W        W20421  18.682  18.801  11.194 -0.0531 -0.0320  0.0638
 2218W        W20422   3.761   9.898   1.330 -0.3007 -0.0943 -0.1034
 2219W        W20423   7.844   6.641  10.212 -0.0373  0.1994  0.2365
 2220W        W20424  12.509   3.779   0.438  0.0641  0.0543 -0.2772
 2221W        W20425   9.902   3.461   5.357 -0.1281  0.0281  0.1113
 2222W        W20426  10.104  14.154   0.071  0.1627  0.0846  0.0162
 2223W        W20427   5.608   3.271  12.227  0.3021 -0.0220 -0.2893
 2224W        W20428   2.345  15.888   2.617  0.1943  0.2065 -0.0842
 2225W        W20429   7.918  18.102   1.400  0.0140 -0.2202  0.1062
 2226W        W20430   9.493  16.745   2.521  0.1722 -0.1613 -0.1330
 2227W        W20431  15.291   4.257   1.822 -0.2432  0.0659  0.4604
 2228W        W20432  17.670   9.337   0.117 -0.1517 -0.0143  0.0705
 2229W        W20433  11.670  12.038   4.193 -0.1826 -0.3044  0.0098
 2230W        W20434  18.370   9.192   2.517 -0.0879  0.2859 -0.0444
 2231W        W20435  10.080  10.901  11.613 -0.2226 -0.0396 -0.0590
 2232W        W20436   0.252  15.642  12.292  0.0065  0.1245 -0.1703
 2233W        W20437   1.714   9.962   0.780 -0.0162  0.1561  0.1375
 2234W        W20438  12.947   7.805   3.513 -0.3030 -0.0262 -0.1531
 2235W        W20439   2.584   6.811   3.450 -0.0065  0.1717 -0.1626
 2236W        W20440   5.159   9.775   3.330 -0.1249  0.3115  0.0704
 2237W        W20441   9.437  16.647   3.393  0.3030  0.2462  0.1280
 2238W        W20442   5.336   7.656  13.252 -0.5014 -0.1355  0.1592
 2239W        W20443  18.475   8.292  10.475  0.3570  0.0367  0.0099
 2240W        W20444   2.337  15.688   9.983  0.0551 -0.1777 -0.3499
 2241W        W20445  15.867   5.785   0.545 -0.1927 -0.0010 -0.2874
 2242W        W20446   9.086  10.791  11.784  0.0071  0.0102 -0.4453
 2243W        W20447   0.798  14.659  15.008  0.2019 -0.1879 -0.2821
 2244W        W20448   3.138  16.163   1.730 -0.1790  0.2124 -0.0318
 2245W        W20449   9.063  17.574  13.723 -0.0545 -0.1457 -0.2183
 2246W        W20450  18.042   9.073   0.340 -0.0529  0.1218  0.0789
 2247W        W20451   2.798  15.125  11.075  0.2097 -0.1723  0.1025
 2248W        W20452  12.281  16.317  13.979 -0.1285 -0.1938  0.1248
 2249W        W20453  15.735   6.521  13.410 -0.1568 -0.0503 -0.0309
 2250W        W20454   7.034   0.897   2.271 -0.1377 -0.1882 -0.0779
 2251W        W20455  18.047   3.298  13.725  0.0577 -0.1552  0.0935
 2252W        W20456   0.560   5.916  11.045 -0.0319 -0.3382  0.0635
 2253W        W20457  11.838  16.091   4.868 -0.0688 -0.1476  0.1921
 2254W        W20458   8.342  10.273  14.637 -0.2213 -0.0158  0.1367
 2255W        W20459   7.008   3.994  13.474 -0.0675  0.2607  0.0138
 2256W        W20460  18.747  17.928   5.436 -0.0058 -0.1318  0.0628
 2257W        W20461  16.438   2.447  10.753 -0.1553 -0.0794  0.0071
 2258W        W20462  14.684  10.411  14.188 -0.2911  0.1079 -0.1727
 2259W        W20463  14.102   5.156   2.511 -0.3007  0.2913 -0.1903
 2260W        W20464   6.653   5.214  10.463 -0.0445 -0.2159  0.0607
 2261W        W20465   9.271   4.354   2.595 -0.4342 -0.0937  0.1380
 2262W        W20466   1.558  15.584  10.509 -0.1553  0.4133  0.0033
 2263W        W20467  11.574   4.511  12.859  0.0686  0.0268  0.0235
 2264W        W20468  17.465  10.477   3.790  0.1330  0.0959 -0.0929
 2265W        W20469   8.704   3.090   4.961  0.0520  0.1101 -0.0051
 2266W        W20470   3.102  16.976   3.107  0.2246  0.1844  0.2266
 2267W        W20471   8.088  10.722   1.111  0.0620  0.0952 -0.0601
 2268W        W20472   4.967   0.126  12.421  0.1029  0.0222  0.1763
 2269W        W20473  10.017   7.087   3.550  0.0291 -0.1588  0.2517
 2270W        W20474  12.423  18.177  13.556 -0.0786  0.1882  0.1972
 2271W        W20475  12.591   6.141  14.439  0.0154  0.1887  0.0074
 2272W        W20476  17.735  17.791   3.033 -0.2007  0.0496 -0.1065
 2273W        W20477  14.310   2.397  11.018 -0.1295  0.1247  0.1277
 2274W        W20478   8.318  13.964  14.368 -0.2240  0.0487 -0.0795
 2275W        W20479  17.841   6.846   3.888  0.0568 -0.0039  0.1840
 2276W        W20480  10.911   4.191  14.040 -0.1845 -0.4210  0.1255
 2277W        W20481  12.569  16.044   2.899  0.0943  0.0888  0.1419
 2278W        W20482  16.947   5.515  13.793  0.0793  0.2151  0.0152
 2279W        W20483  16.521  18.300  14.819  0.1718  0.0828  0.2314
 2280W        W20484   8.655   7.638   1.568  0.0953  0.0334  0.1837
 2281W        W20485  11.416   2.566   2.994  0.1399 -0.0509  0.1492
 2282W        W20486  12.284  11.481  13.436  0.0848  0.1516  0.2766
 2283W        W20487   7.938  14.849  12.541 -0.1892 -0.0867  0.3491
 2284W        W20488   6.376   0.958   4.217  0.0186  0.0273  0.2040
 2285W        W20489   3.077   3.286   1.497  0.0364  0.2397 -0.0884
 2286W        W20490   9.709  15.419   1.608 -0.3413 -0.0291 -0.0745
 2287W        W20491  16.297   6.836  10.885 -0.0223  0.1374  0.2476
 2288W        W20492   4.412  14.697  11.821 -0.1053 -0.1857 -0.1932
 2289W        W20493   6.736  15.916   5.884 -0.0215 -0.2229  0.0890
 2290W        W20494   9.247   8.757   5.265 -0.1542  0.2072  0.1794
 2291W        W20495  11.435  15.330  14.360  0.0325  0.2485  0.1117
 2292W        W20496   4.735  18.820   3.439  0.0674  0.0795  0.0255
 2293W        W20497  10.142   2.628  13.090  0.2353  0.0822 -0.1281
 2294W        W20498   5.550   4.215  12.146  0.2914  0.1187 -0.1356
 2295W        W20499   3.569   7.922  14.534  0.0095 -0.3119  0.1694
 2296W        W20500   5.027  10.048   3.769  0.0690  0.0681 -0.1476
 2297W        W20501  15.010   3.722   1.213 -0.0283 -0.2392  0.0541
 2298W        W20502  15.163   6.974   3.742 -0.1406  0.1160 -0.0328
 2299W        W20503   4.171  15.744  10.978 -0.0535  0.0911  0.0374
 2300W        W20504   9.887   5.183  13.418  0.0835  0.4164  0.0982
 2301W        W20505  13.004   1.055   2.440 -0.0203 -0.0202  0.0416
 2302W        W20506  14.910   3.301  12.820 -0.1672 -0.2810  0.0590
 2303W        W20507  18.773  16.742   4.352  0.1163 -0.2257 -0.1913
 2304W        W20508  14.662  17.117  14.611  0.0739  0.3065 -0.1148
 2305W        W20509  15.812  14.901   0.899  0.1539  0.0755  0.3596
 2306W        W20510   0.966   6.786  14.388 -0.0913  0.4098 -0.1260
 2307W        W20511  14.061   4.107   2.021 -0.0933  0.0079 -0.1372
 2308W        W20512  13.720  12.850   9.923 -0.2378  0.0566 -0.1424
 2309W        W20513   1.856   7.755   4.965 -0.2375  0.0624 -0.0103
 2310W        W20514   1.870   6.863   4.351 -0.0141 -0.0703  0.3060
 2311W        W20515  14.358  13.941  13.943  0.3493 -0.0441 -0.1137
 2312W        W20516   1.135   0.755   3.062  0.0813  0.1750 -0.2747
 2313W        W20517   2.835  14.757  11.449 -0.3196  0.1773 -0.0676
 2314W        W20518  11.666  18.438   4.144  0.2368 -0.0294 -0.1463
 2315W        W20519  16.099   0.030  13.939  0.0956  0.0553  0.0329
 2316W        W20520   0.158   8.622  13.175 -0.2531 -0.1811  0.4710
 2317W        W20521   2.863  14.265  15.010  0.0259  0.1018 -0.3519
 2318W        W20522   0.133  10.102   4.374  0.0837 -0.1597 -0.2859
 2319W        W20523   0.681  13.959  10.218 -0.1141 -0.1009 -0.2986
 2320W        W20524  13.471  18.123  14.455  0.2729 -0.0020  0.0483
 2321W        W20525  12.089   7.703   0.743 -0.0071 -0.2201  0.2231
 2322W        W20526  13.492   7.924  14.807  0.3039 -0.1636  0.0196
 2323W        W20527  16.134  18.077   2.123  0.2167  0.2479 -0.1209
 2324W        W20528  17.397   9.069  11.235 -0.2704 -0.1668  0.2162
 2325W        W20529   2.229  11.918  13.554  0.1364  0.1953 -0.1864
 2326W        W20530  11.462   9.644   2.099  0.0226 -0.6120  0.0504
 2327W        W20531   8.725  13.864   3.374 -0.0226 -0.4152  0.3886
 2328W        W20532  16.753   7.645   0.103  0.0786  0.0203 -0.1122
 2329W        W20533   9.920  15.180  13.919 -0.2305 -0.1396  0.1116
 2330W        W20534   6.634   0.206  11.779  0.0573  0.0641  0.0316
 2331W        W20535  14.023   4.379   4.035 -0.2609 -0.0678  0.2974
 2332W        W20536  10.200   0.001  13.520  0.1691  0.2538 -0.2820
 2333W        W20537  17.819  15.930  10.763 -0.2056 -0.0941 -0.0865
 2334W        W20538   9.939  12.112  12.976  0.3549 -0.1613 -0.3029
 2335W        W20539   8.231  14.779  12.934  0.1581 -0.2117 -0.1124
 2336W        W20540  14.388   3.173   0.330 -0.2613 -0.0266 -0.3091
 2337W        W20541   7.357   5.382  12.087 -0.2659 -0.1594  0.2207
 2338W        W20542   2.329   9.298  12.003  0.1078 -0.1188 -0.4087
 2339W        W20543   9.391   5.929   4.012 -0.0525  0.1082 -0.1343
 2340W        W20544   7.727  14.732  12.115 -0.0259 -0.1693  0.0994
 2341W        W20545   2.845  11.130  13.798 -0.0795  0.1297  0.1867
 2342W        W20546   6.928  11.392   3.159 -0.2295  0.0152 -0.5406
 2343W        W20547   8.865   5.983  14.243  0.2974  0.2444  0.0059
 2344W        W20548  18.547   9.831  11.389  0.2587  0.0436  0.1595
 2345W        W20549  18.248  16.615  11.459 -0.1517  0.0489  0.0238
 2346W        W20550   8.859   7.511  12.965  0.0109 -0.0893 -0.1862
 2347W        W20551  13.534   6.296  11.937  0.0267  0.2026  0.3211
 2348W        W20552  15.508  13.165  13.963 -0.0365 -0.0827 -0.0080
 2349W        W20553  11.048   6.223   9.517 -0.0248  0.0042  0.2482
 2350W        W20554   8.835  16.895   0.757 -0.3126 -0.2292  0.0972
 2351W        W20555  11.652   8.576   9.356 -0.1521 -0.1647  0.0806
 2352W        W20556  11.087   0.238  10.871 -0.0897 -0.0029  0.2879
 2353W        W20557   6.593   1.920  11.930 -0.0603 -0.2738  0.1002
 2354W        W20558  14.005  13.927  13.542  0.1023 -0.2156 -0.0544
 2355W        W20559   1.230  18.851   2.264 -0.2249 -0.2382  0.0399
 2356W        W20560  15.367   9.104  10.894 -0.2828  0.0567  0.1335
 2357W        W20561   4.935  17.555  12.372 -0.0607  0.0731 -0.2496
 2358W        W20562   5.340  12.521   0.167 -0.0227 -0.0324  0.3963
 2359W        W20563  18.270  11.427  14.306  0.6044  0.2494 -0.0371
 2360W        W20564  15.099   0.261   2.426  0.0574 -0.0620 -0.3939
 2361W        W20565   0.877   4.806  14.339  0.1108 -0.1111 -0.2036
 2362W        W20566   9.633  10.696   0.464 -0.1366  0.1349 -0.1533
 2363W        W20567  16.751   0.508   0.849 -0.1955  0.0287  0.0450
 2364W        W20568  17.585   2.565   2.226  0.3121  0.2097 -0.1619
 2365W        W20569   7.388  14.893   3.673 -0.2228  0.0930 -0.4125
 2366W        W20570  17.394  11.790   3.077 -0.2397  0.2271  0.1697
 2367W        W20571  15.999   1.228   1.071 -0.0638  0.1500 -0.0560
 2368W        W20572   4.471   5.538  11.140  0.1028  0.0251  0.1458
 2369W        W20573  11.914  14.943  10.531  0.0853 -0.0643 -0.1089
 2370W        W20574   8.273   6.473  12.106 -0.1388 -0.1338 -0.0873
 2371W        W20575   0.247   0.122   2.584  0.1323  0.0113  0.0211
 2372W        W20576   8.251  13.051   2.213  0.3822 -0.0900  0.0505
 2373W        W20577   9.562   0.704  13.127  0.0917  0.0624  0.1176
 2374W        W20578  14.970  17.987   2.745  0.1937  0.2447  0.0464
 2375W        W20579  11.330  13.904  11.737  0.1209 -0.0126 -0.6029
 2376W        W20580   1.993  14.273  11.947 -0.2216 -0.1200 -0.1825
 2377W        W20581   0.750  12.534   3.579 -0.1555 -0.2713 -0.1378
 2378W        W20582   9.951  14.067  13.350  0.1130 -0.0114 -0.0280
 2379W        W20583   1.797   0.875  14.577  0.0111 -0.2481  0.0220
 2380W        W20584   2.339  14.948   9.561  0.0243  0.0403 -0.2660
 2381W        W20585   4.078  12.946  11.943 -0.1239  0.1525  0.0611
 2382W        W20586   9.587   9.403  10.065 -0.3536 -0.0702 -0.1774
 2383W        W20587   1.498  11.633   3.011 -0.2192 -0.2606 -0.1282
 2384W        W20588  14.177   5.154  12.493  0.0254 -0.2454  0.1655
 2385W        W20589   5.443  15.043   3.134 -0.0573 -0.2494 -0.0128
 2386W        W20590   8.989  13.747  11.253  0.3586  0.1312 -0.1286
 2387W        W20591   8.896   4.837  10.807  0.1903 -0.0374  0.0117
 2388W        W20592  10.507   9.688   3.093  0.0545 -0.2018  0.0105
 2389W        W20593  18.136   2.281   3.744 -0.2052 -0.0061  0.2980
 2390W        W20594   7.508  12.939   4.765 -0.1369 -0.1720  0.1296
 2391W        W20595  12.782  12.375  14.623 -0.0113  0.0357  0.2443
 2392W        W20596  18.588  11.865   0.499  0.1015  0.1646 -0.1519
 2393W        W20597   8.600  13.909  14.872 -0.1234  0.0274  0.0383
 2394W        W20598   8.780  12.485   1.784  0.0995  0.1074  0.1805
 2395W        W20599   2.358  10.311  13.597 -0.1172 -0.1767 -0.2952
 2396W        W20600  15.483  16.764  14.763 -0.1406  0.2826 -0.0829
 2397W        W20601   5.866   5.531  10.311  0.1528 -0.0450  0.1721
 2398W        W20602   9.625   4.450   9.764  0.3456 -0.1816  0.0078
 2399W        W20603  12.083  12.815  12.876 -0.0568 -0.0353 -0.0216
 2400W        W20604   7.190  15.310  12.795  0.2937 -0.0561 -0.0199
 2401W        W20605   8.944  15.017  10.885 -0.0632  0.0588  0.0269
 2402W        W20606  16.725  14.087  13.885  0.0024  0.2550 -0.1537
 2403W        W20607   8.399   7.632   2.365  0.0458  0.1303 -0.1090
 2404W        W20608   6.149  11.178   0.456  0.0380 -0.0658 -0.0520
 2405W        W20609  16.109   6.238  10.921  0.1592  0.1701 -0.0392
 2406W        W20610   9.226   4.617   2.138  0.2879 -0.0955 -0.0794
 2407W        W20611  16.381   6.416   1.644 -0.1931 -0.0957  0.5016
 2408W        W20612  17.315   4.501   1.437 -0.1287  0.2118 -0.5625
 2409W        W20613  18.879  10.353  13.901 -0.2172  0.3241  0.0297
 2410W        W20614  10.011  18.077  13.295  0.2653  0.1331 -0.1659
 2411W        W20615  10.855   9.150  14.827  0.1946 -0.1872 -0.1449
 2412W        W20616   1.214   2.150   3.472  0.0452  0.1428 -0.0103
 2413W        W20617  14.542  16.992   3.867  0.1510  0.3172  0.1460
 2414W        W20618   3.519  15.257  10.423  0.2730  0.0895 -0.2581
 2415W        W20619  16.330   2.962  12.862  0.0326  0.0679 -0.1802
 2416W        W20620  15.218   5.294   1.518 -0.1303 -0.2124 -0.1346
 2417W        W20621   8.278   0.087   1.254 -0.0667 -0.2481  0.2652
 2418W        W20622  16.904  18.039  13.618  0.1588  0.3241 -0.0753
 2419W        W20623   3.031  13.829   2.436 -0.3754  0.1814  0.1753
 2420W        W20624  12.190  10.763   4.173 -0.0496  0.0031 -0.0832
 2421W        W20625  15.744   2.258  14.319 -0.0474  0.1702 -0.0656
 2422W        W20626   8.351  12.153  14.566  0.1342 -0.2533 -0.1379
 2423W        W20627  15.302  12.655   1.452  0.1365  0.1254  0.1396
 2424W        W20628  18.341   9.576   1.951  0.2064  0.0948  0.3653
 2425W        W20629   6.293   3.543   0.016  0.1034  0.0145 -0.1875
 2426W        W20630  15.564  17.992   3.003 -0.0580  0.2089 -0.2236
 2427W        W20631  10.069  11.754   0.964  0.3111 -0.0658 -0.1079
 2428W        W20632   0.805  16.328   4.029  0.0208 -0.0829 -0.0188
 2429W        W20633   1.909  14.319  12.998  0.4300  0.0704 -0.0774
 2430W        W20634   8.669   4.635   0.366 -0.0316  0.2505  0.0644
 2431W        W20635  17.227   1.416   3.811 -0.0491 -0.0045 -0.1838
 2432W        W20636  15.704  10.952   4.035  0.2630 -0.0983 -0.0176
 2433W        W20637   3.698  12.129   0.623  0.0650 -0.0754  0.0011
 2434W        W20638  15.545  12.083  11.547 -0.0270  0.1867 -0.0741
 2435W        W20639  15.451   0.392   5.112 -0.1457  0.0042  0.1748
 2436W        W20640  18.525   0.902  13.305 -0.2134  0.1294 -0.3648
 2437W        W20641   3.398  11.303   4.097 -0.2632  0.3805  0.2350
 2438W        W20642  15.733   5.426  14.791 -0.0087 -0.0628 -0.2942
 2439W        W20643   0.441  11.570   0.794  0.1282  0.2334 -0.0097
 2440W        W20644   8.490   1.080  12.484  0.1826  0.0526 -0.2664
 2441W        W20645   4.479   7.375  11.954 -0.0271 -0.0531  0.0660
 2442W        W20646   0.492   2.954  12.082 -0.2868  0.0323  0.0455
 2443W        W20647   3.959   3.423   0.385 -0.0712 -0.1668  0.3969
 2444W        W20648  10.538   4.845   2.822  0.1024  0.0898  0.1969
 2445W        W20649  16.857  18.822   4.138 -0.1716  0.0581 -0.0931
 2446W        W20650   6.806   9.293   1.325  0.0107  0.2184 -0.2670
 2447W        W20651  13.764   0.399   3.877  0.0353 -0.0052  0.2723
 2448W        W20652   6.417   5.045  12.517  0.0085  0.0343 -0.0907
 2449W        W20653  14.527   3.949  13.669  0.2151 -0.2308  0.2741
 2450W        W20654   6.542  15.355   2.495  0.1805 -0.2564  0.3582
 2451W        W20655   9.837   1.328  10.249  0.2115 -0.2364 -0.5462
 2452W        W20656  17.188   3.106  13.199  0.0431 -0.0812  0.0645
 2453W        W20657  17.335   6.181   3.380  0.0242 -0.0040  0.1884
 2454W        W20658  16.183  12.287   5.458  0.2485  0.1875  0.0146
 2455W        W20659  13.558  12.859   2.953  0.0651 -0.2283  0.4624
 2456W        W20660  14.043  11.687  12.168  0.2599  0.4347 -0.2932
 2457W        W20661   4.774   6.545  12.469  0.0349  0.2033  0.2696
 2458W        W20662   4.139  14.736   3.557 -0.2228  0.1685 -0.1245
 2459W        W20663   7.823   8.887  12.253  0.1487  0.2258  0.0545
 2460W        W20664   8.380   9.305   0.775 -0.0121 -0.1710 -0.1764
 2461W        W20665  15.753  11.202  11.819  0.1534 -0.1599 -0.1506
 2462W        W20666   5.725   8.059  11.510  0.0964  0.4018  0.2278
 2463W        W20667  13.641  13.745  11.771 -0.0051 -0.1761 -0.2686
 2464W        W20668   9.683  18.807  14.734  0.3339 -0.1746 -0.2723
 2465W        W20669   7.750  18.062   4.249 -0.1898  0.1048 -0.2983
 2466W        W20670   2.486   2.737   3.802  0.0464 -0.1698 -0.0545
 2467W        W20671  10.007  17.129   3.260  0.1929 -0.1175 -0.0837
 2468W        W20672   7.679   5.368   1.013  0.0219  0.0059 -0.1304
 2469W        W20673  14.722  18.651  10.249  0.2960  0.0078 -0.1242
 2470W        W20674  18.017   7.680   1.820  0.0743  0.0151 -0.1626
 2471W        W20675  11.792   9.782  12.781  0.0307  0.2596  0.2011
 2472W        W20676   7.664   0.701   0.466 -0.2550  0.0920  0.0996
 2473W        W20677   4.255  12.105  13.260 -0.2126  0.4360 -0.0236
 2474W        W20678   2.399  16.852   1.076  0.1673 -0.1678 -0.0595
 2475W        W20679   9.798  18.470   2.420 -0.1847  0.3048  0.1606
 2476W        W20680   3.487   2.961  12.507 -0.0474  0.0729  0.2030
 2477W        W20681   3.700  18.344   4.280  0.2148 -0.2876  0.0797
 2478W        W20682  17.557   6.231  14.737  0.0499 -0.1048  0.2544
 2479W        W20683  13.127  15.623   2.054 -0.1612 -0.0350  0.0061
 2480W        W20684   2.681  13.576  13.016 -0.3180 -0.2332 -0.3031
 2481W        W20685  18.542  17.917  10.750  0.1507  0.0337  0.2250
 2482W        W20686   7.928   4.839   4.550  0.0518 -0.0372 -0.2426
 2483W        W20687   9.136   9.143   3.984 -0.0653  0.1572  0.0621
 2484W        W20688  13.396   6.642   2.051 -0.3342  0.2837  0.0691
 2485W        W20689   3.478   1.293   5.193 -0.2472 -0.0477 -0.2237
 2486W        W20690   9.414   4.123   1.055  0.0569 -0.0887 -0.1584
 2487W        W20691   2.838  15.840   9.948 -0.0056 -0.2447 -0.2938
 2488W        W20692   0.699   0.092  14.646  0.0309 -0.2662  0.2388
 2489W        W20693  15.816   8.318  13.764 -0.1434  0.1886  0.1967
 2490W        W20694  14.333  13.456   5.546 -0.3249  0.0665 -0.3220
 2491W        W20695  14.355   5.981  12.438  0.0514 -0.2267 -0.0905
 2492W        W20696  15.398   5.907   4.260  0.1186  0.3195 -0.2681
 2493W        W20697   5.160  13.268  13.536 -0.1491  0.2509  0.1465
 2494W        W20698   7.251  17.590   0.176  0.1199  0.1240 -0.0488
 2495W        W20699   5.209   8.725   1.049 -0.0079 -0.1503 -0.5345
 2496W        W20700   5.850  14.501   1.163 -0.0683  0.1078  0.1158
 2497W        W20701  13.948   6.965   0.847 -0.0370 -0.0906 -0.3131
 2498W        W20702  12.823   6.345  11.869 -0.0184  0.0069  0.0317
 2499W        W20703   6.265  12.536   0.528  0.2392  0.0502  0.0216
 2500W        W20704   0.575  11.732  11.765  0.2496  0.0118 -0.3104
 2501W        W20705  17.421   1.504  11.499 -0.1406 -0.1425  0.1426
 2502W        W20706  13.945  15.412  10.693 -0.1507 -0.0639 -0.0831
 2503W        W20707   2.415  15.972  12.547 -0.0944 -0.0158  0.0955
 2504W        W20708   0.845   1.119  14.287  0.0317  0.1368 -0.1958
 2505W        W20709   4.671  11.836  10.679  0.0061  0.3341  0.2489
 2506W        W20710   5.693   6.333   4.042  0.0007 -0.4655  0.1193
 2507W        W20711  17.959   4.713   3.054  0.0495  0.0186 -0.1908
 2508W        W20712   3.896  15.691  14.529 -0.2066 -0.2153  0.0433
 2509W        W20713  10.092  18.675   3.799  0.0620  0.2115 -0.1010
 2510W        W20714   3.326   6.540  13.051  0.3237 -0.2326  0.0485
 2511W        W20715  14.911  15.237  14.656  0.0056  0.2704  0.1205
 2512W        W20716   6.307  11.364  12.374  0.1407  0.2401 -0.2467
 2513W        W20717  18.330   8.208  12.727 -0.1037 -0.1329  0.2798
 2514W        W20718  13.136  14.661   2.367  0.0674 -0.2886 -0.1869
 2515W        W20719   7.605   1.365  12.894  0.1229  0.3269 -0.1388
 2516W        W20720   0.251  11.295  14.396 -0.0509  0.0187  0.1559
 2517W        W20721  12.233  12.731   1.501  0.0556  0.0342  0.2380
 2518W        W20722   9.625   9.628  11.584  0.0840 -0.0381  0.1370
 2519W        W20723   8.452  17.649  14.489  0.1397 -0.0183  0.0762
 2520W        W20724   0.198  17.545  13.364  0.2466 -0.0732  0.2999
 2521W        W20725  16.150   8.194  11.189 -0.1804  0.1188 -0.0444
 2522W        W20726  16.484  11.249  14.640  0.0421  0.3039 -0.2939
 2523W        W20727  13.086   7.231   1.372  0.3637  0.1268 -0.2275
 2524W        W20728   8.607  18.841   4.279 -0.0870 -0.0978 -0.1698
 2525W        W20729  16.355   2.547  12.536 -0.0039  0.1755  0.1737
 2526W        W20730  12.676   5.589   2.983 -0.1613  0.1166 -0.1207
 2527W        W20731  15.882  16.159  14.034 -0.2346  0.0952  0.0153
 2528W        W20732  14.329   8.827  12.310 -0.0055 -0.0270 -0.1277
 2529W        W20733  10.418   4.968  11.043 -0.1185 -0.0210 -0.1203
 2530W        W20734   8.776  11.056   1.717  0.0418  0.0305  0.2835
 2531W        W20735   9.302  18.261  12.143  0.0881 -0.3225 -0.2925
 2532W        W20736  12.917  10.038   1.258 -0.0792 -0.3289  0.2413
 2533W        W20737  17.866  14.084  14.497 -0.0278 -0.0584  0.1269
 2534W        W20738   2.631   6.974  11.729  0.0568 -0.1130  0.3249
 2535W        W20739  15.443  11.678  11.951 -0.1135  0.1879  0.0738
 2536W        W20740   5.524   9.140   1.905 -0.0713  0.0946  0.0982
 2537W        W20741  15.239   1.537   2.556  0.1890  0.0977 -0.3301
 2538W        W20742   4.922  11.436   3.654 -0.0138 -0.2499  0.2366
 2539W        W20743  14.948   8.763   1.298 -0.2363  0.2155  0.1699
 2540W        W20744   3.320   7.480  12.625  0.2719  0.0722 -0.1259
 2541W        W20745  18.845   0.076   1.295  0.1779 -0.4038  0.3433
 2542W        W20746   1.990   8.534   2.196 -0.2406 -0.0462  0.1335
 2543W        W20747  12.054   5.682  13.192  0.2472  0.2092 -0.0382
 2544W        W20748  13.643  12.055   2.716 -0.2692 -0.1358  0.0483
 2545W        W20749  10.918  14.097  11.910  0.0446  0.0809  0.0050
 2546W        W20750   6.192   9.116   0.446 -0.0658 -0.0133  0.2100
 2547W        W20751  14.572   2.587   4.071  0.0285  0.1731  0.0652
 2548W        W20752   7.160   5.211   1.022  0.1311 -0.0337  0.4944
 2549W        W20753   3.122   9.850   4.998  0.1112 -0.0220  0.6726
 2550W        W20754  16.779  15.889   1.708  0.3186 -0.1232 -0.1522
 2551W        W20755  11.733   1.231   2.654 -0.1242  0.1213 -0.2326
 2552W        W20756   1.455   9.590   1.987  0.0393 -0.0114  0.1275
 2553W        W20757   8.739  15.139  10.197 -0.1460  0.2718  0.3055
 2554W        W20758  11.164  12.730  12.698  0.0823 -0.0242  0.1288
 2555W        W20759   1.199  13.598   3.783  0.3303  0.0108  0.3206
 2556W        W20760  15.120  13.318  10.359  0.1312  0.1517  0.0842
 2557W        W20761  12.406  11.587  11.586  0.1298  0.1352 -0.0653
 2558W        W20762   0.953  13.823   3.401 -0.0377  0.3163 -0.2555
 2559W        W20763  16.798  12.962   0.310  0.1311 -0.0428  0.1213
 2560W        W20764   5.048   4.031   0.701  0.0773  0.2619 -0.0202
 2561W        W20765  14.918  13.807  11.078 -0.2400 -0.0437 -0.2061
 2562W        W20766   8.659  15.541  12.363 -0.3024  0.0243 -0.0371
 2563W        W20767   0.229   2.573   3.320 -0.0859 -0.0390  0.2466
 2564W        W20768   7.310   3.902  12.998  0.0312 -0.1035  0.2020
 2565W        W20769   3.344  18.287  11.394  0.1527 -0.0192  0.0412
 2566W        W20770  14.879   4.486  12.728 -0.0184  0.0842  0.3355
 2567W        W20771  17.012   6.800  14.075  0.1617  0.1787  0.1676
 2568W        W20772  10.315   9.940   2.627 -0.0403 -0.0948 -0.1739
 2569W        W20773  17.474   3.962  10.969  0.2901  0.0393  0.0724
 2570W        W20774  15.338  14.039   3.723  0.0974 -0.1829  0.0602
 2571W        W20775  15.891  11.872  14.908 -0.1247 -0.0002  0.1807
 2572W        W20776  12.806  15.917  13.436 -0.1040 -0.0245 -0.1977
 2573W        W20777   1.474   8.518   2.663 -0.3167 -0.3932 -0.2237
 2574W        W20778  17.586   9.115   3.460 -0.2415 -0.2385  0.1522
 2575W        W20779  12.199   1.486  12.828 -0.1287  0.0008 -0.1696
 2576W        W20780  15.362  18.336  13.553 -0.3867 -0.0494 -0.1180
 2577W        W20781  10.986   3.492   3.261 -0.4501 -0.0801  0.0633
 2578W        W20782  11.338  15.690   0.436  0.1449 -0.0245 -0.0613
 2579W        W20783  15.823  10.228  11.642  0.1228 -0.1257 -0.1428
 2580W        W20784  17.429   6.826  13.765 -0.0014 -0.1062  0.0546
 2581W        W20785   9.239  11.940   0.610  0.0930  0.0165  0.1367
 2582W        W20786   2.584  12.308   3.135 -0.0483  0.1033  0.2311
 2583W        W20787   9.527   0.715  11.225  0.1684 -0.1194  0.0196
 2584W        W20788   4.386   0.635   1.674 -0.0780 -0.0381 -0.0684
 2585W        W20789   4.725   0.495  11.301 -0.2208  0.0536 -0.1342
 2586W        W20790   0.184   2.775   2.808  0.0893 -0.2071 -0.0557
 2587W        W20791   4.334   6.530  11.635 -0.1533  0.0680  0.0087
 2588W        W20792   4.189   0.561  11.286 -0.1474 -0.3719 -0.0288
 2589W        W20793   2.051   2.538   0.755  0.0622  0.3529  0.1977
 2590W        W20794   1.783  12.873   0.897  0.1564  0.2489  0.2291
 2591W        W20795  14.668  12.354  13.171  0.0420 -0.2291 -0.3520
 2592W        W20796  13.462   1.939  11.417  0.0485 -0.1936 -0.0558
 2593W        W20797   8.894   4.135  13.159 -0.0822 -0.0177 -0.1066
 2594W        W20798   3.769   6.866  11.727 -0.0293  0.2016  0.2623
 2595W        W20799  12.051   9.536   4.139  0.0451 -0.5093  0.0912
 2596W        W20800   3.104  14.286  11.185 -0.3432  0.1000  0.3798
 2597W        W20801   5.775  10.504   2.961 -0.2230 -0.1301  0.0508
 2598W        W20802   4.480  10.521   0.060 -0.0335  0.1233 -0.3796
 2599W        W20803   3.022  10.776   0.015 -0.2457  0.0055 -0.0156
 2600W        W20804   6.641   7.519   0.006 -0.1414 -0.2427 -0.1529
 2601W        W20805   1.340  15.511  14.685 -0.1881 -0.0003  0.0380
 2602W        W20806  13.802  11.403   4.437 -0.5466 -0.2840 -0.2199
 2603W        W20807  17.975   1.741   0.795 -0.3409 -0.0879  0.0436
 2604W        W20808  15.376  12.773  14.199 -0.0251  0.1794 -0.0823
 2605W        W20809  13.668  16.155   2.072  0.1964  0.0341 -0.0282
 2606W        W20810  17.336  10.832  13.952 -0.1306 -0.0602  0.0456
 2607W        W20811   0.948  11.224  12.370  0.2022  0.0647  0.0483
 2608W        W20812  15.117  15.651   4.211  0.0712  0.0643  0.0306
 2609W        W20813   2.898   9.067  14.036 -0.1170 -0.4805 -0.1293
 2610W        W20814   6.213  10.780   4.038 -0.2357 -0.1289  0.2502
 2611W        W20815  16.720   5.429   3.901 -0.0586  0.0181 -0.2023
 2612W        W20816   9.257   8.448   1.564 -0.4409 -0.2424 -0.0126
 2613W        W20817   5.788  17.126  12.394 -0.2425 -0.2413  0.2837
 2614W        W20818   0.251   1.618  14.608  0.0139  0.1915 -0.0937
 2615W        W20819  16.463  12.970  14.920  0.2011 -0.1498  0.4707
 2616W        W20820   7.054  15.333  12.325  0.0811  0.2027 -0.0224
 2617W        W20821  11.408   2.652   2.398 -0.0591  0.1431  0.1148
 2618W        W20822   3.462   5.484  14.332  0.3305  0.1836 -0.2066
 2619W        W20823  12.629   3.088   4.455 -0.1428  0.2041  0.1101
 2620W        W20824  11.699  18.213   3.243  0.0068 -0.0926 -0.0256
 2621W        W20825   6.925   2.790  12.460 -0.2239 -0.1665  0.0925
 2622W        W20826  11.253   4.174  10.482  0.1527  0.0366 -0.0140
 2623W        W20827  14.829  14.832   4.514  0.0421  0.1244  0.2741
 2624W        W20828   0.659  15.344  14.754  0.1854 -0.2590 -0.0459
 2625W        W20829   1.894   1.025   1.575 -0.0029 -0.0633  0.0673
 2626W        W20830   6.505  11.560   2.330  0.0314  0.2638 -0.0234
 2627W        W20831   7.007  14.835  13.097 -0.2456 -0.0187  0.1707
 2628W        W20832   9.998  14.236   2.900 -0.0086 -0.0282 -0.4721
 2629W        W20833   6.938   4.619   4.486 -0.1025 -0.2982 -0.0108
 2630W        W20834   5.241  10.502  12.500 -0.2080  0.1002  0.0793
 2631W        W20835   3.488   4.245  12.815  0.2035  0.3381  0.1864
 2632W        W20836  10.862  18.202  13.491 -0.4376 -0.0025 -0.0620
 2633W        W20837  12.180  15.791   2.269 -0.1932 -0.2085  0.0416
 2634W        W20838   3.963  14.590  10.426 -0.1558 -0.2211  0.0388
 2635W        W20839   1.131   4.201  13.348 -0.0007 -0.0856  0.0725
 2636W        W20840   9.405  14.820   2.803 -0.2586 -0.0848 -0.1136
 2637W        W20841   0.380  12.900  11.465  0.3029  0.1617 -0.1716
 2638W        W20842   2.903   0.383  12.107 -0.3273  0.0273  0.5164
 2639W        W20843  16.153   8.305   1.378 -0.1979  0.2136 -0.0011
 2640W        W20844  10.303  15.930   3.988  0.0034  0.0687 -0.3002
 2641W        W20845  16.045   4.127   3.669  0.3794  0.0604 -0.0182
 2642W        W20846  14.140  10.354   1.811  0.1252  0.0863  0.0079
 2643W        W20847  17.361  18.379   3.858  0.0847 -0.1354 -0.1301
 2644W        W20848  11.250  12.141  11.652 -0.0384 -0.1085 -0.0788
 2645W        W20849  16.158  12.902   3.794  0.1806 -0.0129  0.1575
 2646W        W20850   4.703   5.662   1.309 -0.2409 -0.2572  0.2970
 2647W        W20851   5.969   7.666  11.739 -0.2369  0.1105 -0.1460
 2648W        W20852   6.101  15.791  11.056 -0.1177  0.0879  0.0237
 2649W        W20853  17.554  10.649  14.881 -0.0359  0.1001 -0.1927
 2650W        W20854   6.732  12.587  11.265 -0.0144  0.1110  0.1771
 2651W        W20855  11.615  16.557   2.657  0.3308 -0.0312 -0.1659
 2652W        W20856  11.291   9.271   4.685  0.1501 -0.3461  0.0805
 2653W        W20857  12.811   6.012  12.977  0.3774 -0.2269  0.0965
 2654W        W20858   6.349   9.472  10.750  0.0783  0.1033 -0.1875
 2655W        W20859   8.636  10.530   2.678 -0.3346 -0.2364  0.1825
 2656W        W20860  17.911   0.582   0.137 -0.1490 -0.0409  0.0512
 2657W        W20861   8.007  11.217  12.644 -0.0454 -0.4328  0.1543
 2658W        W20862   3.554  10.789   2.887  0.1752  0.0348 -0.1851
 2659W        W20863   0.123   4.752   0.336  0.0414 -0.0404  0.2042
 2660W        W20864  13.864   5.892  12.659  0.1517 -0.0409 -0.2829
 2661W        W20865  13.156   5.899   0.351  0.2568 -0.1552  0.0441
 2662W        W20866   7.297   7.129  14.450  0.1025  0.1052 -0.0502
 2663W        W20867   7.690  16.861  14.133  0.0660  0.2771  0.3487
 2664W        W20868  13.406   9.625   0.354  0.0850  0.1359 -0.0269
 2665W        W20869  15.601   6.700  14.308 -0.5351 -0.0524  0.0224
 2666W        W20870  11.947  18.181   0.525 -0.3060  0.0392  0.0163
 2667W        W20871   3.508  18.143  13.995 -0.3139 -0.3078 -0.0095
 2668W        W20872   8.613   0.876  13.791 -0.0297 -0.0543  0.0609
 2669W        W20873  16.632  11.485   5.332 -0.1505 -0.0189 -0.1420
 2670W        W20874  12.745   6.836  14.240  0.0368 -0.2925 -0.2430
 2671W        W20875   4.236   7.906  13.050  0.2070 -0.3254  0.1613
 2672W        W20876  14.653   4.256   3.772  0.0304 -0.0428  0.2451
 2673W        W20877   5.591   3.559  13.983 -0.0114 -0.4347 -0.0974
 2674W        W20878   0.039   8.907   5.357  0.0815  0.0161 -0.0942
 2675W        W20879   1.004   1.770   0.845 -0.0500  0.0910 -0.0754
 2676W        W20880  18.230  11.163  11.170 -0.5286 -0.0130 -0.1241
 2677W        W20881  17.826  11.822  14.542  0.2927 -0.1744 -0.0156
 2678W        W20882   9.378   1.194  11.449 -0.2299  0.1814  0.0358
 2679W        W20883   2.414   2.006   3.311 -0.0173 -0.0028 -0.3289
 2680W        W20884  10.622   7.061   0.301 -0.2862 -0.0421 -0.0286
 2681W        W20885   1.054   7.294   1.711 -0.2546 -0.2555  0.1177
 2682W        W20886   8.538  18.532   1.409  0.3671 -0.1257  0.1587
 2683W        W20887   1.706  18.883  10.895  0.2831 -0.0249  0.1874
 2684W        W20888  17.174  14.791  11.402  0.2346  0.2005  0.2329
 2685W        W20889   3.907   9.466   2.663 -0.0400  0.2787 -0.2016
 2686W        W20890  11.792   5.491   0.383 -0.0810 -0.2071 -0.0080
 2687W        W20891   2.083   5.215  11.412 -0.0335 -0.1544  0.0163
 2688W        W20892   6.389   5.985  12.287  0.0398  0.2049  0.0589
 2689W        W20893   2.158   6.338   1.643  0.1573 -0.0261  0.4460
 2690W        W20894  10.023   7.448  14.725  0.0154 -0.1055  0.0011
 2691W        W20895   1.661   3.356   1.403  0.0283 -0.0581 -0.1784
 2692W        W20896  15.522   5.046   2.913 -0.0217  0.2660 -0.0540
 2693W        W20897   4.365  16.806  13.561 -0.1996 -0.3383 -0.3367
 2694W        W20898  11.650  12.102   9.798  0.0922 -0.2318  0.0238
 2695W        W20899   9.315  11.985  13.352  0.1952  0.0126 -0.0436
 2696W        W20900   5.807   1.552   4.402  0.0453  0.0868  0.1016
 2697W        W20901   8.743  17.133   2.646  0.1798  0.2422  0.1758
 2698W        W20902   3.156   1.156   4.731 -0.1120  0.0484  0.2668
 2699W        W20903  16.853   2.006   1.107 -0.2777 -0.2424  0.1002
 2700W        W20904   3.800  12.047  10.654 -0.1543 -0.0933 -0.1446
 2701W        W20905  16.118  16.262  13.014  0.0734 -0.0063 -0.0557
 2702W        W20906  12.781   3.065  12.140 -0.1254  0.7991 -0.0718
 2703W        W20907   9.701  17.103   4.065  0.2280 -0.3053  0.0277
 2704W        W20908   3.100   5.699   2.558  0.3185  0.1339 -0.0137
 2705W        W20909  13.126  17.646  11.051  0.0479  0.0853  0.1932
 2706W        W20910  13.967  17.991   0.498 -0.1357 -0.0814 -0.0930
 2707W        W20911   1.808   3.215   2.342  0.0732  0.1709  0.1941
 2708W        W20912  15.784  17.160   9.981 -0.2339  0.0577 -0.4703
 2709W        W20913   2.771  18.111  10.733 -0.1224  0.1064 -0.1175
 2710W        W20914  14.132   8.339  12.073  0.2682  0.0599 -0.2203
 2711W        W20915   6.460   7.524  13.334 -0.0850 -0.1127 -0.3720
 2712W        W20916  18.697  11.619   4.373 -0.0053  0.0166  0.0422
 2713W        W20917   8.092  17.327   4.657 -0.0954  0.1557 -0.2403
 2714W        W20918   9.345  18.712  11.698 -0.2597 -0.0178 -0.0007
 2715W        W20919   6.254  16.482   2.150 -0.1063 -0.1721  0.0308
 2716W        W20920  15.209  13.707  12.757  0.0598 -0.0845 -0.3291
 2717W        W20921  14.012  16.367   2.353  0.0744 -0.2000  0.0588
 2718W        W20922   9.134   4.634   4.056 -0.0216 -0.0105  0.1830
 2719W        W20923   4.932   8.993   4.344  0.0300  0.1530  0.0115
 2720W        W20924  17.962   2.613   2.539  0.0270  0.0731  0.2764
 2721W        W20925  16.484  11.672  10.769 -0.2317  0.2364  0.6548
 2722W        W20926   3.230   2.793   0.096 -0.2488 -0.0816 -0.1336
 2723W        W20927  18.060  15.925   4.672  0.2401 -0.2160 -0.1603
 2724W        W20928   0.805   8.517  13.872  0.0187 -0.0798  0.1720
 2725W        W20929   0.007   1.284  14.200  0.0480  0.0461 -0.0052
 2726W        W20930  16.093  11.365  14.940 -0.1116  0.0296 -0.4481
 2727W        W20931  10.990   4.527   1.488 -0.0161  0.0909 -0.1471
 2728W        W20932   6.191  10.895   0.864  0.1119  0.0502 -0.0587
 2729W        W20933  16.404  10.461   1.623 -0.0290  0.2791  0.1826
 2730W        W20934  10.394  12.211   0.150  0.0123 -0.1967 -0.1069
 2731W        W20935   6.840  18.649   3.163 -0.0270 -0.0286 -0.0842
 2732W        W20936  15.724  12.688   2.968  0.3676  0.0132  0.0627
 2733W        W20937   4.889   4.333  12.883 -0.1615 -0.1528  0.3276
 2734W        W20938  18.158   8.401   4.163 -0.4848  0.0727 -0.1040
 2735W        W20939   2.889   3.534   0.190 -0.1125 -0.0848  0.1165
 2736W        W20940   5.238  15.490   2.122 -0.3349 -0.0174  0.3264
 2737W        W20941   2.887  18.821   3.215 -0.1603 -0.2192  0.1464
 2738W        W20942   4.836  14.613   9.594  0.3938  0.1014 -0.0005
 2739W        W20943   3.248  13.806  11.837 -0.2039 -0.0889  0.0201
 2740W        W20944   1.007   9.749  12.062 -0.1534 -0.0807  0.3758
 2741W        W20945   5.626   9.899  14.420  0.0258 -0.3594  0.2748
 2742W        W20946   5.203  10.070   0.094 -0.3125  0.0200  0.0427
 2743W        W20947  10.090  14.465  13.938 -0.1928 -0.0103  0.0196
 2744W        W20948  12.264   1.601   4.271  0.1363  0.0934 -0.0409
 2745W        W20949  14.020  13.107  13.029 -0.3730  0.1134  0.1981
 2746W        W20950  13.986   2.973  13.010 -0.0042 -0.0969  0.0043
 2747W        W20951  10.430   4.026  14.276  0.4498  0.1214  0.0035
 2748W        W20952  10.928   4.426  14.925 -0.0705  0.1504 -0.4686
 2749W        W20953   9.977   6.815  13.113 -0.2721  0.3443 -0.0293
 2750W        W20954   7.584  14.086  14.912 -0.0842 -0.3270 -0.5477
 2751W        W20955  14.176  12.798  14.502 -0.1138  0.2525 -0.0886
 2752W        W20956  14.262  11.469   4.648  0.1556 -0.4064 -0.4650
 2753W        W20957   3.570  16.162  14.596 -0.0810  0.0051 -0.2891
 2754W        W20958   2.484   8.858   0.519  0.0576  0.3011  0.3879
 2755W        W20959   9.980  16.603  13.661  0.1546  0.3242 -0.2402
 2756W        W20960   7.936  16.288   1.243  0.1521  0.0799  0.0884
 2757W        W20961   1.874  14.492   1.438 -0.1790 -0.2668 -0.3494
 2758W        W20962  14.922  12.842   1.047  0.3986 -0.1229  0.0426
 2759W        W20963  16.452  10.442   5.040  0.4122  0.0533 -0.0345
 2760W        W20964  18.409   0.556   0.272  0.0237 -0.0471  0.1690
 2761W        W20965  11.081   6.074  11.345 -0.0554 -0.3174 -0.1801
 2762W        W20966   7.779   0.364   4.425 -0.0108  0.1006  0.2367
 2763W        W20967   7.511  10.442   1.089  0.0148  0.0514 -0.0042
 2764W        W20968   2.298   6.190  10.944  0.0296  0.1479  0.1954
 2765W        W20969   5.785   9.788  12.948  0.4280  0.0896 -0.2719
 2766W        W20970   6.736   2.456  14.693  0.0435  0.1638 -0.1993
 2767W        W20971   7.326  18.373  11.234  0.1548  0.0371  0.1492
 2768W        W20972  10.698   6.556   2.604  0.2600 -0.0077 -0.0207
 2769W        W20973  15.396   8.388  13.484  0.0723  0.3103  0.1928
 2770W        W20974   2.468  16.753   1.623 -0.3385 -0.0708 -0.0932
 2771W        W20975  15.387   3.834  12.431  0.1690  0.0322 -0.3885
 2772W        W20976   1.194  15.055   0.743  0.0694  0.2899 -0.1802
 2773W        W20977   0.462  13.950   2.064  0.2412 -0.0749 -0.3185
 2774W        W20978  14.821   6.461   3.342 -0.1705  0.0017  0.3754
 2775W        W20979  13.996   1.864  12.163 -0.0836 -0.0828 -0.1069
 2776W        W20980   8.447   5.238  13.172  0.0841  0.0136  0.0127
 2777W        W20981  11.178   6.918  10.712  0.2021 -0.3292 -0.1693
 2778W        W20982  15.005   7.444   3.883 -0.4714  0.2476 -0.1965
 2779W        W20983   2.842  11.777  14.450 -0.3379  0.1547 -0.1102
 2780W        W20984  14.369   8.864   3.939 -0.0146  0.2310 -0.0709
 2781W        W20985  13.692   8.149   4.121  0.3506  0.0238  0.0708
 2782W        W20986   4.294  12.386   2.676 -0.2544 -0.1513 -0.1323
 2783W        W20987   4.747   3.190  13.732 -0.0581  0.0705  0.1849
 2784W        W20988  14.762  10.242   0.089 -0.0780  0.1118 -0.1123
 2785W        W20989  14.432  10.387  14.710 -0.3936 -0.0458  0.3054
 2786W        W20990   8.451  16.435   3.254  0.0715 -0.1268  0.3847
 2787W        W20991   1.959  14.192   0.184 -0.0860 -0.1521  0.2046
 2788W        W20992   5.393  10.422   2.561 -0.3220  0.1923  0.0981
 2789W        W20993   7.286  18.683   3.729 -0.0686 -0.0002  0.0402
 2790W        W20994   5.652  11.630   1.158 -0.2799  0.3821 -0.1612
 2791W        W20995  17.162   8.480  13.305 -0.0079 -0.1259  0.0331
 2792W        W20996   2.175  13.223   2.851 -0.1243 -0.3091  0.3179
 2793W        W20997   7.549   1.578   1.930  0.2460 -0.0287 -0.2362
 2794W        W20998  18.167  16.635  10.947  0.1629 -0.1544 -0.1038
 2795W        W20999  11.393   2.573   1.932 -0.0445 -0.0004  0.2601
 2796W        W21000   2.335   4.053  11.042 -0.3088 -0.0754  0.0155
 2797W        W21001   2.674  12.102  14.062 -0.3105  0.0875 -0.2278
 2798W        W21002  15.540   3.418  14.805  0.2612 -0.0815 -0.2849
 2799W        W21003   1.747   6.216  12.836  0.0404 -0.1664  0.2120
 2800W        W21004   6.574   2.422   1.458  0.1216 -0.0551  0.0316
 2801W        W21005   2.547  14.311  14.479 -0.0580 -0.1256 -0.4562
 2802W        W21006   2.045   2.993   0.578 -0.1006  0.0236 -0.1952
 2803W        W21007  15.137  16.946  14.388 -0.0101 -0.1661 -0.1505
 2804W        W21008   9.419   5.746  13.747 -0.3445 -0.1228 -0.0466
 2805W        W21009  10.554   2.899   1.582  0.1236  0.1091  0.0065
 2806W        W21010  14.174   0.241  12.574  0.2955 -0.2231 -0.2505
 2807W        W21011  17.732  11.125  10.825  0.1779 -0.4361 -0.1928
 2808W        W21012  14.057   3.699  13.836  0.2545  0.1021 -0.2089
 2809W        W21013   4.282  11.185   1.201  0.0847 -0.4545  0.0769
 2810W        W21014  14.027   4.698  12.340  0.1481  0.4163 -0.2452
 2811W        W21015  14.077   4.071  10.164 -0.2172 -0.1868  0.0043
 2812W        W21016  15.137  11.614   3.711 -0.1133  0.0679 -0.2257
 2813W        W21017   4.600   8.597   4.912 -0.0520 -0.1557 -0.0155
 2814W        W21018  15.195  17.754  10.493 -0.1831  0.4766 -0.1456
 2815W        W21019  15.670  16.183   2.665 -0.0086 -0.1466 -0.1118
 2816W        W21020   4.748  12.428   3.622 -0.1367  0.1640 -0.0868
 2817W        W21021  16.020   2.426  11.164  0.0147 -0.0466  0.1038
 2818W        W21022  14.835  18.868   2.117  0.4657 -0.4776  0.0941
 2819W        W21023  16.550  11.076  13.486  0.3243  0.0738  0.0774
 2820W        W21024   5.384   2.914   3.805 -0.1981 -0.3480 -0.4384
 2821W        W21025   8.010  10.647  14.654 -0.2507  0.0744 -0.0054
 2822W        W21026   6.670   5.320   3.888 -0.2596 -0.2509  0.2900
 2823W        W21027   6.123  11.277  14.904 -0.0150 -0.1041  0.1378
 2824W        W21028  14.413   4.763  11.233 -0.2572  0.1040 -0.0168
 2825W        W21029  16.979  12.723   1.100  0.0516 -0.2782  0.3800
 2826W        W21030   7.077  13.837  13.846  0.0441 -0.0606 -0.0115
 2827W        W21031  13.950  13.541  12.217 -0.0274 -0.3011  0.0598
 2828W        W21032  17.457  11.387   5.674 -0.2317  0.1521  0.2962
 2829W        W21033   7.807  18.514   4.851 -0.4125  0.0898 -0.0528
 2830W        W21034  13.734  17.035  10.338 -0.0496 -0.2160 -0.0108
 2831W        W21035  15.305  11.907  13.924  0.2662  0.1950 -0.1048
 2832W        W21036  18.147  10.915   0.966  0.2452  0.2686 -0.1847
 2833W        W21037   4.936  13.846   2.901 -0.3035  0.0641 -0.1067
 2834W        W21038  14.920  12.731   3.006  0.0192  0.1702  0.6331
 2835W        W21039  15.224  18.782  10.304 -0.3382 -0.1569 -0.0308
 2836W        W21040  16.826   9.418  14.098 -0.2616  0.0538  0.0679
 2837W        W21041   8.894  16.344   2.379  0.0128 -0.0454 -0.0820
 2838W        W21042   4.724  14.445   3.297  0.2558  0.2798  0.2218
 2839W        W21043   2.720  12.995   4.882  0.0615  0.1369 -0.0577
 2840W        W21044   8.329  18.226  12.919  0.1468 -0.0124 -0.1372
 2841W        W21045   0.434   3.684   1.226  0.0089 -0.1813  0.2869
 2842W        W21046   0.441   8.280   4.517 -0.3709 -0.2537  0.2034
 2843W        W21047  15.394  18.927  14.981  0.1613 -0.0469 -0.1401
 2844W        W21048   9.889   4.477   1.720  0.0448 -0.1885 -0.0188
 2845W        W21049  14.914  14.121   5.402 -0.3972 -0.1800  0.1390
 2846W        W21050   4.121   4.862  14.515 -0.2407 -0.1295  0.0970
 2847W        W21051   8.481  12.531   0.473  0.2143  0.0336  0.2395
 2848W        W21052   4.793   4.026   3.585  0.2469 -0.0457  0.1451
 2849W        W21053   6.928  18.066  13.063 -0.0912 -0.0082  0.0141
 2850W        W21054   8.945  16.349   0.767  0.0924 -0.0918  0.4345
 2851W        W21055   8.125   5.741   5.058  0.2495  0.3109 -0.3247
 2852W        W21056   1.689   4.261   0.121 -0.0470 -0.0333 -0.2494
 2853W        W21057   3.359   8.241   1.900 -0.0973 -0.0804 -0.0353
 2854W        W21058  12.676  10.580   3.925  0.1196  0.0109  0.1171
 2855W        W21059   8.642  13.840   1.715  0.1315  0.2016 -0.1836
 2856W        W21060   5.632   3.716   0.466  0.0225  0.0551  0.1896
 2857W        W21061  13.970  18.637  14.981 -0.1681 -0.1730 -0.1249
 2858W        W21062   6.478   6.337  12.636  0.1129  0.1122 -0.2348
 2859W        W21063  11.306  11.080  13.199 -0.1002  0.0210 -0.0378
 2860W        W21064  14.691  17.798  13.849 -0.1254 -0.2229  0.0808
 2861W        W21065   1.708  14.971   2.848  0.0206  0.0850  0.0724
 2862W        W21066   0.613  16.679   3.242 -0.1221 -0.0208  0.1715
 2863W        W21067   0.562   9.493   4.038  0.0612  0.1161 -0.2550
 2864W        W21068   9.136   8.812  14.706 -0.0128  0.2350  0.0677
 2865W        W21069   0.621   1.961  14.316 -0.0780 -0.1076 -0.2451
 2866W        W21070   9.957  16.873  11.933  0.1865  0.0050 -0.0963
 2867W        W21071   3.739  17.096   4.534 -0.0781 -0.2352  0.0789
 2868W        W21072  14.812   5.385  14.731  0.2416  0.0796 -0.1641
 2869W        W21073   3.032  14.951   2.318  0.0413 -0.1918  0.3957
 2870W        W21074  13.845   7.750   3.328  0.0546 -0.0516  0.0304
 2871W        W21075  18.907  14.842   2.395  0.1967  0.0624  0.0147
 2872W        W21076   3.274  15.837   2.090  0.7328 -0.0137 -0.0382
 2873W        W21077   9.862  10.366   3.929 -0.2962  0.4039 -0.1669
 2874W        W21078  10.295   0.546   1.928  0.0272  0.1332 -0.2643
 2875W        W21079  14.023  13.181   9.798 -0.3530 -0.2294 -0.3811
 2876W        W21080  12.296   5.574   3.983 -0.1056 -0.3197 -0.1213
 2877W        W21081  13.924   5.045   1.701  0.1639 -0.1276  0.1191
 2878W        W21082  13.020   9.591   5.226  0.2598  0.2476  0.2951
 2879W        W21083  12.579   3.341  11.578 -0.0151 -0.0762  0.0596
 2880W        W21084   5.696   7.730   2.495  0.3192  0.0922 -0.1232
 2881W        W21085  12.743   3.767  13.288  0.1260  0.0925  0.1119
 2882W        W21086   0.596   0.012  12.875 -0.0105 -0.3300  0.0462
 2883W        W21087  14.003  16.738   0.118  0.0672 -0.2814 -0.5891
 2884W        W21088   5.648   9.767   3.079 -0.0281 -0.3352  0.3299
 2885W        W21089   5.948  12.431  13.324 -0.2559 -0.0451 -0.0610
 2886W        W21090   9.920   9.774  12.421 -0.0318  0.0505  0.1658
 2887W        W21091  17.952  15.942  13.327  0.1932  0.0344 -0.2059
 2888W        W21092   1.234  17.425   3.401  0.1808 -0.1384 -0.1988
 2889W        W21093  17.379   7.439   3.129 -0.1528  0.1696  0.0835
 2890W        W21094  16.428  13.844   1.505 -0.0052 -0.1975 -0.2743
 2891W        W21095   7.427   6.361   5.599  0.3258  0.0259 -0.0839
 2892W        W21096   6.850  12.888   3.353 -0.0829 -0.2599 -0.2677
 2893W        W21097   5.115   0.873  13.920  0.0111 -0.1474  0.0435
 2894W        W21098  11.464  11.410  11.728 -0.1943 -0.2166  0.2311
 2895W        W21099   7.020   8.796   0.638  0.3676 -0.2362 -0.1261
 2896W        W21100  16.513   8.617  14.926  0.1482  0.1720  0.1537
 2897W        W21101  18.166  18.088  12.477 -0.0197 -0.2503 -0.3415
 2898W        W21102   9.952   1.719   1.148 -0.2772 -0.1906 -0.0718
 2899W        W21103  11.780   5.936  10.611 -0.1650 -0.1875 -0.0278
 2900W        W21104   9.164  18.220  13.263  0.2278  0.1248  0.0802
 2901W        W21105   3.176  18.152   1.399 -0.1164 -0.0529  0.2416
 2902W        W21106  17.780  10.536  14.423 -0.1049  0.0968  0.0697
 2903W        W21107  18.186   5.535  11.309 -0.0369 -0.1655  0.0398
 2904W        W21108  12.971  12.996   3.461  0.0438  0.1372  0.1536
 2905W        W21109  14.040   2.989  14.427  0.3004 -0.0297 -0.2195
 2906W        W21110   9.414  10.441  14.569 -0.1362 -0.0077  0.0660
 2907W        W21111   2.203   1.161   1.166 -0.0186  0.3253 -0.1104
 2908W        W21112  14.629  17.075   3.324  0.2297 -0.1209 -0.1139
 2909W        W21113  17.875   6.643  13.892 -0.1303  0.0370  0.0693
 2910W        W21114   6.347  17.931   3.437 -0.2599  0.1056  0.4035
 2911W        W21115  17.601   5.698  10.678 -0.2419  0.3589 -0.0094
 2912W        W21116   7.928  14.277   0.203  0.0989  0.0464 -0.0627
 2913W        W21117  17.564   5.841   0.985  0.0490  0.0634  0.0944
 2914W        W21118   5.105   5.575   0.448 -0.2851 -0.0397 -0.0519
 2915W        W21119  15.381   2.771   1.165 -0.0368  0.0491  0.0433
 2916W        W21120  18.190   7.238   3.095 -0.1715 -0.1948  0.0278
 2917W        W21121  17.286   6.648  12.324 -0.2558  0.0433  0.2648
 2918W        W21122   3.952   7.657   2.829  0.1884  0.1143 -0.3137
 2919W        W21123  15.928  18.751  13.522 -0.1324  0.1994 -0.0018
 2920W        W21124   2.544   3.530  13.355  0.4315  0.0042 -0.0869
 2921W        W21125  10.190   8.445  13.525 -0.1213 -0.0419  0.0855
 2922W        W21126   8.145   9.893   3.945  0.1532  0.1690 -0.0786
 2923W        W21127  10.009   5.053   2.971  0.2450  0.3815  0.1340
 2924W        W21128  10.385   7.610  11.982  0.0818  0.2392  0.4390
 2925W        W21129   3.996   9.825  13.006 -0.3029 -0.3698 -0.0599
 2926W        W21130   4.346   4.949   2.426  0.1416  0.5067  0.2201
 2927W        W21131   2.566  14.663   0.236  0.1813 -0.0654 -0.3041
 2928W        W21132  13.567  12.359   2.292 -0.2944  0.1458 -0.0909
 2929W        W21133  12.776  14.399   2.829 -0.3515 -0.0602 -0.0326
 2930W        W21134   4.507  14.315   2.339  0.1252  0.0862 -0.3578
 2931W        W21135  10.636  12.019   2.854 -0.0435  0.1152 -0.1197
 2932W        W21136  14.614   9.515  13.068  0.3597 -0.1952 -0.1542
 2933W        W21137  18.868  13.038   0.531 -0.1249 -0.0197  0.0422
 2934W        W21138  13.523  10.338  11.400  0.1466  0.1963  0.0587
 2935W        W21139  16.035   0.733   1.292 -0.1599  0.0743  0.0136
 2936W        W21140   6.143  14.700  12.354  0.0966  0.0990  0.0511
 2937W        W21141   9.739  15.620  14.570 -0.0429 -0.1225  0.0504
 2938W        W21142  15.284   2.643  14.546 -0.1890 -0.1836 -0.2160
 2939W        W21143  11.518   3.735  10.439 -0.1244 -0.1683  0.1116
 2940W        W21144   7.086   8.878   2.055 -0.1487  0.0776  0.2039
 2941W        W21145   5.114   6.818   1.100 -0.2459 -0.0209  0.3020
 2942W        W21146   4.874  13.757   4.160  0.1448  0.0210 -0.1619
 2943W        W21147  17.093  11.419  12.916  0.0975  0.0894 -0.0425
 2944W        W21148   4.552   8.413   0.827  0.2042  0.3784  0.1978
 2945W        W21149   4.970   5.554   5.357  0.1143 -0.0030  0.1697
 2946W        W21150   6.170   5.024   9.894  0.2562 -0.1485  0.0812
 2947W        W21151   8.529  14.808  12.504  0.0673 -0.0087 -0.2657
 2948W        W21152   0.492  12.691  13.794 -0.0101  0.1914  0.3071
 2949W        W21153   1.007  18.264   0.885 -0.0809 -0.2690 -0.0228
 2950W        W21154   3.218  16.393   2.822  0.1484 -0.0583 -0.0901
 2951W        W21155  17.292   2.395   3.845  0.1327 -0.4129 -0.1447
 2952W        W21156   1.973  12.182  12.796  0.1417 -0.1261  0.1290
 2953W        W21157   4.809  14.053   0.200 -0.1669  0.0537  0.0306
 2954W        W21158   0.958  15.579   9.082 -0.3371 -0.0877  0.1959
 2955W        W21159   1.535  14.804   1.000 -0.0430  0.2275  0.0670
 2956W        W21160   9.524   6.144  14.860 -0.2931 -0.0748  0.1896
 2957W        W21161  11.909  14.005  13.688 -0.1651 -0.1529 -0.3328
 2958W        W21162  15.509  11.612   9.528  0.0149  0.2986  0.1327
 2959W        W21163  17.252  11.613  11.948  0.1499 -0.0655  0.2615
 2960W        W21164  10.007   7.097  12.448  0.0433  0.1226 -0.0091
 2961W        W21165  17.414  14.954   9.373 -0.3969 -0.2593 -0.1916
 2962W        W21166  11.790   1.508   4.466 -0.0856 -0.1095 -0.0796
 2963W        W21167  18.693  16.356   2.496  0.2524  0.2123  0.3783
 2964W        W21168   1.533  14.648   4.977 -0.0222 -0.1790 -0.4152
 2965W        W21169   8.352   0.235  11.303 -0.2082  0.2428 -0.0727
 2966W        W21170   5.487   1.436  12.793  0.2547  0.0481 -0.0479
 2967W        W21171   7.880  15.705  14.472  0.2277 -0.1936  0.0084
 2968W        W21172   1.930  15.225   1.025 -0.3781  0.1643 -0.1379
 2969W        W21173   8.119   1.557  11.923  0.4027  0.3821 -0.1400
 2970W        W21174   2.735   9.996   4.296  0.1088 -0.2238 -0.2406
 2971W        W21175  11.685   9.729  13.748  0.3475 -0.0940  0.3182
 2972W        W21176  15.235   5.607   1.152 -0.0899 -0.3219  0.2422
 2973W        W21177  12.130  17.713   1.842 -0.1370 -0.1711  0.2330
 2974W        W21178  15.690   5.271   1.325 -0.1249 -0.0684  0.1001
 2975W        W21179   0.812   3.861   3.803 -0.5118  0.0757  0.0403
 2976W        W21180  13.498   6.154   3.796 -0.3826 -0.0680 -0.0636
 2977W        W21181  13.040  10.906  14.822 -0.3802 -0.3628  0.0149
 2978W        W21182   8.071   3.463   1.798 -0.0219 -0.4237  0.2791
 2979W        W21183   9.069   7.019   0.666  0.0617 -0.0495  0.0557
 2980W        W21184   2.356  11.843  12.720 -0.1295 -0.4122 -0.0933
 2981W        W21185  10.947   9.539   2.031 -0.4287  0.0598 -0.1897
 2982W        W21186  12.484  11.869  14.478  0.3211  0.0777  0.2576
 2983W        W21187   9.144  16.838  12.379  0.4262  0.1359 -0.0956
 2984W        W21188   0.431  11.349   3.253 -0.1869 -0.2461 -0.0509
 2985W        W21189  16.980  17.181   3.312 -0.0705  0.5956 -0.2383
 2986W        W21190  16.543   5.259  13.653  0.0055  0.0924 -0.2450
 2987W        W21191  16.173   2.028   0.245 -0.0644  0.0783 -0.0598
 2988W        W21192   3.762   5.617   4.588  0.0503  0.0984  0.0547
 2989W        W21193  10.191   3.762   4.500  0.2991 -0.2029 -0.0854
 2990W        W21194   0.157  13.575  10.376  0.0341 -0.1626 -0.1802
 2991W        W21195  15.234  17.193  11.066 -0.0763 -0.1098 -0.2085
 2992W        W21196   5.347  15.273   5.075  0.0058  0.2837  0.0446
 2993W        W21197  16.350  14.524  13.129 -0.0410 -0.2463  0.3104
 2994W        W21198  13.543   3.810  14.503 -0.0105 -0.1802  0.3713
 2995W        W21199   9.183  17.195  11.912  0.2739 -0.4300  0.0439
 2996W        W21200   1.039  15.413  10.371 -0.0989 -0.5386  0.0768
 2997W        W21201  13.582   8.180   2.320  0.0602  0.1835 -0.0757
 2998W        W21202   2.317   0.080  11.554  0.2396  0.1029 -0.2701
 2999W        W21203   6.227  12.285   1.559 -0.3851 -0.3948 -0.0461
 3000W        W21204  16.880  13.765  14.298  0.2913  0.1166 -0.1082
 3001W        W21205  10.215   0.408  14.240 -0.0174 -0.1666  0.0376
 3002W        W21206   3.890  18.549  13.085  0.3356  0.1243  0.1418
 3003W        W21207   8.832   8.904   4.955  0.2408 -0.2904  0.0544
 3004W        W21208  16.669  15.132   0.997 -0.0880 -0.1787  0.1211
 3005W        W21209   8.159  17.380  11.359  0.1073 -0.0378 -0.0035
 3006W        W21210   8.517   4.449   1.879 -0.1088 -0.0799 -0.0732
 3007W        W21211   6.154   0.601   0.049  0.3374 -0.1091  0.1851
 3008W        W21212  10.838   0.211   3.853  0.2983  0.2012 -0.0463
 3009W        W21213  14.733  11.349  11.698  0.1141  0.0378  0.1680
 3010W        W21214  17.271   8.182   3.079 -0.3880  0.2954 -0.0368
 3011W        W21215   2.404  18.720  14.414 -0.0500 -0.2373 -0.0696
 3012W        W21216  16.363   3.634   0.099  0.0402 -0.0264 -0.1042
 3013W        W21217  12.616   9.200  12.170 -0.0227 -0.0511  0.1231
 3014W        W21218   9.153   6.977   2.292  0.2740 -0.1042  0.0641
 3015W        W21219   1.173  16.613  13.465 -0.2809  0.2521  0.1418
 3016W        W21220  12.257   8.689   4.143 -0.3028  0.0001  0.1504
 3017W        W21221   2.377  13.749   2.114 -0.0149  0.0675  0.2064
 3018W        W21222   7.973  14.430   4.615  0.4360  0.2227  0.2825
 3019W        W21223  14.568   9.790  12.302  0.1177 -0.1576 -0.0225
 3020W        W21224   9.287   6.320   3.374 -0.2679 -0.1122  0.0017
 3021W        W21225  15.845   6.913   4.842 -0.2577 -0.1551 -0.0156
 3022W        W21226   7.537   1.317  10.584  0.1386  0.2269  0.1297
 3023W        W21227   5.732  16.962  11.880  0.1357  0.2430 -0.0891
 3024W        W21228  12.908   0.521   2.617 -0.0178 -0.1635  0.0603
 3025W        W21229   7.882   0.003  13.553  0.0691  0.0461 -0.0200
 3026W        W21230   4.520  16.293  12.834  0.0668 -0.2216 -0.2695
 3027W        W21231  11.984   4.083   1.871 -0.0139  0.0675 -0.0882
 3028W        W21232  18.500  18.792  13.232  0.0786 -0.2772  0.3243
 3029W        W21233  15.186  16.314  12.804  0.3163 -0.0333  0.0727
 3030W        W21234   2.351  18.573  11.467  0.2941 -0.2099 -0.0534
 3031W        W21235  17.082   0.135  13.685  0.0825  0.0923  0.0920
 3032W        W21236   7.269   4.966  13.735 -0.0556  0.0423  0.2092
 3033W        W21237  16.707  11.990   5.474  0.1181 -0.0999 -0.0242
 3034W        W21238  10.916   2.985   0.496 -0.2618  0.0265 -0.0490
 3035W        W21239  12.149  18.519   9.220  0.2084 -0.1062 -0.1120
 3036W        W21240   7.733   6.154  11.360 -0.1611 -0.0826 -0.0274
 3037W        W21241  17.685   1.036   4.109  0.2176  0.0983 -0.0000
 3038W        W21242   4.209   6.965  13.527  0.0556  0.0912  0.0163
 3039W        W21243   8.655  13.575   2.962  0.0723 -0.0342  0.1417
 3040W        W21244   6.603  18.398   3.629 -0.2596 -0.1450  0.1561
 3041W        W21245   5.658  13.790   0.593 -0.2924  0.1327  0.0447
 3042W        W21246   3.970  10.491  12.076 -0.3684 -0.1840 -0.0373
 3043W        W21247   0.811   0.812   0.255 -0.1354 -0.2409  0.0062
 3044W        W21248  12.553  12.060   1.975  0.1290  0.1901  0.2043
 3045W        W21249   6.306   5.633   4.292  0.1576  0.1843  0.0563
 3046W        W21250   8.595   4.603   0.910  0.1711 -0.1390  0.1504
 3047W        W21251  11.819   9.407  14.989  0.2196  0.0728 -0.2213
 3048W        W21252  13.076  18.063  13.023 -0.2645  0.0884 -0.2016
 3049W        W21253   4.502  10.035  12.765 -0.1446  0.0585  0.0756
 3050W        W21254   0.071   4.008  12.986 -0.0355  0.2042 -0.4060
 3051W        W21255   8.141  14.968  14.448  0.2613 -0.1455 -0.2461
 3052W        W21256   3.449  12.518  13.784  0.1034  0.0880 -0.0059
 3053W        W21257  14.242   8.453  12.983  0.4392  0.0155  0.0941
 3054W        W21258  14.104  15.068   2.418  0.1511  0.0507 -0.1962
 3055W        W21259   2.052   0.229   2.181 -0.0013 -0.1753  0.3042
 3056W        W21260  13.166   2.657  12.431 -0.0327 -0.0935  0.1551
 3057W        W21261   0.759  14.967  12.237 -0.0074  0.0152  0.0579
 3058W        W21262   7.985  17.749  14.332  0.0546 -0.3528  0.0982
 3059W        W21263   9.227   1.139  13.173  0.1089  0.2476  0.0850
 3060W        W21264  17.230   5.887   4.378 -0.1303  0.1575  0.1593
 3061W        W21265  16.395  18.465   2.864 -0.1147 -0.3619  0.2963
 3062W        W21266   0.044  14.863  13.332 -0.2837 -0.1161  0.2054
 3063W        W21267  12.763   6.802  13.672 -0.0373  0.4892  0.1325
 3064W        W21268   6.817   8.267   4.369 -0.0112  0.1939 -0.1972
 3065W        W21269   0.608   6.745   3.399 -0.0073  0.0825  0.2298
 3066W        W21270  10.219   1.071   3.842  0.2434  0.0712 -0.0593
 3067W        W21271  12.096   3.443   4.363 -0.0230  0.0949  0.3200
 3068W        W21272   6.551  15.743   2.175 -0.3190 -0.0696 -0.0729
 3069W        W21273  15.359   4.306   4.665  0.0637 -0.0964 -0.1179
 3070W        W21274   3.707   2.325  13.274  0.0672  0.2464  0.1222
 3071W        W21275  17.523  11.876   1.741  0.0921 -0.0551  0.1934
 3072W        W21276   8.503  17.672  13.046 -0.0596  0.2437 -0.1018
 3073W        W21277   5.113   4.596  13.902  0.0621  0.2012  0.1157
 3074W        W21278  14.958  15.233   0.246 -0.1514  0.3215  0.2940
 3075W        W21279   4.822  12.410  11.596  0.2325 -0.1125 -0.0360
 3076W        W21280   0.498   1.329   0.163 -0.0035  0.1040 -0.2516
 3077W        W21281   6.746  12.658  14.100  0.0327 -0.2477  0.1665
 3078W        W21282   8.813   1.674  14.111 -0.1503  0.1093  0.0795
 3079W        W21283   5.638   2.557  10.886  0.0182 -0.2454 -0.0833
 3080W        W21284  11.417  10.347   1.201 -0.2035 -0.2269  0.0059
 3081W        W21285  11.179   5.201  11.835 -0.3426 -0.0940  0.1069
 3082W        W21286   9.625   8.125  10.783  0.3907  0.0290  0.2195
 3083W        W21287   3.098  11.008  10.967 -0.0362  0.2623  0.1719
 3084W        W21288   5.481  12.094   4.012 -0.0425 -0.2971  0.2011
 3085W        W21289   3.105   4.651   4.251 -0.1015  0.0526  0.0214
 3086W        W21290   9.545   7.936   0.303  0.5309  0.1005  0.1833
 3087W        W21291   1.001  17.310   2.952 -0.0092  0.0931  0.0117
 3088W        W21292   5.245   4.455  12.573 -0.0633  0.0912  0.0610
 3089W        W21293  11.429   8.630  10.666  0.1089  0.1579 -0.0457
 3090W        W21294   3.303  18.144  10.906  0.4353  0.1892  0.1120
 3091W        W21295  15.366  12.138   1.802  0.0923  0.0148 -0.2898
 3092W        W21296  10.949  12.185   1.956 -0.1049 -0.0612 -0.2608
 3093W        W21297   3.528   6.249   4.606 -0.1809 -0.1661  0.0227
 3094W        W21298   1.058  10.596   4.734  0.0031 -0.1695 -0.0727
 3095W        W21299  17.571  12.382   4.317  0.0398 -0.1389 -0.0509
 3096W        W21300  11.676   8.837  11.056 -0.0391  0.1330  0.0906
 3097W        W21301  13.871   3.684   0.012  0.2654 -0.2361  0.1164
 3098W        W21302   1.072  15.309   1.510 -0.1686  0.0938 -0.0856
 3099W        W21303   4.535  13.321  13.836 -0.1265 -0.0674 -0.0688
 3100W        W21304  15.035   1.109  12.777 -0.3533 -0.3275  0.4520
 3101W        W21305  15.319   5.754  12.263  0.1593  0.0879  0.1211
 3102W        W21306   1.842  13.226   2.298  0.0745  0.2065  0.1746
 3103W        W21307   4.332   1.728   3.382  0.1854  0.0219 -0.1799
 3104W        W21308   6.917  16.017   1.182  0.1353  0.0729 -0.1228
 3105W        W21309  18.296   7.475  12.005  0.0668  0.2858  0.0602
 3106W        W21310  15.925   2.427  10.653 -0.0187 -0.3050  0.0067
 3107W        W21311  16.892  13.169  13.568 -0.1214 -0.2835  0.0103
 3108W        W21312  16.328   8.232  11.677 -0.0306  0.2882 -0.1732
 3109W        W21313   7.960  15.713  11.531 -0.0343  0.0565 -0.0431
 3110W        W21314   7.442  10.179  13.882 -0.3111  0.1459  0.1957
 3111W        W21315   6.892   1.144   1.223 -0.1863  0.0512  0.2738
 3112W        W21316   3.365   2.383  12.449  0.1143 -0.2056 -0.2865
 3113W        W21317  13.226   3.165  12.417 -0.1948  0.0079 -0.1911
 3114W        W21318   5.212   4.324   3.838 -0.1838 -0.1413 -0.3264
 3115W        W21319   7.377   8.941  12.565 -0.1469 -0.4182 -0.0499
 3116W        W21320  15.737   3.601   0.916  0.2041 -0.1791  0.1282
 3117W        W21321   8.904  12.041   1.539 -0.0201  0.2058  0.0912
 3118W        W21322  13.580  15.932   0.247 -0.3374  0.0634 -0.0397
 3119W        W21323   9.126  14.439  13.141  0.3036 -0.2850  0.2280
 3120W        W21324  12.621   7.866   2.477  0.0623 -0.1377  0.3497
 3121W        W21325  18.697   9.779   0.893 -0.0292  0.1773 -0.0017
 3122W        W21326   6.812   7.873  13.360  0.1360 -0.3896 -0.2712
 3123W        W21327   2.715  17.865   5.766  0.2490  0.1121  0.1791
 3124W        W21328  13.746  14.141   0.376 -0.1172 -0.5050  0.1215
 3125W        W21329  17.597   6.884  13.261 -0.1234 -0.3112  0.0239
 3126W        W21330  18.164   1.246   4.396  0.0037 -0.3823  0.0679
 3127W        W21331   4.158   4.907   4.329  0.0904 -0.0453  0.1750
 3128W        W21332   8.168  15.966   2.113  0.1381  0.2573 -0.0495
 3129W        W21333   1.029   5.514  14.101  0.0622 -0.2825  0.0694
 3130W        W21334  16.833   7.311   3.055 -0.1520 -0.0635 -0.0667
 3131W        W21335  10.101  15.450   5.268 -0.1412  0.0558 -0.2923
 3132W        W21336   8.526  17.019   1.685 -0.1310  0.2019  0.0375
 3133W        W21337  16.488   5.994  14.443  0.0459  0.0409  0.2621
 3134W        W21338   2.056   2.118   3.785 -0.0463 -0.0289 -0.2224
 3135W        W21339  12.903   7.963   4.319  0.2247 -0.2089 -0.1988
 3136W        W21340  15.518  16.348   5.415  0.2871  0.0361 -0.3808
 3137W        W21341  11.899   9.710   0.398 -0.0066 -0.0156  0.0657
 3138W        W21342   1.007  10.201  14.798 -0.0213  0.0451 -0.2507
 3139W        W21343   0.059   7.519   4.519 -0.0620 -0.0566  0.0645
 3140W        W21344   5.662  12.117   3.085  0.3346 -0.0840  0.1454
 3141W        W21345   1.693  15.562  11.724  0.0142 -0.1761 -0.1209
 3142W        W21346  14.470  17.610   0.639 -0.0208 -0.1149 -0.1627
 3143W        W21347  11.294   3.740   4.041 -0.1372  0.0691 -0.1786
 3144W        W21348   4.507   3.190   1.391  0.3424  0.1342  0.1076
 3145W        W21349  18.045   4.085   2.506  0.1461 -0.1451 -0.2714
 3146W        W21350   0.160  17.046  12.608  0.0205 -0.0534  0.1364
 3147W        W21351   6.468   7.238   1.016  0.1589  0.2182 -0.1960
 3148W        W21352  12.306  10.691   1.292 -0.1693  0.1406 -0.0820
 3149W        W21353  15.037   1.469  10.489 -0.0127 -0.2342 -0.0555
 3150W        W21354   2.519   7.884  14.853  0.0573 -0.4291  0.1822
 3151W        W21355  12.198  15.161   0.048 -0.2523  0.0392 -0.2118
 3152W        W21356  18.233   4.615   3.720  0.0366 -0.2966  0.2140
 3153W        W21357  12.873  14.817  14.197  0.2420  0.1088  0.1176
 3154W        W21358  11.335   3.936   3.541 -0.1680 -0.0890  0.1260
 3155W        W21359  13.398   2.275  11.045  0.0145 -0.0711  0.1808
 3156W        W21360   3.495  14.915   4.371 -0.6442  0.1585  0.0877
 3157W        W21361  16.153  11.345  13.049 -0.2546 -0.1194 -0.1759
 3158W        W21362   8.749   6.059  13.035  0.1109 -0.0793  0.1106
 3159W        W21363   5.484   0.693  10.589  0.0643  0.1324  0.3211
 3160W        W21364   8.970  15.003   2.023 -0.1240 -0.1669 -0.1390
 3161W        W21365  11.013   1.574   2.489 -0.1868 -0.4803 -0.1584
 3162W        W21366  15.874   4.494   3.941  0.1305 -0.0126  0.1496
 3163W        W21367   3.573   9.151   2.816 -0.0210 -0.0230  0.0613
 3164W        W21368  13.023   2.967  11.042  0.1142 -0.0049 -0.3587
 3165W        W21369  16.891  17.340   0.775 -0.1299  0.1859 -0.0154
 3166W        W21370   5.289   2.988   3.251 -0.0808 -0.1322 -0.0471
 3167W        W21371   1.510   5.968  12.019 -0.0317  0.0839 -0.2076
 3168W        W21372  16.010   6.153  10.111  0.2139 -0.0059  0.1769
 3169W        W21373  17.139  18.866   1.419  0.1071 -0.0713 -0.1221
 3170W        W21374  11.392   9.811  10.181 -0.5262  0.0966 -0.1417
 3171W        W21375   6.726   0.415   4.361  0.2391  0.3085 -0.0914
 3172W        W21376   2.182  13.074   4.393 -0.2192 -0.2311 -0.1600
 3173W        W21377   6.726   0.604  13.294 -0.1811  0.1486 -0.4093
 3174W        W21378   9.667  11.474   2.801  0.3529  0.0208  0.0261
 3175W        W21379   2.372  12.510  12.618  0.1681  0.2689 -0.6020
 3176W        W21380   1.277  12.569   0.808  0.0936  0.1875 -0.3516
 3177W        W21381   8.038  13.273  12.191  0.2857 -0.2670 -0.0612
 3178W        W21382   7.711   0.920  12.639  0.1234 -0.4221  0.2945
 3179W        W21383   3.677   1.330   3.437 -0.3991  0.2801 -0.0972
 3180W        W21384  15.932   6.986  12.008  0.1656  0.3354  0.3375
 3181W        W21385  12.310  10.392  14.179  0.2969 -0.1635 -0.1894
 3182W        W21386   8.572  13.207  13.178 -0.1815  0.0982 -0.2738
 3183W        W21387  10.115   8.971  11.871  0.2948  0.3270 -0.0853
 3184W        W21388   6.589   1.230   5.851 -0.0333  0.2504 -0.1724
 3185W        W21389  14.336  16.651  13.254 -0.2178 -0.2583 -0.1077
 3186W        W21390   3.922  11.215  12.816 -0.1959 -0.0688 -0.1829
 3187W        W21391   4.415   0.341  10.429  0.0773  0.1427 -0.3178
 3188W        W21392   1.340  10.433   2.697  0.0467  0.0946  0.2710
 3189W        W21393   0.540   6.279   0.802 -0.2961  0.0725  0.4446
 3190W        W21394   9.274  11.166   5.397  0.3067 -0.0687 -0.1378
 3191W        W21395   2.079   3.871   4.721  0.4703 -0.0086  0.0055
 3192W        W21396   7.889  13.669  14.725  0.1433  0.0564  0.2478
 3193W        W21397  12.983  14.380   3.700 -0.0162  0.2128 -0.1621
 3194W        W21398  17.088  17.520  10.475 -0.1257 -0.2669  0.2980
 3195W        W21399   5.455   9.787  11.679 -0.2359 -0.0272 -0.0513
 3196W        W21400  11.179  11.993   3.770  0.0057  0.2107  0.4594
 3197W        W21401  12.965   4.690   1.680  0.1693 -0.4137 -0.2393
 3198W        W21402  11.113   0.984  14.157  0.0077  0.0097  0.0384
 3199W        W21403  14.714  18.690  13.054 -0.0748 -0.1546  0.2456
 3200W        W21404   9.487   9.221  13.928 -0.0387 -0.0246  0.2194
 3201W        W21405  14.088   2.773  10.681 -0.0290  0.1928  0.2747
 3202W        W21406  13.644  15.623  14.246 -0.0099  0.2647  0.2582
 3203W        W21407  13.787   5.348  12.769  0.1458 -0.0741  0.1241
 3204W        W21408  15.390   5.747   0.401 -0.1444  0.0800 -0.1009
 3205W        W21409  11.423   4.376   5.202 -0.0299  0.3283  0.0341
 3206W        W21410   4.612   5.747  13.470 -0.1383 -0.2138  0.2430
 3207W        W21411   5.384  11.192   1.248 -0.0834  0.3297 -0.1355
 3208W        W21412   0.773   7.482  12.032  0.3547 -0.3732  0.0319
 3209W        W21413   1.011   8.708   2.937  0.3013  0.0294 -0.3457
 3210W        W21414  13.754  11.406  13.616  0.2933 -0.2213  0.0428
 3211W        W21415  16.958  18.624  10.498 -0.0023  0.0777  0.0283
 3212W        W21416  16.509   4.741  10.522  0.1403  0.0057  0.0512
 3213W        W21417   1.266  16.322   3.224 -0.1411  0.1290 -0.1151
 3214W        W21418  11.520   2.553  10.696  0.1497  0.0675 -0.0496
 3215W        W21419  17.658   8.453  10.542  0.2049  0.2108 -0.1950
 3216W        W21420  11.133   2.419  10.976  0.2654  0.2905 -0.1167
 3217W        W21421   8.740   1.940   2.474  0.2532  0.4375  0.0639
 3218W        W21422   8.725  15.028   2.500 -0.1244  0.1767  0.1429
 3219W        W21423   2.299   6.206   0.567 -0.0673 -0.4247  0.3028
 3220W        W21424   6.468   9.679  12.837  0.3726 -0.0714 -0.0954
 3221W        W21425  15.125  14.373   3.197 -0.0726 -0.1401 -0.2294
 3222W        W21426   3.727   5.078  14.273  0.4219  0.0385 -0.0599
 3223W        W21427  15.765   4.905   4.195 -0.3593 -0.0537 -0.5413
 3224W        W21428  11.866   7.798   3.762 -0.4397 -0.0189 -0.2225
 3225W        W21429   2.946   3.444  14.174 -0.1810  0.0120  0.0208
 3226W        W21430  11.799   7.896   1.942  0.0232  0.0427 -0.1947
 3227W        W21431   3.475  10.735   1.017 -0.0905 -0.2143  0.2363
 3228W        W21432  18.677   8.098   2.758 -0.0462 -0.0527  0.0120
 3229W        W21433   5.450   8.516  10.396  0.1999 -0.0425 -0.1514
 3230W        W21434  17.273  17.549  11.801  0.1062  0.1783 -0.0352
 3231W        W21435  10.655  16.695   0.992 -0.0329 -0.2799  0.1399
 3232W        W21436   2.141  10.482   1.633  0.3088  0.0014 -0.0350
 3233W        W21437  11.656   0.529   5.398  0.2583  0.0767 -0.0229
 3234W        W21438   3.077   8.672  13.217 -0.0389  0.0081 -0.4150
 3235W        W21439  18.797   6.246   3.593  0.2323  0.0076 -0.2474
 3236W        W21440   2.126  17.174  15.015 -0.0640 -0.0694  0.1212
 3237W        W21441   0.100  18.396  11.767  0.1652 -0.2907  0.2179
 3238W        W21442  15.875  15.444  14.121  0.0983 -0.2241  0.0891
 3239W        W21443   2.771   4.191  14.537 -0.0686  0.1760  0.1810
 3240W        W21444   1.358   9.079  10.971 -0.0470  0.1751  0.2511
 3241W        W21445  17.413   2.080   2.101 -0.1028  0.0781  0.0366
 3242W        W21446  11.335   2.984  12.541 -0.0157  0.0295  0.2377
 3243W        W21447  13.427   1.174   2.791  0.0193  0.0964  0.1740
 3244W        W21448  11.471  17.997   3.679  0.0036  0.1167 -0.2669
 3245W        W21449   1.872   9.489  11.830  0.1969  0.3090  0.2450
 3246W        W21450  14.000   6.297   0.807 -0.3108 -0.1085 -0.4304
 3247W        W21451   8.192   5.199  10.951 -0.3876  0.0671  0.3108
 3248W        W21452  16.710  15.615   0.847  0.4167 -0.1543 -0.0357
 3249W        W21453  15.039  16.608  10.993 -0.0288  0.0622  0.4288
 3250W        W21454  11.665  17.797   4.110 -0.0472  0.1426 -0.1932
 3251W        W21455  15.678  10.672   1.905  0.1629 -0.0987  0.0739
 3252W        W21456   1.278  13.755  13.906  0.2163 -0.0437 -0.0098
 3253W        W21457   6.858   7.847   0.842 -0.0064  0.2292 -0.1256
 3254W        W21458   8.817   7.550   0.658  0.1981  0.0299 -0.0136
 3255W        W21459  17.439   4.765  12.123 -0.0997  0.1103  0.1643
 3256W        W21460  16.874   0.415   2.777 -0.1365  0.1560 -0.1636
 3257W        W21461  14.383   6.860   0.201  0.3133  0.1203 -0.1576
 3258W        W21462   5.698   6.827   4.185  0.0139 -0.0851 -0.2177
 3259W        W21463   7.919   2.605   3.449 -0.1568 -0.2436  0.1322
 3260W        W21464   6.221  11.230  11.853  0.3035  0.3219  0.0025
 3261W        W21465   4.461  11.379  10.974 -0.0074 -0.3343  0.2467
 3262W        W21466  13.676   6.140   1.235 -0.1272  0.0508 -0.1997
 3263W        W21467  15.779  18.409  10.843 -0.0841 -0.1099  0.1210
 3264W        W21468  16.120   0.066   2.209 -0.3336  0.3039  0.0637
 3265W        W21469  10.567  18.444   0.332 -0.2069 -0.4593  0.1279
 3266W        W21470   7.520  17.764   1.417  0.0681  0.0722 -0.1148
 3267W        W21471  12.278   0.416  11.994 -0.1299  0.1406 -0.1159
 3268W        W21472  11.235  17.746   3.290  0.0467 -0.0428  0.0790
 3269W        W21473   8.802  17.247   2.041  0.2164 -0.0241 -0.1466
 3270W        W21474  12.139  11.357   0.124 -0.0672  0.0564 -0.0710
 3271W        W21475  17.703  10.894   0.680 -0.0769  0.5090 -0.3151
 3272W        W21476   0.340   9.191  14.702 -0.2493  0.0588 -0.0412
 3273W        W21477   7.353   1.539  13.258  0.2822 -0.3755  0.0344
 3274W        W21478   4.016  12.160  15.018  0.4402 -0.2818 -0.0430
 3275W        W21479   8.374  15.428   2.390 -0.0771 -0.2125  0.2251
 3276W        W21480   8.177   1.234   0.918 -0.0096  0.1565 -0.3738
 3277W        W21481   7.284   8.373  13.965 -0.2166 -0.2744  0.2097
 3278W        W21482   5.554   1.132   4.555  0.0255 -0.3512  0.0600
 3279W        W21483   6.999  11.903   0.651 -0.0687  0.0135 -0.1948
 3280W        W21484   3.694   7.984   4.030  0.0328 -0.0701 -0.0258
 3281W        W21485  12.982   7.476   0.924 -0.3478 -0.0465 -0.1080
 3282W        W21486   9.956  17.658   0.496 -0.4571 -0.0500  0.0433
 3283W        W21487  18.360  14.476   1.480  0.0777 -0.2107  0.0682
 3284W        W21488   8.483  12.343  14.126  0.1924  0.0718 -0.1430
 3285W        W21489   1.015   2.972   3.254 -0.1631 -0.0935 -0.2416
 3286W        W21490   9.734   1.907   1.513  0.0054 -0.0387  0.1382
 3287W        W21491   2.559   0.816  14.460  0.1926  0.3579  0.0367
 3288W        W21492   1.125   6.888   3.338 -0.3686  0.0346  0.1772
 3289W        W21493  13.629  12.245   1.498 -0.0656  0.1925 -0.0982
 3290W        W21494  13.237  16.957  12.151 -0.3529  0.1373  0.0817
 3291W        W21495   5.889  16.011   5.420 -0.0521 -0.0565  0.1280
 3292W        W21496   4.375   1.987   0.006 -0.1072  0.0755  0.0334
 3293W        W21497   9.257  11.054   0.311  0.0262  0.1909 -0.0628
 3294W        W21498   1.255  14.225   4.358 -0.0853  0.1237  0.1692
 3295W        W21499   7.115  16.632  11.192 -0.0209 -0.0214  0.1557
 3296W        W21500  12.975  16.620  12.361  0.2806  0.0661 -0.2599
 3297W        W21501  17.501   8.605  12.367  0.2008 -0.1011 -0.3103
 3298W        W21502  15.466   9.772   3.689 -0.0288 -0.2151 -0.2208
 3299W        W21503  15.155   4.801  12.494  0.0735  0.1267  0.0734
 3300W        W21504   5.837   6.665   1.026  0.2897 -0.1948 -0.1398
 3301W        W21505  12.981  18.016   3.855 -0.0543  0.2967 -0.0959
 3302W        W21506  12.854  16.780  10.544 -0.1535  0.1298  0.2638
 3303W        W21507   5.257   5.931   1.880  0.0750 -0.1992  0.3053
 3304W        W21508   5.767  18.256  13.914  0.1230  0.1802  0.0885
 3305W        W21509  13.207  11.165  11.869  0.0595  0.1556 -0.4517
 3306W        W21510  12.656   1.586  11.557 -0.2696 -0.3229 -0.2553
 3307W        W21511  12.406  13.054  12.459 -0.1247 -0.1788 -0.1382
 3308W        W21512  12.381   6.054  12.154  0.0007 -0.1398  0.1081
 3309W        W21513   0.037  17.938  11.598 -0.0143  0.2296 -0.2778
 3310W        W21514  14.987   5.660   0.744 -0.4260 -0.0094 -0.1419
 3311W        W21515  10.564  10.165  11.114 -0.3425 -0.3070  0.0723
 3312W        W21516   7.964   9.922  14.530  0.0733  0.0646  0.0409
 3313W        W21517  16.679  11.013   3.644 -0.1956  0.1227  0.0052
 3314W        W21518  16.016  16.701  12.835 -0.0082 -0.3526 -0.1292
 3315W        W21519  16.510   6.959   0.117  0.0496 -0.0133 -0.2602
 3316W        W21520  14.866  11.524  12.683 -0.1434  0.1275  0.2358
 3317W        W21521  11.041  15.953   1.235  0.0173 -0.2377 -0.2933
 3318W        W21522   5.158  13.972  14.238  0.0034 -0.1754  0.2037
 3319W        W21523  16.979  13.290  11.993 -0.0324 -0.0907 -0.1402
 3320W        W21524  14.122  13.741   0.540  0.2517 -0.0861 -0.2323
 3321W        W21525  14.776   1.463   4.498  0.0602 -0.0382 -0.1485
 3322W        W21526   4.205   3.789   1.148  0.4406 -0.1536  0.0686
 3323W        W21527  11.156  10.550   2.035  0.0591 -0.0875 -0.1213
 3324W        W21528   2.171  15.689  14.487 -0.1744  0.0651  0.5322
 3325W        W21529  17.151  15.911   2.948  0.2834 -0.0334  0.1061
 3326W        W21530   4.878  11.650   0.925 -0.0989  0.0600 -0.1229
 3327W        W21531  10.953   8.752  12.945  0.0440 -0.0235 -0.1030
 3328W        W21532  11.231  15.485   5.114  0.2782 -0.0056 -0.0424
 3329W        W21533  13.252   6.152  11.542 -0.0060  0.0298  0.0453
 3330W        W21534  14.307  16.339  10.354 -0.1223 -0.2159 -0.0156
 3331W        W21535   1.758  17.636   3.004  0.4150  0.4227 -0.4018
 3332W        W21536  10.838   9.074   4.448  0.1215 -0.1786 -0.0871
 3333W        W21537  12.252   3.440  12.556 -0.0964  0.1221  0.0078
 3334W        W21538  13.787   3.254  13.948  0.1135 -0.1049  0.1620
 3335W        W21539   9.584   5.046  14.496 -0.1761  0.0440  0.1685
 3336W        W21540   6.081  16.761   4.121 -0.0081  0.0826  0.0578
 3337W        W21541   3.682   3.930  11.210 -0.1265 -0.0301  0.0050
 3338W        W21542   9.210  12.096   0.099  0.0687  0.0768  0.3065
 3339W        W21543  12.136   2.577  10.606  0.0063  0.0074 -0.2661
 3340W        W21544   5.482  10.583  11.451 -0.1627 -0.1740  0.1703
 3341W        W21545  14.914  17.365   0.867  0.2546  0.1657  0.1536
 3342W        W21546   7.449  12.239  14.295  0.2229  0.0676 -0.2256
 3343W        W21547   8.519  17.849  11.732  0.3433 -0.0662  0.1127
 3344W        W21548   9.714  14.197   4.316 -0.3098  0.1750  0.4347
 3345W        W21549   3.597  17.973  12.789  0.1475  0.3260 -0.0750
 3346W        W21550  15.212   4.112   2.491  0.3356 -0.1574  0.0050
 3347W        W21551  16.114   8.946  11.866 -0.1804  0.2183  0.0947
 3348W        W21552   1.567  11.305  13.026 -0.0355  0.0240 -0.4655
 3349W        W21553  10.908   1.870  12.844 -0.0284 -0.0377 -0.2023
 3350W        W21554  15.486  18.466  12.170  0.1370 -0.0056 -0.1045
 3351W        W21555  11.018   0.565  14.639  0.0987 -0.1622  0.0047
 3352W        W21556   5.561  10.715  12.038  0.0751 -0.2968  0.1447
 3353W        W21557  18.591   1.465   2.180  0.2195 -0.2789 -0.2224
 3354W        W21558  10.992   6.357  11.752  0.1426  0.0647  0.4027
 3355W        W21559   9.622  15.056  14.736 -0.0113 -0.1081  0.0824
 3356W        W21560  12.999   0.215   3.033  0.0361 -0.1542  0.0424
 3357W        W21561  16.344  16.746   1.752  0.3221 -0.0971  0.2363
 3358W        W21562   9.175  11.947  12.871 -0.0379 -0.0289 -0.1477
 3359W        W21563  18.162  16.901   3.155  0.0621 -0.1496  0.2446
 3360W        W21564  17.852  17.297  10.113 -0.2366 -0.1373 -0.2844
 3361W        W21565  17.079   5.145  14.633  0.1616  0.0327 -0.2939
 3362W        W21566  13.562   3.949   1.766  0.0850  0.2334  0.1064
 3363W        W21567   5.405   5.686   1.013  0.1133 -0.1094 -0.1179
 3364W        W21568  15.198  17.694   1.214 -0.0929 -0.1848  0.2519
 3365W        W21569   2.674   4.507   4.444 -0.0167 -0.4387 -0.0159
 3366W        W21570   2.537  10.726   3.047 -0.0312 -0.0731 -0.0189
 3367W        W21571  12.878  18.852  11.749 -0.3056  0.0781 -0.2991
 3368W        W21572  10.965  17.298   0.562 -0.2983  0.1814  0.1591
 3369W        W21573   4.309  12.202   0.909 -0.1096 -0.0982 -0.0327
 3370W        W21574   1.581  13.652   2.390 -0.3349  0.0470 -0.1854
 3371W        W21575  18.922  15.553  10.956  0.1821 -0.0737  0.0984
 3372W        W21576   7.859   3.485  11.924 -0.0506  0.0002  0.0930
 3373W        W21577   9.783   3.346  14.783 -0.1517 -0.2912  0.1018
 3374W        W21578   8.303   3.478  10.716 -0.0253 -0.1243 -0.0329
 3375W        W21579  18.832   9.864  13.816  0.0731  0.0681 -0.0390
 3376W        W21580  15.766  12.301   3.759 -0.0945 -0.1491 -0.1768
 3377W        W21581  10.653   2.723   2.531  0.1886  0.1397 -0.3426
 3378W        W21582  18.750  11.827  11.444  0.1300 -0.3167  0.3019
 3379W        W21583  15.733  18.291   3.925  0.0401 -0.1243 -0.2235
 3380W        W21584  10.072  17.231   3.743  0.0869  0.2078 -0.2240
 3381W        W21585   1.558   5.074  11.465  0.0313  0.0335  0.0430
 3382W        W21586   2.195  15.340   3.479  0.2326 -0.1172  0.1224
 3383W        W21587   5.887  13.927   1.351 -0.3021 -0.2454 -0.1661
 3384W        W21588   1.155  13.563   2.700  0.3316  0.2878 -0.4048
 3385W        W21589   4.440   8.181   1.723  0.2972 -0.0450  0.1937
 3386W        W21590  16.639  12.353   1.989  0.0981 -0.2084  0.0285
 3387W        W21591  12.349   3.202   3.450  0.1604  0.0256  0.0049
 3388W        W21592   4.758  10.365  10.533  0.2436  0.1245 -0.1888
 3389W        W21593   2.183  12.668   2.861 -0.5214 -0.2530 -0.1117
 3390W        W21594   2.695   3.768  12.585  0.0353 -0.1374  0.1108
 3391W        W21595  11.654  16.430  11.276  0.3446  0.0852 -0.2578
 3392W        W21596  10.614   8.780   2.132 -0.1737  0.0416 -0.0377
 3393W        W21597   6.999  13.506   3.646 -0.1200  0.0271  0.1343
 3394W        W21598  15.903   3.510   2.318 -0.1261 -0.1622 -0.1189
 3395W        W21599   2.860   0.089  10.657 -0.0695  0.4205 -0.2881
 3396W        W21600  17.570  15.539   1.315  0.0113 -0.3929  0.0773
 3397W        W21601   0.789   3.353  14.410  0.3785 -0.0680 -0.3809
 3398W        W21602   4.671   6.855  13.553  0.1182 -0.1332 -0.2978
 3399W        W21603   4.830  11.133  14.739 -0.2196 -0.1381 -0.2658
 3400W        W21604   8.300  10.978  14.008  0.0093  0.1698  0.0148
 3401W        W21605  15.338  17.694  12.181 -0.2189  0.2581 -0.0438
 3402W        W21606   5.042  13.479  10.514 -0.0707  0.1829 -0.1290
 3403W        W21607   6.878   2.218  12.721  0.2409 -0.1031  0.0825
 3404W        W21608   3.326  16.648  10.912  0.0964 -0.0741 -0.0205
 3405W        W21609   1.940   3.432  10.362 -0.0608  0.0559 -0.0097
 3406W        W21610   5.204  14.966   2.214 -0.0513  0.0492 -0.2446
 3407W        W21611  11.939   6.227  12.402 -0.1075 -0.0118 -0.0667
 3408W        W21612  10.750   9.192   3.915  0.2070 -0.0999  0.2547
 3409W        W21613  14.133  10.436  14.165 -0.0390  0.1311  0.1145
 3410W        W21614  15.263   2.784  14.075 -0.0340  0.3220  0.1644
 3411W        W21615   0.899   7.257  12.989 -0.1526 -0.0202  0.1142
 3412W        W21616  16.099  18.303   1.660  0.0808 -0.1242  0.2228
 3413W        W21617   1.977  11.052  13.301  0.0648  0.2233  0.0915
 3414W        W21618   6.231   8.082  11.606 -0.3323 -0.2547 -0.2036
 3415W        W21619   9.944   3.310  10.705  0.1387 -0.2161 -0.2786
 3416W        W21620  16.457   9.739  10.476  0.0397 -0.0013 -0.0783
 3417W        W21621  14.188  14.885  11.545 -0.0475 -0.0355 -0.1308
 3418W        W21622  12.133  17.420  12.613 -0.3088  0.1093  0.0411
 3419W        W21623  13.734   1.750   4.485 -0.2124 -0.1752 -0.0554
 3420W        W21624   3.072   0.343   3.936 -0.0175 -0.3373  0.0672
 3421W        W21625  16.883  16.484   0.386 -0.4962  0.0258  0.1433
 3422W        W21626  13.527   1.540  12.621  0.1277 -0.1746 -0.2639
 3423W        W21627   9.683  15.377  11.523 -0.2373  0.1660  0.3179
 3424W        W21628   3.071  17.940   0.353  0.0141  0.0826  0.3435
 3425W        W21629  12.830  18.252   0.329 -0.1378  0.1158  0.0858
 3426W        W21630  17.968  13.233  10.439 -0.2346 -0.0714  0.0373
 3427W        W21631   1.782   9.934   1.800  0.1171  0.2277  0.1467
 3428W        W21632   1.415   4.640  12.677 -0.2324  0.0364  0.0079
 3429W        W21633  12.800  14.007   0.078 -0.0907 -0.2775 -0.3096
 3430W        W21634  10.119  18.736   0.270  0.0180 -0.0192 -0.1926
 3431W        W21635   5.819  15.549  12.286 -0.1504  0.3082 -0.1260
 3432W        W21636  15.010  12.160  13.481  0.0401  0.5054  0.1415
 3433W        W21637   9.829   5.371   4.444 -0.1823 -0.2279  0.0786
 3434W        W21638   4.078   5.850  10.438 -0.0837 -0.0491 -0.1542
 3435W        W21639  14.507  12.548   3.966  0.0351 -0.2132  0.1227
 3436W        W21640   4.666   2.926  11.923 -0.1418  0.0106 -0.1017
 3437W        W21641   3.986   9.175   4.284  0.0907  0.0865 -0.0425
 3438W        W21642  12.686   7.353   2.234  0.2132 -0.0666  0.0971
 3439W        W21643   4.206   3.965   1.617 -0.0939  0.0913 -0.1607
 3440W        W21644  12.249   1.890  14.383  0.0753 -0.3227 -0.0000
 3441W        W21645   1.393   0.801   3.524  0.0462 -0.0434 -0.1225
 3442W        W21646   2.359   4.900   4.382  0.1024  0.2601  0.1481
 3443W        W21647   1.228   6.471   1.272 -0.1130 -0.2928 -0.3517
 3444W        W21648   4.658   6.546  11.137 -0.0965  0.0607 -0.1626
 3445W        W21649  17.378  16.868  11.817 -0.4019 -0.0611 -0.1040
 3446W        W21650  15.446   2.301   0.963  0.1831 -0.0115  0.1285
 3447W        W21651  16.559  12.932  10.762  0.3784  0.0434 -0.0888
 3448W        W21652  12.619   2.969  13.163  0.0615  0.1045 -0.1464
 3449W        W21653  15.920   6.988  11.479 -0.3210 -0.0039 -0.0386
 3450W        W21654   1.729   4.962  12.521 -0.1374 -0.4477 -0.0258
 3451W        W21655  18.493   8.896  15.027 -0.1339 -0.3224 -0.0972
 3452W        W21656  15.274   0.800  14.246  0.1893 -0.0840  0.1471
 3453W        W21657  13.864  18.249  10.650  0.1319 -0.2922  0.2333
 3454W        W21658   5.006  11.419   5.287 -0.1509 -0.2273 -0.0951
 3455W        W21659   5.024  11.933   1.949 -0.0072  0.1912  0.3690
 3456W        W21660   9.492  16.375   5.052  0.3442  0.0495  0.0823
 3457W        W21661   6.541   7.768  12.929  0.3158  0.2099  0.1798
 3458W        W21662  13.913   5.532  14.116 -0.4440  0.0758 -0.0253
 3459W        W21663   9.062   6.772   4.689 -0.1274  0.2399 -0.0437
 3460W        W21664   9.952  15.979   2.563 -0.3795 -0.1826 -0.1446
 3461W        W21665   7.747   8.647  11.787 -0.0956  0.1770  0.1445
 3462W        W21666  11.389   8.439  12.125  0.2750  0.1514 -0.0300
 3463W        W21667  15.952   5.572  12.625 -0.0364 -0.1201  0.0380
 3464W        W21668  14.686   7.972   5.565  0.1476 -0.1324 -0.0739
 3465W        W21669  13.603   8.601  11.239 -0.0391 -0.0999  0.2016
 3466W        W21670  10.630   4.651  12.347 -0.1290 -0.3998 -0.0932
 3467W        W21671   1.633   4.109   3.415  0.3389 -0.0213 -0.4900
 3468W        W21672   3.939   0.159   0.868  0.0423 -0.0517 -0.2881
 3469W        W21673  16.021  10.684  13.723 -0.0628  0.1575  0.1537
 3470W        W21674   5.895   8.974   0.923  0.0365  0.0679 -0.2746
 3471W        W21675  17.422  11.130  14.718 -0.0086  0.0461  0.0697
 3472W        W21676   8.927   7.632  11.040  0.2395 -0.2090 -0.0304
 3473W        W21677   9.584   1.093   2.160 -0.0539  0.2957  0.2016
 3474W        W21678  15.589  14.886   3.823  0.0793 -0.0716  0.0690
 3475W        W21679  13.177  11.307   3.847  0.1705  0.2232 -0.0501
 3476W        W21680   6.063  17.799  14.592  0.0956  0.1978 -0.0474
 3477W        W21681  15.456   7.606   2.153 -0.1081  0.3275 -0.2582
 3478W        W21682  14.046   2.502   1.707  0.0443 -0.5553  0.0860
 3479W        W21683   4.614  18.685   2.609 -0.2582 -0.0858 -0.1136
 3480W        W21684   9.612  18.087  10.441  0.0991  0.0782 -0.2855
 3481W        W21685  11.187  16.578   2.308  0.2087 -0.1547  0.0637
 3482W        W21686   8.188  11.566  13.008 -0.0304 -0.0642 -0.3182
 3483W        W21687   0.719   8.274  14.596 -0.0392 -0.1405  0.0854
 3484W        W21688   4.930   7.105  12.569 -0.2708 -0.2348  0.1535
 3485W        W21689   2.845   1.802   3.561 -0.2372  0.0548  0.0487
 3486W        W21690   3.916   1.522   9.970 -0.0663  0.1411 -0.3078
 3487W        W21691   5.981  15.023   1.823 -0.0572 -0.2863  0.2104
 3488W        W21692  17.181  12.238   2.903 -0.2259 -0.2211  0.4318
 3489W        W21693  10.846  15.121   0.680 -0.1580  0.0626 -0.0445
 3490W        W21694  15.329  14.937  14.462 -0.0772 -0.1682 -0.0080
 3491W        W21695  18.062   3.152  11.328 -0.0322  0.1885  0.0551
 3492W        W21696   8.162  13.176   3.098 -0.1586  0.0350 -0.1951
 3493W        W21697   0.182   1.576  13.745  0.4232  0.1063 -0.2190
 3494W        W21698  18.058   9.899   3.961  0.0708  0.0562 -0.0685
 3495W        W21699   9.118  12.836  11.380  0.0129 -0.1954 -0.4692
 3496W        W21700   2.766   9.172   1.805 -0.0541  0.2771 -0.2740
 3497W        W21701  17.222   0.689   3.959  0.3112 -0.0025  0.2405
 3498W        W21702   0.440   1.776  11.471  0.3416 -0.2563  0.0401
 3499W        W21703   9.687  15.019   1.082  0.3446  0.0769  0.0394
 3500W        W21704   7.452  10.634  14.737  0.0933 -0.1334 -0.2773
 3501W        W21705  10.239  17.147  13.059  0.1164 -0.3443  0.2977
 3502W        W21706   0.568   0.136  11.827  0.0588 -0.0090 -0.2333
 3503W        W21707   4.108  14.273   0.615 -0.4031  0.2318 -0.1789
 3504W        W21708  18.852   3.923  13.874 -0.0890  0.1414  0.1235
 3505W        W21709   9.604   1.985  11.052 -0.0477  0.1515  0.0655
 3506W        W21710   9.172   5.987  10.899  0.2188 -0.0394  0.2985
 3507W        W21711  13.696  11.966  11.262 -0.2749 -0.2096  0.1585
 3508W        W21712   4.716  17.023  11.045  0.1740  0.1490 -0.0629
 3509W        W21713  12.281   6.481   1.089  0.0143  0.3794 -0.0975
 3510W        W21714   7.545  18.647   2.576 -0.1076  0.1701 -0.1003
 3511W        W21715  13.482   3.910   0.804 -0.2561  0.2968 -0.1075
 3512W        W21716  16.683  17.908   2.920 -0.0243 -0.1070  0.2627
 3513W        W21717   2.264  10.027   0.721 -0.0955  0.0192 -0.3585
 3514W        W21718   7.304   7.898   4.506 -0.1492 -0.2664 -0.2388
 3515W        W21719   5.228   9.130   3.970  0.1789 -0.0730 -0.0753
 3516W        W21720  14.568  16.053   1.237 -0.1469 -0.2887  0.1948
 3517W        W21721  14.495  11.159  11.237 -0.0005  0.1811 -0.3059
 3518W        W21722   7.944  16.017  10.134  0.2166  0.0319 -0.0629
 3519W        W21723   7.283  18.821  12.197 -0.3556 -0.3023 -0.0722
 3520W        W21724   2.909   9.536  14.105  0.0863  0.1043 -0.0365
 3521W        W21725  13.800   2.002  12.626 -0.2942 -0.0520 -0.4106
 3522W        W21726  12.589  18.145   4.134  0.0133  0.0859 -0.2403
 3523W        W21727   4.892   0.414   4.243 -0.0302  0.1150 -0.0710
 3524W        W21728   5.525  10.156   4.006  0.1608 -0.2653 -0.2870
 3525W        W21729  16.446   2.060   1.871 -0.0415 -0.2316 -0.0720
 3526W        W21730   1.537  12.648   0.427 -0.0831  0.0597 -0.1465
 3527W        W21731  13.123  17.332   3.214  0.0320  0.1210 -0.2579
 3528W        W21732   2.709  11.065  12.050  0.4120 -0.0720  0.1142
 3529W        W21733   2.897   1.415   5.066 -0.0394 -0.0421  0.3365
 3530W        W21734  13.779  15.013  12.909  0.1116 -0.1116 -0.0597
 3531W        W21735  17.758  10.267  11.173  0.1249 -0.0053  0.0732
 3532W        W21736  10.263   3.363  12.364 -0.2811 -0.1572  0.1441
 3533W        W21737   1.376   0.959  10.878 -0.0488 -0.2336  0.1272
 3534W        W21738   2.688  14.136  10.794  0.1982  0.0221  0.2845
 3535W        W21739   9.354   8.051   1.292  0.0426  0.0808  0.0586
 3536W        W21740   2.783  16.116  11.451  0.3162 -0.0447  0.2103
 3537W        W21741   7.735  17.315  13.178 -0.2043 -0.1551 -0.0242
 3538W        W21742  15.132  10.326   0.957  0.1406 -0.3534 -0.3324
 3539W        W21743  14.265   6.453  10.913  0.0069  0.0888 -0.0514
 3540W        W21744  17.001   2.078   1.700  0.0878 -0.2884 -0.0757
 3541W        W21745   4.961   6.992   2.776 -0.1118  0.0464  0.1726
 3542W        W21746  16.376   4.702   1.842 -0.1970  0.1603  0.0918
 3543W        W21747  15.913  11.802  13.271 -0.2360 -0.0211 -0.2339
 3544W        W21748   8.135   9.506  12.253  0.0041  0.3214 -0.1061
 3545W        W21749  11.996   5.714   4.573  0.1314 -0.0273 -0.1175
 3546W        W21750   3.015  13.781  12.737  0.1268  0.0457  0.2592
 3547W        W21751   8.247   8.653  12.386 -0.1569 -0.1808  0.1924
 3548W        W21752   9.338  17.957   1.113 -0.1161  0.3678 -0.3291
 3549W        W21753  12.605  11.000   2.722  0.2243  0.0140 -0.1333
 3550W        W21754  14.155  16.002  14.781  0.0691 -0.0285 -0.1399
 3551W        W21755  16.610  14.122  11.529 -0.0817  0.0136 -0.3330
 3552W        W21756   1.949  16.259  11.328 -0.0153  0.0531  0.1850
 3553W        W21757  14.218   8.930   1.840 -0.3039  0.1545 -0.0372
 3554W        W21758   4.769   9.127  12.666 -0.0318  0.1406 -0.3008
 3555W        W21759   7.334  17.093   3.770 -0.3859  0.1721  0.0610
 3556W        W21760   2.008  10.880  15.019  0.1901 -0.0377  0.3566
 3557W        W21761  15.591   9.123  14.005 -0.1937 -0.3297 -0.1087
 3558W        W21762   3.624   8.902   4.033  0.1238 -0.3011  0.3208
 3559W        W21763   1.860  16.606   2.432 -0.1224 -0.1116 -0.0847
 3560W        W21764   5.886   2.124  11.027 -0.0683 -0.4031 -0.0774
 3561W        W21765   8.040   4.141   0.391 -0.0555 -0.1263 -0.1928
 3562W        W21766  12.163  17.888   2.836  0.1777 -0.0979  0.2083
 3563W        W21767   4.802  18.067  13.146 -0.2283  0.1007  0.1569
 3564W        W21768  17.319   3.461  11.000 -0.1654 -0.1364 -0.1450
 3565W        W21769   1.092  14.022   1.095  0.0929  0.0644 -0.3168
 3566W        W21770   8.821   9.302  11.143 -0.1741 -0.1649 -0.1584
 3567W        W21771   9.310  11.419   3.201 -0.5344  0.2609  0.0562
 3568W        W21772  16.666  18.916  11.928 -0.1125 -0.3037  0.2234
 3569W        W21773  16.913  11.856  11.672  0.2374  0.1128 -0.1366
 3570W        W21774  15.316  13.683  14.008 -0.2448 -0.2968 -0.1713
 3571W        W21775   4.589  12.868  12.308  0.0449  0.2831 -0.1802
 3572W        W21776   7.149   7.578   1.515 -0.0101 -0.1026 -0.0138
 3573W        W21777   2.239   7.710   4.361 -0.2289  0.0657 -0.0469
 3574W        W21778   5.231   6.317   1.088 -0.1226  0.2402 -0.0169
 3575W        W21779   0.685   5.791   0.076 -0.0239  0.1373  0.2135
 3576W        W21780   3.490  18.906  14.385 -0.2104  0.3848 -0.0242
 3577W        W21781   4.254   4.574   2.764 -0.1510  0.1715  0.3871
 3578W        W21782   7.533   8.908   2.426  0.1454  0.0366 -0.1594
 3579W        W21783   0.222  11.305  13.639  0.2375 -0.0965 -0.1771
 3580W        W21784  10.716  12.458   2.619 -0.4083  0.1538 -0.2652
 3581W        W21785   4.314  13.649   2.857  0.0776 -0.2866  0.3958
 3582W        W21786   6.794   4.946  11.598 -0.1146 -0.2960 -0.1065
 3583W        W21787  10.266  13.398   3.403 -0.0550 -0.0743  0.0618
 3584W        W21788  10.789  12.765   5.078  0.1378  0.1449  0.6535
 3585W        W21789  13.842   5.030  13.446  0.0830 -0.1577  0.1349
 3586W        W21790   4.238  14.611   2.670  0.0656 -0.0269  0.2302
 3587W        W21791   7.173   8.258   1.879  0.3391  0.0003  0.0117
 3588W        W21792   0.490  16.239   2.609  0.1484 -0.3382 -0.1338
 3589W        W21793  15.038   1.980   0.832 -0.1946  0.1186 -0.1170
 3590W        W21794   6.490   5.354   0.363 -0.1456 -0.1927  0.2477
 3591W        W21795   7.413   0.084   4.070  0.1686  0.2212 -0.0019
 3592W        W21796   7.100  10.328  12.765  0.2734  0.0421  0.2952
 3593W        W21797  17.116   0.843  13.791 -0.3192 -0.0860 -0.0757
 3594W        W21798   0.056   3.475  13.743  0.0149  0.0727 -0.0622
 3595W        W21799  16.716   6.602  10.671  0.1743 -0.0627 -0.0702
 3596W        W21800   9.283  16.796   3.833  0.3253 -0.2314  0.1115
 3597W        W21801  18.523   8.317  13.260 -0.0018 -0.0743  0.0631
 3598W        W21802  16.382  15.621  10.869  0.0936  0.1492 -0.0800
 3599W        W21803  14.385   0.765  11.068 -0.2185 -0.0776  0.1927
 3600W        W21804  14.743   9.683   3.093  0.3587 -0.0147 -0.1411
 3601W        W21805  11.064  18.104  13.073  0.0686  0.0782  0.2723
 3602W        W21806  10.471   9.215   2.320 -0.1780  0.0228 -0.1224
 3603W        W21807   2.093  14.084  10.999 -0.1778  0.0568 -0.0834
 3604W        W21808   0.240  12.901  13.393  0.1284 -0.1691  0.0419
 3605W        W21809  15.668   7.523  10.824 -0.0179 -0.1338 -0.2181
 3606W        W21810   1.304  18.636   1.218  0.3833  0.0248 -0.0468
 3607W        W21811  13.918   6.551  14.895  0.0197  0.1283 -0.3874
 3608W        W21812   1.837  17.670   2.498 -0.2210  0.0532  0.1464
 3609W        W21813   2.617   7.679  14.351  0.0237 -0.2002 -0.3018
 3610W        W21814   7.212  17.310  13.464 -0.0718 -0.3170  0.1233
 3611W        W21815  15.034  16.833  12.598 -0.0967 -0.0292 -0.1646
 3612W        W21816   3.718  11.956   1.621  0.0294  0.0947 -0.0108
 3613W        W21817  13.264   2.900   3.308 -0.0923  0.0513 -0.1843
 3614W        W21818   1.530   0.111  12.279  0.2349  0.2103  0.1578
 3615W        W21819  11.049  13.957   0.821 -0.3950 -0.2556 -0.1771
 3616W        W21820   6.235  13.186   0.813  0.1511  0.1308  0.1186
 3617W        W21821   2.105   6.152   3.629 -0.1527 -0.0050 -0.0851
 3618W        W21822   0.378  13.480  10.844 -0.0264  0.2887 -0.5675
 3619W        W21823  13.782  10.511   4.776  0.5467 -0.2176 -0.0497
 3620W        W21824   2.322  17.156  12.102 -0.2107  0.0018  0.0025
 3621W        W21825  12.370   6.900  12.465 -0.0195 -0.1835  0.0403
 3622W        W21826  16.475   5.782   0.243 -0.1141 -0.0477 -0.1569
 3623W        W21827  15.832  14.908  14.932 -0.0790  0.0516 -0.3616
 3624W        W21828   4.610   7.514   4.099  0.0629 -0.3084  0.1284
 3625W        W21829  17.195   8.567   9.877 -0.1684 -0.2347 -0.2523
 3626W        W21830  11.351  14.018  12.318  0.0176  0.1786  0.3907
 3627W        W21831   8.230   2.006   1.713  0.0056 -0.3656 -0.0898
 3628W        W21832  14.278  18.608   3.727  0.0474 -0.2729  0.1102
 3629W        W21833  15.496  11.487   2.371  0.1819  0.1028  0.0754
 3630W        W21834   7.164  13.600   1.790 -0.0644 -0.2501  0.2689
 3631W        W21835  15.007   0.542   0.707 -0.1582  0.0787 -0.0027
 3632W        W21836   0.855  12.377   1.640  0.0468 -0.0361 -0.2035
 3633W        W21837  10.529  11.878  10.515 -0.0350 -0.1666  0.0393
 3634W        W21838  11.198   9.188   4.162  0.1597 -0.0015 -0.0080
 3635W        W21839   4.855  16.111   2.944 -0.1501  0.0979  0.1364
 3636W        W21840   6.808   6.859   0.803  0.1161  0.0497 -0.1997
 3637W        W21841  12.215  18.893  11.786  0.0482 -0.2906  0.2829
 3638W        W21842  15.246  13.750  14.927  0.4561 -0.0057  0.2502
 3639W        W21843  15.717   6.959   1.667 -0.4006  0.1556  0.0522
 3640W        W21844  13.833  16.753   2.911  0.0795 -0.0638 -0.0364
 3641W        W21845   6.845   2.042   5.356 -0.0975  0.2823  0.0000
 3642W        W21846   5.398  12.260  12.544  0.2856 -0.1316 -0.2200
 3643W        W21847  11.581  10.050   4.517 -0.2458  0.2003  0.0690
 3644W        W21848  11.524  11.371   0.770  0.1382 -0.2019  0.0509
 3645W        W21849   0.866   8.051  13.285 -0.1977 -0.0074 -0.2322
 3646W        W21850  17.511  17.821   0.412 -0.0324 -0.1126 -0.3569
 3647W        W21851  14.279  12.977  13.541  0.0442  0.0252  0.2488
 3648W        W21852   9.977   9.168   1.682 -0.1725  0.0223  0.0202
 3649W        W21853  16.042   0.944  10.207 -0.0101 -0.1620  0.1997
 3650W        W21854   1.306  14.172   2.515 -0.2752  0.0965 -0.2238
 3651W        W21855   5.449  18.728  11.036 -0.0368 -0.3959  0.4510
 3652W        W21856  16.606  15.939  13.497 -0.1933 -0.0317 -0.1284
 3653W        W21857  17.021  13.060   4.196  0.1574 -0.0773 -0.1221
 3654W        W21858   9.084   9.158   2.210 -0.1528 -0.3311  0.3867
 3655W        W21859  15.029  16.546  10.157  0.5102  0.0579  0.2823
 3656W        W21860  12.487  14.571   3.741 -0.2373  0.1783 -0.1270
 3657W        W21861   3.903  17.591   2.917 -0.4473  0.1359  0.0174
 3658W        W21862   7.497   1.322  14.865  0.0731 -0.0228 -0.0157
 3659W        W21863  17.048  16.840  13.074 -0.0541 -0.0346  0.2743
 3660W        W21864   7.756   9.225  14.292 -0.0264 -0.0527 -0.1025
 3661W        W21865  16.618  10.136   3.428 -0.1506  0.0643 -0.0203
 3662W        W21866   7.516   7.983  10.661  0.0996 -0.0527  0.0260
 3663W        W21867   3.562   4.223   2.277 -0.0592 -0.1396 -0.1347
 3664W        W21868   6.619   8.328   2.473 -0.3305 -0.1895 -0.1506
 3665W        W21869   6.271  15.684  11.865  0.2399  0.2518 -0.0714
 3666W        W21870  15.507   4.660  12.895 -0.2818 -0.1484 -0.1289
 3667W        W21871  17.656  13.031  14.314 -0.1008  0.4430 -0.2682
 3668W        W21872   9.458  10.886   3.232 -0.1295  0.0050 -0.0648
 3669W        W21873   1.896  14.899   3.624  0.0121 -0.2933 -0.4484
 3670W        W21874   3.271  16.958   4.471  0.3081 -0.0238  0.0969
 3671W        W21875  11.763  17.325  12.242 -0.3085  0.0035  0.2613
 3672W        W21876  10.668  14.646   0.779  0.1127 -0.1398  0.0290
 3673W        W21877   0.043   6.913  13.354 -0.4400  0.1794  0.0127
 3674W        W21878   6.846   4.213  12.904  0.2249  0.0949  0.0864
 3675W        W21879   1.654  15.019  11.860  0.0305  0.0645  0.0880
 3676W        W21880   7.071  12.262   1.003  0.0724  0.0108 -0.0011
 3677W        W21881  15.855  10.972  10.622 -0.1628  0.1630 -0.1061
 3678W        W21882   3.770  17.478   4.225 -0.3591 -0.1137 -0.0707
 3679W        W21883   8.130  18.329   2.569  0.0791 -0.2293 -0.1547
 3680W        W21884   2.658   1.506   2.409  0.0599 -0.1796 -0.0533
 3681W        W21885   2.183  14.893  13.435 -0.0387  0.0039  0.1979
 3682W        W21886   8.322  18.637   0.941  0.0347  0.0474 -0.0230
 3683W        W21887   2.432   3.610  10.715  0.1249 -0.0522  0.1727
 3684W        W21888   6.752   9.793  12.186 -0.0385 -0.2251  0.1168
 3685W        W21889  10.975  14.043   3.075 -0.1073  0.1690 -0.3505
 3686W        W21890  15.939   0.323  14.342  0.2852  0.3147  0.2620
 3687W        W21891   2.813   6.166   1.794  0.1316 -0.0742 -0.2289
 3688W        W21892   0.444  14.402   1.807 -0.3232 -0.0189 -0.1427
 3689W        W21893  10.049  13.299   4.464  0.1541  0.2805 -0.1863
 3690W        W21894   1.732  18.769   2.129 -0.0548  0.1159  0.1650
 3691W        W21895   8.765   3.004  12.767 -0.0518  0.5070 -0.1104
 3692W        W21896   8.343   3.210   0.614 -0.0758 -0.0150  0.0761
 3693W        W21897   7.682  11.847  14.399  0.1163 -0.1376  0.0794
 3694W        W21898  18.507   8.071   5.649 -0.3170  0.2491  0.4069
 3695W        W21899   9.033   3.115  14.119  0.2749  0.4140 -0.1266
 3696W        W21900   9.725   1.097  12.899  0.1576  0.1369 -0.0399
 3697W        W21901  13.181  13.444  12.591  0.2865  0.0406  0.3018
 3698W        W21902   6.477  12.802   0.915  0.1041 -0.0736 -0.3070
 3699W        W21903  17.172   0.844   2.998  0.1187 -0.0449  0.1092
 3700W        W21904   8.472  12.981  15.000  0.0103  0.0538 -0.1848
 3701W        W21905   3.507  14.728   3.120  0.2288  0.1977  0.4586
 3702W        W21906  15.402  17.033   0.849 -0.1051 -0.0635  0.3078
 3703W        W21907  10.651   3.029  11.996 -0.0661  0.1045 -0.0885
 3704W        W21908  10.816  14.988   0.187  0.2266 -0.2640  0.2663
 3705W        W21909   8.883   5.530  13.246 -0.0187 -0.2904  0.1164
 3706W        W21910  13.788  18.565  10.107 -0.3247 -0.1010  0.1927
 3707W        W21911  18.421   7.149   1.230 -0.0714  0.1186 -0.2198
 3708W        W21912  17.875   4.921   0.949  0.0309 -0.2043 -0.1980
 3709W        W21913   5.845  10.366  11.230 -0.2956  0.0862  0.0176
 3710W        W21914   1.754   6.342   4.014  0.0707 -0.2261  0.3316
 3711W        W21915  17.753   8.393  11.937 -0.2687  0.0385  0.1192
 3712W        W21916   3.964  17.109   5.090 -0.3682  0.1536  0.0231
 3713W        W21917   0.156  10.318  10.167 -0.2229 -0.1379 -0.2291
 3714W        W21918   2.217   5.742  11.198  0.1190  0.1886 -0.0896
 3715W        W21919   6.418  13.921  11.818 -0.0342  0.3609  0.2296
 3716W        W21920  16.040  13.551   4.844 -0.2077  0.0390 -0.3736
 3717W        W21921   4.519  13.631   3.784 -0.2627 -0.2621 -0.0924
 3718W        W21922  14.500   8.637  11.154  0.1907  0.3005  0.1789
 3719W        W21923  18.561  12.430   0.310  0.2033  0.0314  0.1112
 3720W        W21924  15.421  16.256  10.005 -0.3326  0.0206  0.3624
 3721W        W21925  12.973  18.330   2.374  0.0924  0.0431  0.2344
 3722W        W21926  10.818   6.160   1.878  0.0130  0.0049  0.2300
 3723W        W21927  13.816   5.604   3.190 -0.2439  0.0565 -0.1122
 3724W        W21928   5.245   4.326  10.488 -0.1465  0.1590 -0.0274
 3725W        W21929   4.860   6.094   5.038 -0.0196 -0.0450  0.0210
 3726W        W21930   3.650   8.134   2.295  0.0139 -0.0386  0.1056
 3727W        W21931   3.730  17.647   2.479 -0.1892 -0.0901 -0.1568
 3728W        W21932  13.102   8.176  12.945  0.1392 -0.1928 -0.1452
 3729W        W21933   9.691   7.704  12.465 -0.2898  0.1269 -0.2409
 3730W        W21934   0.508  18.901   4.006  0.0061  0.1172 -0.0589
 3731W        W21935  18.442  13.526   1.559  0.1040  0.1786 -0.1172
 3732W        W21936   2.038  13.730   2.548 -0.0750 -0.2152  0.0885
 3733W        W21937  13.947   1.990  11.267 -0.0222  0.0972 -0.0643
 3734W        W21938  15.478   1.014  11.601 -0.1021  0.3640  0.0432
 3735W        W21939  18.487   2.669   3.687  0.1282 -0.0660  0.0435
 3736W        W21940  11.679   5.415  14.820 -0.0663  0.0649  0.0277
 3737W        W21941  11.499  13.556   2.364 -0.1024 -0.2674 -0.0017
 3738W        W21942   5.172   9.763   0.523 -0.0985 -0.0847 -0.0892
 3739W        W21943  18.660   1.646  13.952 -0.1546  0.1049 -0.1748
 3740W        W21944   6.867  12.857   0.091  0.0167  0.2640 -0.2956
 3741W        W21945  14.058   3.450  13.386  0.1934  0.4235  0.2314
 3742W        W21946  12.855  18.509   3.899  0.0418  0.1354  0.1419
 3743W        W21947  15.101   4.050   3.644 -0.4290  0.2358 -0.1652
 3744W        W21948   0.026  15.216  10.489 -0.1486 -0.1585  0.1569
 3745W        W21949   8.473   5.621  12.882  0.1062 -0.0245  0.0847
 3746W        W21950   3.771  15.668   2.822 -0.1000  0.1608  0.0524
 3747W        W21951  18.404  15.745  13.495 -0.3528 -0.2086  0.2168
 3748W        W21952   1.879   0.027   1.636 -0.1036 -0.0556  0.0122
 3749W        W21953  15.608   8.452  10.697 -0.0305  0.1344 -0.0016
 3750W        W21954   5.907  12.117  13.746  0.2621  0.2284  0.1660
 3751W        W21955  13.431  13.642   3.195 -0.0268 -0.0393 -0.0147
 3752W        W21956   2.208  11.295  11.896  0.0707  0.0529 -0.0889
 3753W        W21957   0.142   2.984   2.353  0.0811 -0.1927  0.0412
 3754W        W21958   1.736  13.237  13.773 -0.2332  0.0846 -0.0794
 3755W        W21959   3.517   5.210   3.239  0.2872  0.0752 -0.0408
 3756W        W21960   0.828   5.812  11.458  0.5167  0.2185  0.2225
 3757W        W21961  10.767   7.871   4.244  0.0007  0.0189  0.0268
 3758W        W21962   3.476   7.015  12.226  0.0735  0.1921 -0.3333
 3759W        W21963   1.790  11.623   9.753  0.2651  0.0190  0.2261
 3760W        W21964   1.932  10.823   3.224  0.1282 -0.1096  0.1957
 3761W        W21965  11.310   6.089   0.475 -0.4556 -0.0560 -0.0297
 3762W        W21966  14.510   7.414  12.266 -0.0864 -0.3545  0.0115
 3763W        W21967   3.528  13.125   2.808  0.2383 -0.0751 -0.0090
 3764W        W21968  18.818  13.292  10.801 -0.0840 -0.0387 -0.4868
 3765W        W21969  11.179  12.936   3.702 -0.1003  0.1216 -0.2559
 3766W        W21970   5.628   4.840  13.092  0.3040  0.0147 -0.3189
 3767W        W21971   7.510   7.008   4.402  0.0966  0.2030 -0.1306
 3768W        W21972   4.722   6.387   0.901 -0.0015  0.2316  0.0804
 3769W        W21973   0.919   3.685   0.851  0.0520  0.0490 -0.1525
 3770W        W21974   5.108   5.216  14.504  0.3594  0.1650 -0.1668
 3771W        W21975  12.319  15.759  14.120  0.1136 -0.1909 -0.0767
 3772W        W21976  17.026   4.691  11.896  0.4727  0.1872  0.1313
 3773W        W21977  17.561  17.659   3.881 -0.2120  0.1408 -0.3450
 3774W        W21978  18.026   3.751   5.459  0.0994  0.3006  0.0079
 3775W        W21979   4.874   2.734   4.163  0.2056  0.2332 -0.0329
 3776W        W21980  17.056  12.523  13.602  0.1118  0.0092  0.0210
 3777W        W21981   2.890  15.690  14.740  0.0688  0.1502 -0.1033
 3778W        W21982  13.993  18.088   2.690 -0.0912  0.2200 -0.1449
 3779W        W21983   2.996   9.752   0.198 -0.0892  0.2698 -0.2558
 3780W        W21984  16.088  10.891  11.055 -0.1019 -0.0853 -0.1000
 3781W        W21985  12.289  18.847   2.595  0.0872 -0.0087  0.0051
 3782W        W21986  10.141  10.799   0.687 -0.2678  0.1435  0.1542
 3783W        W21987  18.192   2.211  14.492 -0.1302 -0.0030 -0.0855
 3784W        W21988   1.490  11.504  11.226 -0.0478 -0.1924  0.0457
 3785W        W21989  12.069   5.122  14.864 -0.0305 -0.1551 -0.2296
 3786W        W21990   2.726   5.533   4.889  0.0754 -0.1207 -0.1550
 3787W        W21991   8.426  16.345   0.995 -0.0470 -0.1659 -0.0652
 3788W        W21992  18.655  13.421   3.569 -0.0712 -0.1028  0.1913
 3789W        W21993   0.454   3.449   0.748  0.0788  0.0658 -0.0162
 3790W        W21994   4.783  16.588   3.117  0.1947  0.2009  0.1514
 3791W        W21995  16.504   2.645  12.014  0.2894  0.2086  0.2856
 3792W        W21996  12.231  17.334  12.068 -0.3166  0.1063 -0.2478
 3793W        W21997  10.787  12.180   4.128 -0.1955 -0.0366  0.0531
 3794W        W21998  16.220  10.381   3.635  0.1433 -0.2095  0.1892
 3795W        W21999   7.233   0.522   0.292 -0.1219  0.0018  0.2372
 3796W        W22000  15.294   4.206  13.470 -0.0785  0.2280  0.2046
 3797W        W22001   2.498   2.932   0.789 -0.0378 -0.1880 -0.1956
 3798W        W22002   7.014  18.427   4.483  0.1284  0.0065  0.0351
 3799W        W22003   4.512   4.332   1.544  0.1602 -0.4999 -0.0055
 3800W        W22004   5.229  16.630  14.451 -0.1260  0.3336 -0.0083
 3801W        W22005   3.526  14.018   3.853 -0.0798 -0.0096  0.2165
 3802W        W22006   4.711  13.879  10.642 -0.2197 -0.0454 -0.0077
 3803W        W22007  12.443  18.377   0.820 -0.0520  0.2160 -0.2220
 3804W        W22008   0.183   9.859   3.408  0.2164  0.1811  0.1097
 3805W        W22009   4.816  14.668   4.519 -0.0527 -0.2584 -0.0396
 3806W        W22010  13.304   4.204  14.424 -0.1312 -0.0759 -0.0193
 3807W        W22011  18.488  13.030   3.739  0.0249 -0.0686  0.1437
 3808W        W22012  10.784  10.114   4.998 -0.0958 -0.2306 -0.0014
 3809W        W22013   3.966   3.035  12.097 -0.1428 -0.3548  0.0765
 3810W        W22014   6.853   4.255   2.040 -0.0884 -0.0522 -0.4119
 3811W        W22015  14.961  15.577   2.582  0.2451  0.1204  0.1362
 3812W        W22016   8.899   6.211  10.517 -0.2997 -0.1771  0.0097
 3813W        W22017   8.553  17.833  13.930 -0.1416 -0.1058 -0.0326
 3814W        W22018   3.967  15.168  11.673 -0.3334  0.0356 -0.0101
 3815W        W22019   3.867   4.961   2.798  0.2720 -0.3420 -0.0880
 3816W        W22020   8.604  15.628   3.230  0.1392 -0.0558  0.0046
 3817W        W22021   6.295   7.352  12.816  0.0348 -0.2729  0.0391
 3818W        W22022   9.043   3.415   1.326  0.1181 -0.1056 -0.0018
 3819W        W22023   0.349  13.557   3.093 -0.3266 -0.1073 -0.1503
 3820W        W22024  15.110  10.548   0.144 -0.2168  0.0533  0.0046
 3821W        W22025   0.124   3.883  14.718  0.0110 -0.1282 -0.2699
 3822W        W22026  10.086  15.821   4.412  0.0480  0.0192  0.1429
 3823W        W22027  15.914  15.750  14.927  0.2807 -0.1512 -0.1009
 3824W        W22028   7.264  10.551  14.124 -0.0431  0.0732  0.0310
 3825W        W22029   9.594   8.967   3.077  0.1071  0.0119 -0.1780
 3826W        W22030  12.750  13.328   3.776  0.1618 -0.0961 -0.0599
 3827W        W22031  17.574   5.736   3.271 -0.1998  0.1913 -0.2051
 3828W        W22032  16.076  10.396  11.267 -0.1743 -0.1804  0.3201
 3829W        W22033  16.170  10.667   2.015 -0.0003  0.0076 -0.1472
 3830W        W22034  17.096  11.538   4.383  0.0876  0.1642 -0.0114
 3831W        W22035  11.326   9.207  11.009 -0.1152 -0.2145 -0.0981
 3832W        W22036  12.220   1.570   1.275 -0.0705  0.1817  0.1199
 3833W        W22037  15.594   6.642   2.045  0.2197 -0.1276 -0.1732
 3834W        W22038   3.671  14.769   3.750 -0.3010  0.2179  0.2016
 3835W        W22039  18.256   4.196  12.235 -0.1179  0.0390  0.2221
 3836W        W22040   4.248   1.305  12.781 -0.0201 -0.0844 -0.0771
 3837W        W22041  18.924  15.963  14.019  0.2546 -0.0543 -0.1315
 3838W        W22042   9.901  13.563   1.905 -0.0503  0.1038 -0.1461
 3839W        W22043  12.379  16.055   1.069  0.0136 -0.1710 -0.1429
 3840W        W22044   9.172  15.905   4.895  0.2809 -0.1785 -0.1846
 3841W        W22045  10.757  10.196  14.158  0.1255 -0.2450 -0.0344
 3842W        W22046   0.622   3.911   2.094  0.0992  0.1383 -0.2239
 3843W        W22047  10.785  12.193   5.177 -0.0588  0.2494  0.2959
 3844W        W22048  14.387   5.166   1.535 -0.1879 -0.3173 -0.2288
 3845W        W22049  17.102   9.112   3.432 -0.1024 -0.0302 -0.2258
 3846W        W22050  17.102  12.408   0.633  0.1933  0.1921  0.0468
 3847W        W22051   8.289   3.842   2.842 -0.1460 -0.1073  0.2498
 3848W        W22052   2.867  13.648   4.135  0.0436 -0.0334  0.0789
 3849W        W22053   1.139  17.198   3.859  0.0132  0.0395 -0.3686
 3850W        W22054  11.088  12.469   3.107 -0.3471 -0.2411 -0.2068
 3851W        W22055  14.720  14.607  11.351  0.1523  0.1327  0.2251
 3852W        W22056  17.722  12.474  14.993  0.0027  0.3180 -0.3356
 3853W        W22057  14.678   9.111  13.347  0.1683  0.0314 -0.4830
 3854W        W22058  16.982   9.343  13.635  0.3988  0.0467  0.0590
 3855W        W22059  14.978  16.160  14.237  0.0587 -0.2686 -0.3216
 3856W        W22060   3.275   0.142  10.948 -0.0598  0.0205 -0.0168
 3857W        W22061   9.295  12.464   0.577 -0.0456 -0.1919 -0.0221
 3858W        W22062   3.262   6.576  12.387 -0.2573  0.1320  0.0218
 3859W        W22063   9.819  14.875   1.556  0.0149 -0.0473 -0.3006
 3860W        W22064  17.063  15.045   0.223  0.0075  0.0045  0.0637
 3861W        W22065  15.612   5.523  13.512 -0.1011 -0.0225  0.0258
 3862W        W22066   8.308   6.420  13.239 -0.0609  0.0945  0.1300
 3863W        W22067   2.628  17.319   1.017  0.0311  0.1457 -0.0680
 3864W        W22068  10.612  10.442  12.045 -0.4348 -0.0560  0.1111
 3865W        W22069  16.267   8.760  14.408 -0.2662 -0.1585  0.2426
 3866W        W22070  10.627  16.346  13.237  0.0541  0.1095  0.2927
 3867W        W22071   1.107   5.977  12.356  0.3155  0.2972 -0.1847
 3868W        W22072   1.365  18.412  13.835  0.0695  0.1908  0.1263
 3869W        W22073   4.008   4.592  14.086  0.1355  0.0185  0.0283
 3870W        W22074   3.080  15.032  10.636  0.1870 -0.1530  0.0937
 3871W        W22075  13.839   2.269   1.257 -0.2718  0.2356 -0.2673
 3872W        W22076   1.065  18.265  10.674 -0.1059  0.0688 -0.1453
 3873W        W22077   2.593  16.452  13.034  0.0176 -0.1895 -0.1263
 3874W        W22078   0.222   7.919  14.434  0.3593 -0.1806 -0.2349
 3875W        W22079   0.198  14.218   1.093 -0.0649 -0.0240 -0.0001
 3876W        W22080   4.351   8.088  13.501  0.2276  0.0315  0.4015
 3877W        W22081   1.855   9.371   3.429  0.2981 -0.1166  0.0999
 3878W        W22082   1.222  12.673  13.190 -0.1064  0.1988 -0.1919
 3879W        W22083   7.632  15.218   3.277  0.1861 -0.3314  0.2852
 3880W        W22084   1.442  17.402  14.704  0.1112 -0.0273  0.2340
 3881W        W22085   6.451   2.581  14.132 -0.0249 -0.1033  0.2654
 3882W        W22086   0.606  11.201   5.242  0.0101  0.3776  0.0782
 3883W        W22087  11.908  15.999  12.291 -0.2632 -0.1187  0.3153
 3884W        W22088  10.961   2.657  10.488  0.2438  0.2166 -0.0724
 3885W        W22089   9.653  17.719  10.817  0.1320 -0.1158 -0.1689
 3886W        W22090   5.316   1.494  12.322  0.1357  0.2101 -0.2138
 3887W        W22091  14.972  16.371   1.452 -0.1646 -0.0019 -0.0647
 3888W        W22092   7.058   2.549  11.212 -0.0143  0.1298 -0.1845
 3889W        W22093   2.712   6.137   2.308  0.1488  0.2088 -0.1780
 3890W        W22094  18.783   6.140   0.363  0.2675  0.0919 -0.3013
 3891W        W22095  11.933  13.305   0.909  0.0073 -0.0092 -0.1221
 3892W        W22096   9.850  17.777  12.811  0.0029 -0.2093 -0.1941
 3893W        W22097   4.921   5.921   0.946 -0.2895  0.3279 -0.3625
 3894W        W22098  12.307   9.451  14.986 -0.1980 -0.2383  0.0452
 3895W        W22099  17.010  13.067  14.893 -0.2440 -0.1944  0.1610
 3896W        W22100   2.801  14.306   1.241  0.1173  0.3248  0.0862
 3897W        W22101   9.894  17.216   0.702 -0.0692  0.1568 -0.1902
 3898W        W22102  18.129   0.024   1.438  0.0261  0.0430  0.2437
 3899W        W22103  11.321   2.129  13.090 -0.0211  0.0270 -0.0213
 3900W        W22104   5.514  12.167  14.301 -0.1010  0.1344 -0.0393
 3901W        W22105   0.896   4.393   0.827 -0.0096 -0.0137 -0.0862
 3902W        W22106  13.504   0.055  12.016 -0.0073 -0.6513  0.2314
 3903W        W22107  17.583  10.042  13.403 -0.0231 -0.0064 -0.1667
 3904W        W22108   1.702   8.686  12.250  0.0677  0.0081  0.0911
 3905W        W22109   5.353  13.143   1.249  0.3740 -0.1566 -0.1082
 3906W        W22110   4.541  10.699  14.633  0.0984 -0.3274  0.2085
 3907W        W22111  15.841   0.761   0.843  0.1700  0.0497 -0.3223
 3908W        W22112   2.556   3.724   0.948 -0.4064  0.3132 -0.2279
 3909W        W22113  10.415  13.259  13.264  0.0036  0.1560  0.4632
 3910W        W22114   0.632   1.513   1.062 -0.1162  0.0829 -0.5850
 3911W        W22115  16.152  15.211  11.020  0.1478 -0.1968  0.1127
 3912W        W22116   2.179   7.900  11.661 -0.1116  0.0183 -0.0332
 3913W        W22117   1.353   4.114   4.264  0.3106 -0.1364  0.0837
 3914W        W22118  17.554   5.379   1.749 -0.1228  0.0030 -0.0158
 3915W        W22119  17.115   2.492   2.377  0.0279 -0.2616  0.1232
 3916W        W22120   5.042  13.452   5.356  0.2699  0.1137  0.2230
 3917W        W22121   4.595  13.271  11.806  0.2498  0.1807 -0.1653
 3918W        W22122   6.846   7.616  10.729  0.2984  0.1459 -0.0728
 3919W        W22123   9.659   5.828   1.111  0.2900  0.0195  0.2564
 3920W        W22124  16.422   9.220   2.130  0.0235 -0.1140  0.2479
 3921W        W22125   0.517  18.712   4.525 -0.1058  0.2237 -0.2576
 3922W        W22126  18.180   2.604  14.803 -0.0218 -0.3462  0.2903
 3923W        W22127  10.181  16.130   1.224 -0.0469  0.3144  0.2639
 3924W        W22128  11.796   6.367  10.830  0.1439 -0.0474  0.0089
 3925W        W22129  11.770  15.671   3.354  0.0923 -0.0151 -0.0866
 3926W        W22130   7.517   8.612   1.916 -0.1051 -0.0862  0.2362
 3927W        W22131   1.877   0.544   2.506  0.4684 -0.2631  0.2278
 3928W        W22132   2.261  13.530   1.699  0.1743  0.0350 -0.0769
 3929W        W22133   7.285  17.049   0.831 -0.2377  0.0982  0.1558
 3930W        W22134  17.880  17.295   0.788  0.0827  0.0144 -0.0915
 3931W        W22135   6.599  11.304  13.727 -0.2066  0.1372  0.2373
 3932W        W22136  13.001   8.766  10.137  0.3396  0.2713  0.0956
 3933W        W22137  11.063  10.567  13.843 -0.0458 -0.4510 -0.2275
 3934W        W22138   7.653  13.532   1.859 -0.0414 -0.0344  0.0976
 3935W        W22139  13.978  16.697   0.701 -0.1416 -0.1838 -0.1076
 3936W        W22140   2.143  10.468  12.620  0.1238 -0.1794  0.2283
 3937W        W22141  14.171  10.624   0.949  0.0542 -0.1034  0.0718
 3938W        W22142  14.256  10.283   0.101 -0.2345  0.0489  0.0078
 3939W        W22143  15.995   8.566   3.270 -0.1205 -0.3326 -0.2048
 3940W        W22144   1.938  18.213   3.376  0.0273 -0.0499  0.2924
 3941W        W22145  13.813  16.627   3.861 -0.2666  0.1876  0.1943
 3942W        W22146  18.563   3.142  12.248  0.0704  0.0716  0.2775
 3943W        W22147   9.569  12.670   2.177 -0.0815 -0.1224  0.1408
 3944W        W22148  15.045  16.577   0.540 -0.2568  0.3987 -0.0865
 3945W        W22149   5.647   8.195  12.372 -0.1208 -0.2573 -0.1821
 3946W        W22150   0.237   5.923  14.989 -0.1369 -0.1106 -0.2705
 3947W        W22151  12.358   2.405   1.152  0.1028  0.0100 -0.0756
 3948W        W22152  17.494  13.384  14.678  0.1210  0.3625  0.3437
 3949W        W22153  14.160  12.836  11.545  0.1480  0.2340  0.2195
 3950W        W22154   2.275  17.824   1.232 -0.1030 -0.0632  0.4090
 3951W        W22155  17.378  17.325  11.050  0.0971 -0.3145  0.2998
 3952W        W22156   8.105  11.602  14.541 -0.0992 -0.1361 -0.2418
 3953W        W22157   9.339   8.512  13.412 -0.1489 -0.0349  0.1210
 3954W        W22158   9.629   3.815   4.335 -0.0896 -0.0689  0.3115
 3955W        W22159   3.807   7.708   0.886 -0.0445 -0.2298  0.2552
 3956W        W22160  15.274   9.495   1.398  0.0928 -0.0072 -0.2809
 3957W        W22161  10.907   3.313  13.994 -0.0062  0.0138 -0.2827
 3958W        W22162   8.751   5.558  14.522 -0.2183  0.2304  0.0202
 3959W        W22163   0.510  18.900   0.066 -0.0895  0.1062  0.2024
 3960W        W22164   2.726   9.712   0.623 -0.4548  0.2470 -0.0760
 3961W        W22165  12.266  10.876   3.600  0.0699  0.2011  0.0964
 3962W        W22166  12.231   1.988  13.002  0.2210  0.1608 -0.0466
 3963W        W22167   0.413  18.654  10.846 -0.4491  0.1107  0.0120
 3964W        W22168   3.862  14.613  11.688  0.3462 -0.1142 -0.3325
 3965W        W22169   4.381  10.942   3.182 -0.2141 -0.0203  0.1670
 3966W        W22170  18.732  15.590  14.797 -0.0020  0.3792 -0.0869
 3967W        W22171  14.640  14.301  13.787  0.0395  0.0682  0.1561
 3968W        W22172  14.339   5.285   2.068  0.1074  0.0232  0.0618
 3969W        W22173   3.964   1.083  13.864  0.1172  0.3174 -0.2968
 3970W        W22174   6.125   2.410   2.075  0.1374 -0.0450 -0.1775
 3971W        W22175  11.182   1.668  13.294 -0.2704  0.2926 -0.1708
 3972W        W22176  15.695  10.049   1.994  0.2805  0.0499  0.3453
 3973W        W22177  11.779   8.527  13.697  0.0270 -0.0202  0.1097
 3974W        W22178   1.986  13.113   3.733  0.0906 -0.0205 -0.0850
 3975W        W22179  17.170   7.790   3.477 -0.1291 -0.0298  0.1301
 3976W        W22180  18.429  18.360   3.661  0.2976 -0.0199  0.0108
 3977W        W22181   8.303  10.759   1.670  0.1197  0.2087 -0.1256
 3978W        W22182  10.615  15.557   3.801 -0.1658  0.2087  0.1474
 3979W        W22183   9.586  15.713   1.988 -0.1135  0.2045  0.2387
 3980W        W22184   0.855  11.496  14.851  0.1294 -0.0692 -0.0424
 3981W        W22185   5.182  16.055   1.144  0.2278  0.1969  0.0935
 3982W        W22186  18.066   5.968  12.639 -0.2714 -0.0374  0.2103
 3983W        W22187  11.008   4.740  12.750 -0.2354 -0.0445 -0.0626
 3984W        W22188  17.453   8.474  11.501  0.2282 -0.1337 -0.0452
 3985W        W22189  10.963   9.197   1.091  0.2335  0.0412 -0.0527
 3986W        W22190   9.385  18.146   4.001  0.1384 -0.0138  0.2027
 3987W        W22191   1.028  18.680  12.945 -0.0967 -0.1185 -0.0217
 3988W        W22192   8.469   8.160   2.621  0.4666  0.0510  0.2793
 3989W        W22193   7.429   2.050  12.016 -0.0318  0.1653  0.0416
 3990W        W22194   3.116  14.490  10.643  0.1250 -0.0757 -0.2493
 3991W        W22195  17.556  18.041   4.217  0.1335 -0.3625 -0.0479
 3992W        W22196   0.084  14.731   3.810  0.0686  0.0055  0.1645
 3993W        W22197  14.539   0.258   1.490 -0.0416  0.3882 -0.1396
 3994W        W22198   1.264  13.724  10.323 -0.2061  0.0290  0.2262
 3995W        W22199  16.229   8.083   0.034 -0.0441 -0.3117 -0.0229
 3996W        W22200  16.569  14.005  12.417 -0.1470 -0.3631 -0.0806
 3997W        W22201  16.000   1.269   3.775  0.1879  0.2345 -0.1646
 3998W        W22202   7.199   6.660   3.189 -0.0243 -0.1935 -0.0255
 3999W        W22203  10.906   3.306  13.142  0.0360  0.1055 -0.2442
 4000W        W22204   7.343  17.105   0.318 -0.0225 -0.1004  0.1713
 4001W        W22205   7.140   1.309   0.665 -0.3570 -0.0331 -0.1978
 4002W        W22206   3.251   2.199  13.423  0.0055 -0.1460  0.1051
 4003W        W22207   5.516   4.586  11.363 -0.3279 -0.3365  0.1453
 4004W        W22208  14.256   3.479  14.227  0.1576 -0.0835  0.3173
 4005W        W22209  16.384   4.524  12.403  0.0822  0.1438 -0.1564
 4006W        W22210   7.751   9.081  13.072  0.1518 -0.2823 -0.1052
 4007W        W22211   4.523  17.874  12.760 -0.2283  0.0798  0.1609
 4008W        W22212   8.629  15.064  12.907 -0.3649  0.4028  0.0208
 4009W        W22213  11.936   3.574  12.152 -0.0168 -0.2022  0.0493
 4010W        W22214  10.518   0.566   0.270  0.1412  0.2532 -0.2254
 4011W        W22215  12.650   1.894   0.738 -0.3779 -0.0843  0.0831
 4012W        W22216  11.894  18.710   1.829  0.0213 -0.4373  0.2456
 4013W        W22217   2.657   1.178  14.063  0.0616 -0.1097 -0.3108
 4014W        W22218   6.506  13.757   9.890  0.0516  0.1947  0.1264
 4015W        W22219  10.563   6.333   5.565 -0.1054  0.1578  0.3175
 4016W        W22220   2.207   1.313  11.396 -0.1632 -0.3577 -0.1011
 4017W        W22221  12.433   5.888   2.475  0.0851 -0.0187  0.0868
 4018W        W22222  15.400  11.583   0.814  0.0755 -0.2324 -0.1327
 4019W        W22223   6.325   5.514   1.914  0.1050 -0.3438 -0.4765
 4020W        W22224   3.086   4.038   3.720  0.1453  0.2102  0.0337
 4021W        W22225  16.404  13.173  12.739  0.1014 -0.1427  0.0717
 4022W        W22226  16.695   2.300  14.573  0.2236 -0.2019  0.2795
 4023W        W22227   8.343   1.705  14.273 -0.1070  0.1252 -0.0751
 4024W        W22228  13.927  10.471  12.064 -0.0487  0.0574  0.1914
 4025W        W22229   5.125  10.747  11.056 -0.1847 -0.0059  0.2052
 4026W        W22230   1.875  14.119   2.791  0.0360 -0.1130 -0.1406
 4027W        W22231  11.268   7.426  11.984  0.0011 -0.1623 -0.3204
 4028W        W22232  11.516   7.274  12.850 -0.1221 -0.0682  0.2647
 4029W        W22233   6.539   2.302   2.534  0.1225 -0.1027  0.1000
 4030W        W22234   1.911  11.994   2.443 -0.0195  0.1127 -0.1221
 4031W        W22235   2.824   9.686   3.000  0.1813  0.3826  0.1405
 4032W        W22236  14.239   6.100   2.586 -0.0704  0.3090 -0.0211
 4033W        W22237   3.637   5.834   0.728  0.1018  0.2690  0.2941
 4034W        W22238  15.945  11.869  14.078  0.1255  0.0940  0.1386
 4035W        W22239   7.165   5.288  11.416 -0.2663  0.1723 -0.0283
 4036W        W22240  17.205   5.121   2.658  0.0389 -0.3032 -0.0430
 4037W        W22241  16.382  15.598  13.895 -0.0237  0.0485  0.1319
 4038W        W22242   3.069  10.646   1.475  0.1811  0.3918  0.1533
 4039W        W22243  16.104  13.790  12.369  0.0563 -0.1824 -0.1336
 4040W        W22244  14.152  11.622   4.057 -0.0028  0.1105 -0.0993
 4041W        W22245  18.200   8.083  11.182 -0.1387 -0.1015  0.1012
 4042W        W22246  15.075  16.169   0.174  0.2050 -0.1531 -0.5564
 4043W        W22247  14.322  18.242  10.844 -0.2607  0.3423 -0.0373
 4044W        W22248  15.165  11.843   2.868  0.0140  0.2854  0.0966
 4045W        W22249   0.730   6.529   9.645  0.0440  0.1371 -0.1018
 4046W        W22250  18.321  17.243   1.394 -0.0512 -0.1782 -0.3843
 4047W        W22251   3.934   0.656   4.794  0.2783  0.2313  0.2436
 4048W        W22252   9.750  15.891   1.018  0.2110 -0.3932  0.0135
 4049W        W22253  14.709  15.172  10.224  0.1612  0.2082  0.1884
 4050W        W22254   4.147   4.397  11.634 -0.0063  0.2048 -0.2051
 4051W        W22255   6.264   0.127   0.566 -0.2526  0.1144  0.0383
 4052W        W22256   8.283   3.754   3.716  0.0945  0.0292  0.1741
 4053W        W22257   3.355  15.734  12.511 -0.0754  0.0942 -0.2907
 4054W        W22258   9.952  13.713  12.293 -0.1616  0.1394  0.0521
 4055W        W22259   9.186  15.945  12.393 -0.0706 -0.0855  0.3362
 4056W        W22260  15.018   2.309  11.586 -0.1484  0.0596 -0.1903
 4057W        W22261   2.713  14.048   5.191 -0.1976 -0.2344  0.3085
 4058W        W22262  11.159   2.984  10.859  0.1877  0.0208  0.0137
 4059W        W22263   5.343  15.105   0.651 -0.2334  0.0023 -0.1853
 4060W        W22264   9.396   1.018   0.063  0.0823  0.0486  0.1122
 4061W        W22265  11.048   1.282   2.003 -0.1725  0.0333 -0.0369
 4062W        W22266  11.155  10.906   0.568  0.1367  0.2314  0.1664
 4063W        W22267  16.526  15.995  12.999 -0.0713  0.0229  0.0308
 4064W        W22268   6.985  15.710   0.710  0.1238 -0.1201  0.0199
 4065W        W22269   3.421   0.846   5.601  0.1886  0.1766 -0.0149
 4066W        W22270  13.025   1.738  11.223  0.0690 -0.2074 -0.4750
 4067W        W22271  10.356  18.935   1.924  0.1880 -0.2401  0.1438
 4068W        W22272   4.186   5.093   1.954 -0.0487 -0.0446 -0.0704
 4069W        W22273   6.280  10.420  13.911  0.0685 -0.0197  0.0349
 4070W        W22274   5.432   4.001  13.952 -0.3726 -0.1492 -0.2939
 4071W        W22275   0.008  15.079  12.892 -0.0775  0.2605 -0.0324
 4072W        W22276   1.175  15.393  13.464 -0.4690 -0.1782  0.1968
 4073W        W22277   5.090   1.560   2.775 -0.1720  0.0304 -0.2277
 4074W        W22278   4.098  15.137   1.056  0.2885 -0.1289 -0.1306
 4075W        W22279  15.042  16.543  13.889  0.1494  0.1504  0.1421
 4076W        W22280   0.962   2.442  11.107  0.1469  0.0372 -0.0203
 4077W        W22281  11.868   8.379  12.095 -0.1375  0.1747 -0.4111
 4078W        W22282   6.397   7.278  11.954 -0.0932  0.4201  0.0268
 4079W        W22283  17.023  10.234   4.057  0.2378 -0.2291  0.0920
 4080W        W22284   2.218   7.154   3.234 -0.1683 -0.0736 -0.0418
 4081W        W22285  10.864   2.893   3.827 -0.1502  0.3607 -0.0260
 4082W        W22286   5.215  17.927   2.422  0.0982  0.2043 -0.0685
 4083W        W22287   5.381  18.376  11.963  0.0000  0.0039 -0.0414
 4084W        W22288  16.343   0.608  12.599 -0.2367  0.0453 -0.0302
 4085W        W22289  15.246   4.676   2.501  0.1452 -0.1309 -0.1870
 4086W        W22290   3.935   6.024   0.323 -0.3448  0.1826  0.0416
 4087W        W22291  12.951  18.909  14.942  0.0429 -0.0635  0.2349
 4088W        W22292  18.451   1.155  11.623 -0.0370 -0.1547  0.0618
 4089W        W22293  14.381   2.985   1.902 -0.2128  0.1186  0.2019
 4090W        W22294  12.915  12.048   1.409  0.0004  0.1139  0.1591
 4091W        W22295   8.486   7.136  12.871  0.0521 -0.1657 -0.0102
 4092W        W22296   3.482   2.523  10.987 -0.0834  0.2327 -0.1776
 4093W        W22297  10.018   1.025   0.924 -0.0646 -0.0713 -0.0126
 4094W        W22298   8.962  14.691  12.662  0.0599  0.1077 -0.2460
 4095W        W22299   3.318   7.816   0.996 -0.4316  0.0537 -0.2599
 4096W        W22300  17.296   8.277  12.000 -0.1893 -0.1325 -0.0674
 4097W        W22301  18.138   1.517  10.727 -0.0436  0.3104 -0.0124
 4098W        W22302  17.732  13.256   2.433 -0.2182  0.2439  0.1952
 4099W        W22303   0.531   9.613  12.745 -0.2392  0.2067 -0.2465
 4100W        W22304   7.533  11.312   3.177 -0.2632  0.1669  0.1487
 4101W        W22305  17.893  11.895   3.923 -0.2366 -0.0664  0.1598
 4102W        W22306   2.963   6.078  11.433  0.0631 -0.2484 -0.2983
 4103W        W22307   2.207  15.455  10.418 -0.0914 -0.0906  0.2074
 4104W        W22308   7.762   1.080   0.141  0.2205  0.1236  0.1145
 4105W        W22309   3.817   4.671  14.857 -0.2942 -0.3456 -0.0816
 4106W        W22310  11.916   5.420  10.617  0.3668  0.0127  0.0762
 4107W        W22311   2.701   8.742   4.491 -0.1461  0.1766  0.1627
 4108W        W22312  16.285   4.555   4.308  0.1320 -0.0971  0.1202
 4109W        W22313   6.959   4.032   0.288  0.1551 -0.1242 -0.0920
 4110W        W22314  16.678   1.641   2.659 -0.4575 -0.2644  0.0806
 4111W        W22315  10.635   0.797  14.310 -0.1431 -0.2459  0.0670
 4112W        W22316   1.014  11.776   2.870  0.0358 -0.3529  0.1346
 4113W        W22317  12.011  10.945  10.505  0.0426  0.2079 -0.0782
 4114W        W22318   0.213  17.115   0.030  0.0103  0.1561  0.2603
 4115W        W22319  11.401  11.560  14.178  0.0535  0.2510  0.2370
 4116W        W22320   1.967   9.022   3.906  0.1765  0.1197  0.3751
 4117W        W22321   5.135   1.659   4.974 -0.5016  0.0997  0.1428
 4118W        W22322  10.508  15.822  11.428 -0.0313  0.0027 -0.0568
 4119W        W22323   3.302  11.096   2.553  0.0174  0.0799  0.0390
 4120W        W22324  18.587  15.507   2.126 -0.0405 -0.2901  0.0185
 4121W        W22325  11.799   1.109  12.467 -0.0422  0.0853 -0.2798
 4122W        W22326  14.736  16.334   1.997  0.1425 -0.0295  0.1163
 4123W        W22327   2.915   1.493  14.346  0.1227 -0.2000 -0.4241
 4124W        W22328   2.636   5.444  14.888 -0.0853  0.0699 -0.2157
 4125W        W22329   6.764   6.329   1.743  0.2067  0.1710  0.0092
 4126W        W22330   6.022   3.939  14.835  0.0995 -0.2570 -0.0842
 4127W        W22331  18.236   3.605   3.857 -0.4436  0.1368 -0.4162
 4128W        W22332   1.963  18.466  14.195  0.1255  0.0789 -0.0041
 4129W        W22333   4.572   3.892   0.829  0.0727 -0.1305 -0.1346
 4130W        W22334  13.665  16.407  11.017  0.0111 -0.1885  0.3503
 4131W        W22335  16.412   1.679   4.415 -0.0943  0.1463 -0.1786
 4132W        W22336   0.074   5.861   4.042 -0.0907  0.3738  0.1348
 4133W        W22337   0.484  16.098  11.525  0.0905 -0.1085  0.0040
 4134W        W22338   8.725   8.550  11.212 -0.1743 -0.1043 -0.1396
 4135W        W22339   8.834   9.574  11.540 -0.1991 -0.0210  0.1361
 4136W        W22340   5.259   5.087   2.121  0.2492 -0.0184 -0.4471
 4137W        W22341  15.896  14.725   2.396 -0.0668  0.2338  0.2840
 4138W        W22342   7.162   1.384   3.283 -0.2291  0.2034 -0.2752
 4139W        W22343  16.690  12.325   2.678 -0.0481 -0.0328  0.3507
 4140W        W22344  18.140   6.415   3.813 -0.1859  0.2533 -0.1087
 4141W        W22345   0.908   5.109   4.238  0.0943 -0.1192  0.6324
 4142W        W22346   5.675   1.853  14.088 -0.1636  0.2507 -0.1346
 4143W        W22347   2.073   7.690   2.820  0.1509 -0.2522  0.2330
 4144W        W22348   0.066   5.325  11.739 -0.1556 -0.0818  0.1888
 4145W        W22349   6.527  11.056   0.189  0.0538 -0.5355  0.0676
 4146W        W22350   1.301  14.038  12.995  0.1029  0.0519  0.1399
 4147W        W22351   9.631  16.180   1.874  0.1392 -0.1305 -0.5746
 4148W        W22352   7.918   2.856  12.262  0.3071  0.0607  0.1352
 4149W        W22353  14.857  16.605   3.081 -0.1234  0.0313  0.3314
 4150W        W22354  11.360   7.173  14.256 -0.2010  0.3392 -0.0829
 4151W        W22355  15.042  14.825  14.980 -0.3581 -0.1686  0.1369
 4152W        W22356   9.928  18.688   1.505  0.0025 -0.2990  0.1045
 4153W        W22357  17.809  18.628   1.743  0.1360  0.0377  0.0327
 4154W        W22358  14.070   7.369  12.549 -0.1846  0.2890 -0.1493
 4155W        W22359  10.983   9.117   5.639 -0.1311 -0.1161 -0.0062
 4156W        W22360  18.325   8.756   1.583  0.2526  0.2389  0.0614
 4157W        W22361  15.073   8.705  10.840  0.1648  0.1289  0.0259
 4158W        W22362   1.144   3.921  12.743 -0.1439  0.1503  0.1644
 4159W        W22363  11.579   6.627   1.794 -0.0499 -0.0383  0.0215
 4160W        W22364   7.754  18.942   1.634 -0.0748  0.0232 -0.0563
 4161W        W22365   5.154  16.989  13.944  0.0588 -0.0903  0.1276
 4162W        W22366  11.338   6.689   4.002 -0.0020 -0.1905 -0.1960
 4163W        W22367   4.368  12.787   3.617 -0.1245 -0.0290  0.2113
 4164W        W22368   7.109   1.785  12.745 -0.2266 -0.3636 -0.0117
 4165W        W22369   9.681   0.847   4.382  0.1323  0.2122 -0.0933
 4166W        W22370  17.447   3.192   0.220  0.1809  0.0049  0.0404
 4167W        W22371  16.143  18.566  14.591  0.3422  0.0352  0.1824
 4168W        W22372  17.742  18.403  13.889 -0.3233 -0.2346  0.2035
 4169W        W22373  13.418   6.898  12.695  0.0629  0.1573 -0.0141
 4170W        W22374  16.225   9.848   3.427 -0.0214  0.1785  0.1325
 4171W        W22375   3.803  12.704   3.638 -0.1431 -0.0856 -0.1063
 4172W        W22376   0.490   4.519  14.437  0.0477  0.3138  0.0974
 4173W        W22377  12.609  18.155   2.989 -0.0483 -0.1961 -0.0198
 4174W        W22378  17.360   6.587   0.638  0.1556  0.2167 -0.0623
 4175W        W22379  17.196   0.578  12.666 -0.3188  0.0595  0.0945
 4176W        W22380   2.237  15.692  12.196 -0.2854 -0.0062 -0.2352
 4177W        W22381  12.071   1.940   9.929  0.2917  0.2422 -0.2396
 4178W        W22382   6.042   1.613   2.513 -0.2257  0.1561 -0.0986
 4179W        W22383   0.097  12.788   2.943 -0.1647 -0.2652  0.0475
 4180W        W22384  12.805  13.932  12.619  0.3400 -0.0456 -0.0696
 4181W        W22385   1.149   1.479  12.633 -0.1762  0.1366  0.0846
 4182W        W22386   7.464   7.989  12.129  0.0861 -0.0725  0.2211
 4183W        W22387  10.155  12.201  13.434 -0.1848 -0.3370  0.0407
 4184W        W22388   3.142   1.317  13.058 -0.2627  0.1490 -0.0037
 4185W        W22389  13.271   6.911  10.727  0.0783  0.0029 -0.0204
 4186W        W22390   3.012  18.781   4.704 -0.0109  0.2134 -0.0672
 4187W        W22391   3.894   1.679  11.245  0.0367  0.1556  0.0470
 4188W        W22392   9.376  11.852   5.422 -0.0967 -0.0139  0.1150
 4189W        W22393   4.491   9.574   2.593  0.3089  0.1142 -0.4269
 4190W        W22394   2.850  12.954   0.756 -0.2639  0.1304  0.0368
 4191W        W22395   9.706   8.878   0.767 -0.0569  0.2286  0.1681
 4192W        W22396  17.398  12.806  14.684 -0.2846  0.1794  0.1513
 4193W        W22397   5.891   3.500  13.293  0.0029  0.1065  0.0051
 4194W        W22398   2.790   5.467  13.980  0.2091 -0.0656 -0.0554
 4195W        W22399  12.177   2.362   9.555 -0.1711  0.1028  0.2104
 4196W        W22400   0.165  15.210   9.311  0.0757 -0.1886  0.0296
 4197W        W22401  12.032  12.523   1.950  0.1610  0.1653  0.0296
 4198W        W22402   6.904  12.452   3.067 -0.1185 -0.1947 -0.0218
 4199W        W22403   2.164  14.830  12.952 -0.2272 -0.1163  0.1097
 4200W        W22404  11.031  13.297   0.355  0.0413 -0.3117 -0.5078
 4201W        W22405  18.041  15.260   1.112  0.4611 -0.0907 -0.4354
 4202W        W22406  10.089  17.958  10.456  0.3543 -0.2684  0.1430
 4203W        W22407   9.082   7.189  14.158  0.0584 -0.0098 -0.0022
 4204W        W22408   4.602  11.799   3.202  0.0119  0.1489 -0.1613
 4205W        W22409   3.298  13.399   2.027 -0.1161 -0.4239  0.0012
 4206W        W22410   4.468   0.426   2.202  0.0056  0.2333 -0.1864
 4207W        W22411  13.015   5.633   3.805  0.2687 -0.1020  0.0204
 4208W        W22412   3.048   3.549   4.009 -0.1206 -0.1393 -0.2310
 4209W        W22413   6.787  13.848   0.459 -0.1248  0.1970 -0.1364
 4210W        W22414  18.470  13.529   2.060 -0.1916  0.1827  0.0702
 4211W        W22415   3.588   8.014  11.858 -0.1004 -0.0532  0.0380
 4212W        W22416  13.920   9.086  14.594  0.3732 -0.1211  0.0631
 4213W        W22417   6.950  15.277  13.952 -0.1558  0.2920 -0.1988
 4214W        W22418  16.649   7.330  10.144  0.3413  0.0539 -0.2381
 4215W        W22419   4.082  16.657   0.777  0.0028 -0.2194  0.2033
 4216W        W22420  13.719   3.407  10.882  0.1169 -0.2165 -0.4244
 4217W        W22421   6.937   9.031  14.397 -0.0864 -0.0574 -0.3039
 4218W        W22422  14.078   6.508  14.322  0.1884 -0.2318  0.0530
 4219W        W22423   8.652  13.556  12.843  0.1026  0.0670  0.0673
 4220W        W22424   8.470   6.634   2.500  0.0556 -0.1187 -0.3234
 4221W        W22425  17.785   4.136  12.910 -0.2352 -0.1179 -0.1322
 4222W        W22426   8.040  11.301   4.261  0.2914  0.5339  0.2134
 4223W        W22427  10.849  14.126  14.367 -0.1709 -0.2538 -0.0138
 4224W        W22428  12.794   9.862   0.799 -0.0628  0.1038  0.0527
 4225W        W22429  14.130  18.656  11.007  0.0360 -0.0069 -0.1574
 4226W        W22430  18.929  14.349   2.306  0.0099 -0.1204 -0.0185
 4227W        W22431   6.761  10.995  13.156 -0.0658  0.1262 -0.1487
 4228W        W22432  16.831   7.374   3.565 -0.1126  0.0710 -0.1570
 4229W        W22433  18.819   0.688  12.134  0.0236  0.0093 -0.2125
 4230W        W22434  11.171   9.917   2.470 -0.3602  0.0737 -0.2320
 4231W        W22435   7.245   7.987   0.159 -0.2077 -0.0728 -0.2828
 4232W        W22436  12.765  11.492  14.262  0.1841  0.2985 -0.0058
 4233W        W22437  13.958  13.256   0.984 -0.0205 -0.1157 -0.1322
 4234W        W22438  13.961   6.083   4.034  0.0917  0.0856 -0.0038
 4235W        W22439   6.861  14.902  12.642 -0.1060 -0.2555  0.0748
 4236W        W22440  17.221   3.975  11.382  0.0908  0.0028  0.0385
 4237W        W22441  16.336  15.435  12.971 -0.0590 -0.0446 -0.2702
 4238W        W22442  10.586   5.980  12.146 -0.1052  0.1735 -0.0415
 4239W        W22443  16.195   7.567   0.095  0.3475 -0.2472 -0.1469
 4240W        W22444  16.409   3.080   3.724  0.1030  0.3050 -0.3824
 4241W        W22445  10.838   2.693  12.391  0.0444  0.1738 -0.0191
 4242W        W22446   3.146  13.742   5.062  0.0256  0.0039  0.4078
 4243W        W22447  16.070  13.271  14.564 -0.1398 -0.3698  0.0487
 4244W        W22448   4.731   3.003   3.182 -0.0748  0.1788 -0.1101
 4245W        W22449   8.342   1.998  12.621  0.1739 -0.1242  0.3479
 4246W        W22450  13.641   8.771   4.865 -0.1259 -0.2461 -0.0228
 4247W        W22451   0.922  12.226   2.547  0.1508 -0.1588 -0.1821
 4248W        W22452  17.659   8.444  13.208  0.0429  0.2490  0.1138
 4249W        W22453  11.723  12.863  11.425  0.1023 -0.0747 -0.1130
 4250W        W22454   8.113  12.676  14.600 -0.1224  0.0786 -0.0075
 4251W        W22455   6.586  10.505   1.622  0.0909 -0.0305  0.1655
 4252W        W22456   7.250  18.025  13.444  0.0647 -0.2421 -0.0357
 4253W        W22457   8.381  16.841   3.562 -0.0756  0.1340 -0.1915
 4254W        W22458  12.785  12.980   4.658 -0.1359 -0.0234  0.0480
 4255W        W22459  16.978  13.325  10.663  0.0449  0.2264  0.0806
 4256W        W22460  10.158   9.333   3.070  0.0155  0.0241 -0.2324
 4257W        W22461   7.060   6.495  11.866  0.1455  0.2193 -0.2093
 4258W        W22462   5.849  13.842  10.979 -0.0891  0.1191 -0.1954
 4259W        W22463  13.205  12.974   2.557  0.2325 -0.0616 -0.0416
 4260W        W22464   7.435   5.622   1.973 -0.4143  0.1395 -0.4653
 4261W        W22465   0.361   8.630   5.561 -0.1044  0.2860 -0.1702
 4262W        W22466   3.119   6.602  10.215  0.1703  0.0204 -0.0745
 4263W        W22467   5.549  14.818   3.817  0.0799 -0.0977 -0.0154
 4264W        W22468   1.440   0.313   4.206  0.2992 -0.2297  0.2031
 4265W        W22469   4.830   9.964   1.778  0.0930 -0.2361  0.2777
 4266W        W22470   1.231  15.341  12.960 -0.2628 -0.1400  0.1427
 4267W        W22471   8.900   0.284   0.748  0.2122 -0.1636 -0.1150
 4268W        W22472   5.577  17.686   4.523 -0.0470 -0.1951  0.1681
 4269W        W22473   1.404  14.582   9.219 -0.3121 -0.0219 -0.0543
 4270W        W22474  17.093  13.331   5.036  0.0168 -0.1612 -0.3455
 4271W        W22475  10.017  18.283  12.745  0.1040  0.0518  0.0903
 4272W        W22476   1.071   8.424  14.245  0.1192  0.3424 -0.3683
 4273W        W22477   2.684  15.822   1.091 -0.1806 -0.2358 -0.1731
 4274W        W22478   6.730   1.739  10.105  0.1606  0.1197 -0.0799
 4275W        W22479  11.352  13.821  11.264  0.1610 -0.0231  0.1224
 4276W        W22480  15.178  10.086  14.913 -0.0441  0.1377 -0.0577
 4277W        W22481  18.896   4.314   4.415 -0.1445 -0.0624 -0.0052
 4278W        W22482  14.211   1.952   1.247  0.1154 -0.0970 -0.0531
 4279W        W22483   8.448  13.676   1.210  0.1707 -0.2121 -0.2901
 4280W        W22484   4.308  13.424   4.658 -0.0926  0.1059  0.3106
 4281W        W22485   2.630  14.250   1.933 -0.1541 -0.0370 -0.0359
 4282W        W22486   7.913   8.749  11.277 -0.1069  0.2298  0.1722
 4283W        W22487   6.004   7.150   1.175 -0.2298  0.2476  0.2598
 4284W        W22488  12.856  12.091   0.638 -0.1672  0.2854 -0.2427
 4285W        W22489   7.123  15.137   2.739 -0.1452  0.0171  0.1327
 4286W        W22490   7.476   7.057   3.855 -0.0688 -0.1371 -0.2780
 4287W        W22491  12.484   8.311  14.254  0.0027 -0.1277 -0.0079
 4288W        W22492  15.367  10.526   2.601 -0.0494  0.0743  0.3297
 4289W        W22493  18.942   2.470  14.033  0.1392 -0.1747  0.1884
 4290W        W22494   7.517  18.168  12.196  0.3325 -0.0716  0.0503
 4291W        W22495  11.139  15.121  11.222  0.2156  0.1370  0.0079
 4292W        W22496  12.228   8.136   5.013 -0.4531 -0.2457  0.2671
 4293W        W22497   6.001   2.402   3.402 -0.0811 -0.0073  0.1026
 4294W        W22498  10.442   5.277  13.268 -0.1320  0.0268  0.1542
 4295W        W22499  11.293  13.723   0.454 -0.2406  0.2036 -0.1177
 4296W        W22500   2.390  17.790  10.705  0.3331  0.0881  0.4745
 4297W        W22501  13.097  16.473  12.928 -0.0631 -0.1468  0.1916
 4298W        W22502  11.835  18.075  10.621 -0.1286 -0.2798 -0.3901
 4299W        W22503  14.570  18.202   1.556 -0.4170 -0.2479 -0.0689
 4300W        W22504   8.974   4.746   1.757  0.3749 -0.0758  0.2809
 4301W        W22505   6.227  10.498  12.650 -0.2677 -0.0563  0.1378
 4302W        W22506   2.202   8.256  15.013 -0.0003  0.0519  0.0380
 4303W        W22507  15.653  18.827   3.102 -0.3011 -0.0774 -0.0363
 4304W        W22508   7.911   9.554  10.709 -0.1681 -0.1633 -0.2017
 4305W        W22509   9.749   1.720   4.175 -0.2256 -0.0943 -0.0030
 4306W        W22510   5.533  11.637  12.067  0.1844 -0.1435  0.0522
 4307W        W22511   0.618  12.523  11.104 -0.3798 -0.0257 -0.1843
 4308W        W22512   8.133  15.823   2.789  0.0422  0.0681  0.1947
 4309W        W22513  13.088  11.985   2.853  0.1356  0.1537 -0.2898
 4310W        W22514  15.178   7.651  13.493  0.2418  0.3260  0.0665
 4311W        W22515  11.190  16.753  10.810  0.5539  0.0305  0.2954
 4312W        W22516  17.632  17.774  11.233 -0.2243 -0.2532  0.0157
 4313W        W22517  11.271  12.832  13.737  0.0441 -0.0288 -0.5996
 4314W        W22518  10.256  13.911   3.604 -0.2003  0.0149 -0.1502
 4315W        W22519  18.124   4.699   0.582  0.0178  0.0824 -0.0250
 4316W        W22520   7.684   0.329  10.167 -0.1733 -0.0777  0.1779
 4317W        W22521   2.894   2.344  10.941 -0.1161  0.0502  0.0015
 4318W        W22522  16.502  18.187   3.318 -0.1395 -0.1910  0.0597
 4319W        W22523  15.435   1.990  14.560 -0.1253 -0.0867 -0.0139
 4320W        W22524   0.145  17.527  12.384 -0.0486  0.1142  0.1175
 4321W        W22525  10.032  17.679  13.718  0.2576  0.3951 -0.0641
 4322W        W22526   0.664  16.365   1.759  0.0209  0.4070 -0.0261
 4323W        W22527   0.398  16.893   2.368 -0.0633 -0.0574  0.0437
 4324W        W22528  17.198   1.306  13.517 -0.3960  0.0586 -0.0563
 4325W        W22529  12.008   8.231  11.463  0.0198 -0.3794  0.1676
 4326W        W22530   8.071   2.281   0.107 -0.1437 -0.0662 -0.0592
 4327W        W22531  14.501  14.619  12.554  0.4052  0.1473  0.4325
 4328W        W22532   7.942   4.512   1.088  0.1453  0.1532  0.3294
 4329W        W22533   0.345   6.706   0.993 -0.0894 -0.2094 -0.1631
 4330W        W22534   5.410   3.057  14.806  0.0569  0.1651 -0.0432
 4331W        W22535   2.601   1.630  13.775 -0.0597  0.2438 -0.0526
 4332W        W22536  17.870  11.678  11.890  0.1797  0.3469 -0.2607
 4333W        W22537  15.444  15.830  10.308  0.1938 -0.0161 -0.0611
 4334W        W22538  18.275   8.899   2.181  0.1568 -0.2407  0.1058
 4335W        W22539  18.269  10.901  14.377 -0.0668  0.3803 -0.0865
 4336W        W22540  18.209  10.695   2.424 -0.1052  0.0802  0.1052
 4337W        W22541  16.087  17.636   4.211  0.0307  0.1502 -0.3249
 4338W        W22542   9.725  16.343  12.681  0.1180  0.0519 -0.1626
 4339W        W22543  14.097   6.482   1.251  0.2121 -0.1084  0.3757
 4340W        W22544  18.598  11.007   3.105  0.1131  0.1142 -0.0440
 4341W        W22545   5.941   9.704   3.968 -0.1810  0.1578 -0.1589
 4342W        W22546  17.075   3.160  14.934 -0.0959 -0.2440 -0.0210
 4343W        W22547   9.818  12.436   1.675 -0.1104  0.2150 -0.0193
 4344W        W22548  14.800  16.449   0.965 -0.1035  0.0247  0.0031
 4345W        W22549  11.271   1.855  13.800 -0.0503  0.0987 -0.2347
 4346W        W22550   7.923   9.106   1.941 -0.4523  0.0936  0.0850
 4347W        W22551  13.567  13.121  14.339  0.1310  0.4063 -0.2428
 4348W        W22552   1.065  13.514  12.230 -0.3691  0.1366 -0.1838
 4349W        W22553   5.388   0.334   3.145  0.0609 -0.0583  0.1206
 4350W        W22554  11.297  15.302   0.864 -0.1599 -0.0211 -0.1106
 4351W        W22555  13.326   2.505   0.480  0.0636 -0.1571 -0.2141
 4352W        W22556   1.630  11.203   0.269  0.1486 -0.0659  0.1961
 4353W        W22557   6.160  11.017  13.776 -0.0022  0.0070  0.2092
 4354W        W22558   4.524  17.885   9.708 -0.0855 -0.3559  0.2836
 4355W        W22559   3.394   0.087   2.042 -0.1113 -0.0018 -0.2774
 4356W        W22560   5.694  15.512  13.263  0.0536  0.2822 -0.1023
 4357W        W22561   3.846   7.691   3.412  0.0114 -0.2427 -0.1551
 4358W        W22562   2.754   6.688  13.860 -0.2475 -0.0784 -0.1383
 4359W        W22563  11.395   3.693   2.641  0.2360  0.0054 -0.4021
 4360W        W22564   7.005   7.567   2.818 -0.1087  0.1504  0.1992
 4361W        W22565   1.061   3.949  13.737 -0.2158 -0.1937 -0.1862
 4362W        W22566   1.464  18.855  11.758 -0.2816 -0.0250 -0.1165
 4363W        W22567   2.280   2.805   2.956 -0.2335 -0.1015  0.1273
 4364W        W22568  12.372   1.128   0.893  0.0283 -0.3175  0.0577
 4365W        W22569   7.904  17.040  12.727  0.0810  0.2805  0.0435
 4366W        W22570  13.923   9.264   4.195  0.1058  0.2506  0.0610
 4367W        W22571   4.929  16.434  14.901 -0.3406 -0.3764 -0.2207
 4368W        W22572  13.832  11.119   2.071  0.3272 -0.0348 -0.2119
 4369W        W22573  17.434  10.179  14.663 -0.1350 -0.1159  0.0507
 4370W        W22574   7.335   7.463  14.062 -0.1234  0.2756  0.0987
 4371W        W22575   9.069  13.930   2.617  0.3488 -0.0558 -0.2807
 4372W        W22576   2.833   3.972   2.172 -0.0805  0.3987  0.0217
 4373W        W22577  12.936  10.244  11.818 -0.0297 -0.0493 -0.2009
 4374W        W22578  13.686   7.589  13.191  0.0020  0.2373  0.0094
 4375W        W22579  18.638  13.106   4.216 -0.0106  0.3591  0.1147
 4376W        W22580   5.254   3.488  12.554  0.0152  0.1026  0.1632
 4377W        W22581  18.816   0.011   2.116  0.3271 -0.0127 -0.2592
 4378W        W22582  10.064  11.509   2.489  0.3170 -0.0499 -0.0923
 4379W        W22583   7.297  11.186   1.538 -0.0400  0.2384  0.2056
 4380W        W22584  13.454  13.135  12.176  0.0773 -0.4069 -0.2504
 4381W        W22585  12.682  11.977  13.852 -0.0545  0.3084  0.3425
 4382W        W22586   0.087  17.977  12.119 -0.0139 -0.0868  0.0656
 4383W        W22587   9.373   2.934   3.238 -0.2044  0.0866 -0.1006
 4384W        W22588   9.297   9.413   3.168  0.0412 -0.0453  0.0331
 4385W        W22589   8.439   6.255   0.644  0.2518 -0.0237 -0.2809
 4386W        W22590  12.387  13.120   1.765 -0.2660 -0.0766 -0.1295
 4387W        W22591  17.364   7.984  13.113 -0.2891 -0.0781  0.0647
 4388W        W22592   7.680  10.448   2.958  0.1591  0.1076  0.1832
 4389W        W22593   5.545   2.078  10.695  0.1874  0.0364 -0.0717
 4390W        W22594  12.909  12.425  12.438  0.0468 -0.0155  0.0095
 4391W        W22595   8.878  16.696   1.847  0.2436 -0.1026  0.0612
 4392W        W22596   4.172  12.645  13.171  0.1640 -0.1637 -0.3889
 4393W        W22597  10.688  16.876   0.197  0.1702  0.0983 -0.0775
 4394W        W22598   4.451   6.767   2.580  0.1465  0.3817 -0.0336
 4395W        W22599   7.664  15.545  12.980 -0.5813  0.1690  0.1413
 4396W        W22600   6.788   1.304   4.179  0.0330 -0.0734  0.0131
 4397W        W22601   8.721   5.139  11.297 -0.0104  0.0258 -0.2682
 4398W        W22602   8.409   4.224   4.110 -0.0709 -0.2859  0.1093
 4399W        W22603  14.234  17.037  11.581 -0.1609  0.3135  0.1182
 4400W        W22604   7.361   1.796   2.985  0.2045 -0.0820 -0.2092
 4401W        W22605  14.949   9.139  12.775  0.0891  0.3170  0.1774
 4402W        W22606   5.799   4.451   1.864  0.0342 -0.0278  0.1387
 4403W        W22607  15.057  13.287   2.898  0.1508 -0.1399  0.5736
 4404W        W22608   8.609   5.527   1.990  0.0863  0.0055  0.0263
 4405W        W22609  18.709   9.144   0.434  0.1747 -0.2185  0.1163
 4406W        W22610  15.782   0.696  13.906  0.3018 -0.0614 -0.2859
 4407W        W22611  11.196   2.742  14.966 -0.1546 -0.3707  0.1019
 4408W        W22612   4.815   1.727  14.289  0.0171 -0.3565 -0.1399
 4409W        W22613   8.043   0.577  11.086  0.2453  0.3162 -0.0235
 4410W        W22614  15.892   0.276   2.788  0.1637  0.0684  0.2786
 4411W        W22615  16.202  12.335   9.943 -0.1161  0.1937  0.0494
 4412W        W22616  13.223   0.450   9.994  0.1985 -0.0545  0.1666
 4413W        W22617  17.426  11.417  14.295 -0.1779 -0.2711  0.0853
 4414W        W22618  12.720   8.803   4.228 -0.1158  0.2099 -0.3467
 4415W        W22619   7.129  13.994   1.382  0.0482 -0.0651  0.1414
 4416W        W22620  16.539   6.242  11.866  0.1207  0.0375  0.0868
 4417W        W22621   4.075   2.924   1.545 -0.5682  0.0992  0.1435
 4418W        W22622   5.594  17.785   2.718  0.1451  0.2888  0.3598
 4419W        W22623   6.744  17.816   0.164  0.0137  0.1375  0.0355
 4420W        W22624  14.164  11.233   2.766  0.0202  0.0889  0.1772
 4421W        W22625  18.730   8.415   3.623  0.0630 -0.0951 -0.0359
 4422W        W22626  18.521   5.376   2.388  0.0425 -0.0924  0.0209
 4423W        W22627  10.014   1.388  12.582  0.1121 -0.1309 -0.0644
 4424W        W22628   2.005   9.771   2.181 -0.0740  0.0472  0.1689
 4425W        W22629   7.777   8.627  12.668 -0.1109 -0.1323  0.1224
 4426W        W22630   3.015  15.654  13.497 -0.0903 -0.0589  0.0810
 4427W        W22631  10.481   5.453  10.922 -0.0170  0.2087 -0.2205
 4428W        W22632  11.729   7.825   2.472 -0.0970 -0.2439 -0.0260
 4429W        W22633   4.109  10.252   1.069  0.1106  0.5368 -0.1839
 4430W        W22634  18.220  17.105   0.053 -0.0315  0.4511 -0.2609
 4431W        W22635   9.824   3.003   0.257 -0.1989  0.0582  0.0508
 4432W        W22636  12.879   9.013  11.748  0.0894 -0.0065 -0.0475
 4433W        W22637  16.414   8.675   1.788 -0.0071 -0.0500  0.0644
 4434W        W22638   4.630  15.245  11.814 -0.1712 -0.1673  0.1936
 4435W        W22639   5.652   8.981   2.411 -0.0717 -0.3324  0.0661
 4436W        W22640  17.510   8.124  11.145 -0.1388 -0.1521  0.2265
 4437W        W22641  17.807   4.351  12.086 -0.1017  0.1011  0.0911
 4438W        W22642  11.138  14.413  10.142 -0.2328  0.0262 -0.1693
 4439W        W22643   5.777  18.206  12.276  0.0652  0.0207  0.0281
 4440W        W22644   6.007  11.620   5.153 -0.0349  0.1411 -0.3506
 4441W        W22645  11.138   8.552  11.311 -0.2698 -0.0570  0.0603
 4442W        W22646  11.237   8.051  14.803  0.2261  0.2753  0.0612
 4443W        W22647   9.236   2.329  10.289 -0.1397  0.0579 -0.0906
 4444W        W22648  17.763   2.485   2.950 -0.3958  0.2445  0.0242
 4445W        W22649  17.062  10.958   4.504  0.1524 -0.0082  0.0992
 4446W        W22650   5.189   8.626   3.650  0.4080 -0.1328  0.5157
 4447W        W22651   8.841   3.955  10.191 -0.0350 -0.0076  0.0320
 4448W        W22652  14.119  10.861   1.806 -0.3045  0.0223 -0.1530
 4449W        W22653   3.372   0.449  11.871 -0.2829 -0.0347  0.2296
 4450W        W22654   3.688  14.243  11.982  0.0346  0.0861  0.1458
 4451W        W22655   2.953  11.776   1.082 -0.1907  0.1786  0.1285
 4452W        W22656   3.153  14.113   0.945  0.1381  0.1967  0.0556
 4453W        W22657   9.349  18.176  11.629 -0.1712  0.0082 -0.0353
 4454W        W22658  14.472   0.711   0.953  0.1728  0.1108  0.2937
 4455W        W22659   8.831   7.344   2.342 -0.1553 -0.0116  0.0500
 4456W        W22660   7.163   7.848  14.314  0.4169 -0.0447  0.2796
 4457W        W22661  14.615  11.318  14.247 -0.3723  0.3469 -0.0450
 4458W        W22662  17.396   4.254   3.731 -0.1011 -0.0416  0.0133
 4459W        W22663  15.894   6.351   2.647 -0.1200 -0.2511 -0.2345
 4460W        W22664  18.038   9.807  11.305 -0.0778 -0.5331  0.1904
 4461W        W22665   2.817   8.765   0.933  0.1559  0.0028 -0.1208
 4462W        W22666   1.391  15.233  14.088  0.3527 -0.0049  0.2521
 4463W        W22667   0.121  13.007  14.561  0.0505 -0.0588 -0.1906
 4464W        W22668   2.402   1.668  14.326 -0.0572 -0.0540 -0.0416
 4465W        W22669  18.166   7.469  13.983  0.2345 -0.3441  0.2630
 4466W        W22670   6.554  15.802   2.835 -0.1197 -0.0582  0.2392
 4467W        W22671  17.492   1.130  10.305  0.2226  0.0099 -0.1006
 4468W        W22672  14.034  13.633   1.882 -0.1083  0.1518  0.0093
 4469W        W22673  15.489  17.185   1.915  0.0190 -0.0180  0.0806
 4470W        W22674  14.056   0.157  11.209 -0.1095  0.0468 -0.2763
 4471W        W22675   0.803  15.120  12.731 -0.0782 -0.4474 -0.1091
 4472W        W22676  15.137   8.827  13.925 -0.2594  0.0653  0.2006
 4473W        W22677   4.292  14.688   4.048 -0.1032 -0.0081 -0.0319
 4474W        W22678   6.180   0.749   2.822  0.0247  0.0125  0.1882
 4475W        W22679  17.357  14.523  12.775 -0.1559  0.6158 -0.3472
 4476W        W22680  14.735  18.804   2.591 -0.2404  0.2386  0.3018
 4477W        W22681   4.092  11.077  10.772 -0.4742  0.2196 -0.0671
 4478W        W22682  14.653   3.387   2.738  0.1984 -0.2145  0.1440
 4479W        W22683  13.332   7.135   2.738  0.1065 -0.1175  0.1268
 4480W        W22684   7.243  18.194   2.425  0.0275 -0.0134 -0.1855
 4481W        W22685   4.784   0.168  10.707 -0.6275 -0.2059  0.1923
 4482W        W22686   8.005   9.196   1.477  0.2698 -0.0130  0.0137
 4483W        W22687  11.927   1.609   5.155 -0.2202 -0.0308  0.0839
 4484W        W22688  14.036   5.920  10.889  0.1980  0.0159  0.2589
 4485W        W22689   6.851   6.843  13.708  0.0291 -0.1587 -0.0537
 4486W        W22690  13.662  10.077   1.720  0.1872  0.2225  0.0638
 4487W        W22691   0.364   8.501   1.010  0.0074  0.1899 -0.5539
 4488W        W22692  15.260  11.453   3.264  0.0984 -0.3442 -0.2107
 4489W        W22693  16.461   5.086   3.212 -0.0975 -0.3098 -0.0639
 4490W        W22694  12.594   4.230  11.115  0.1476  0.0367  0.2209
 4491W        W22695  17.127   3.666   1.575 -0.0711 -0.1899  0.1568
 4492W        W22696  15.114   2.662   0.797  0.2764 -0.0129 -0.1460
 4493W        W22697  10.608  14.495  11.096  0.3412  0.0272 -0.0907
 4494W        W22698   8.830  13.410   2.398 -0.0675  0.1802  0.0792
 4495W        W22699   2.888  12.822  11.045  0.2560 -0.2644  0.3019
 4496W        W22700  11.123  14.356  13.937 -0.1852  0.1832  0.0781
 4497W        W22701  11.078   4.276  11.216  0.2235  0.2825  0.1770
 4498W        W22702  18.151  17.558  12.014 -0.3128  0.1347 -0.0283
 4499W        W22703   0.622   2.344   0.144 -0.0841  0.1289 -0.1428
 4500W        W22704   6.087  16.237   4.526  0.2293 -0.0780 -0.0834
 4501W        W22705   7.831   4.554   2.082  0.1624 -0.2282 -0.0441
 4502W        W22706  14.971  18.512  11.218 -0.4142  0.0689  0.0707
 4503W        W22707   3.982   3.031  14.081 -0.3131 -0.0663  0.0499
 4504W        W22708   3.766   5.017  13.765 -0.0047  0.0953  0.1056
 4505W        W22709  17.224  16.551  10.817 -0.5616 -0.0063  0.0741
 4506W        W22710  16.561   1.568   3.339 -0.1663 -0.0046 -0.0040
 4507W        W22711   6.092  17.674   2.853 -0.1638 -0.0997  0.0518
 4508W        W22712   4.630  15.279  14.116 -0.3102 -0.1548 -0.0113
 4509W        W22713  10.160  13.778   2.738 -0.2093  0.0667  0.4666
 4510W        W22714   8.117  14.148  14.802 -0.0020 -0.1417 -0.2654
 4511W        W22715  10.767  15.176   2.405  0.0379 -0.0971 -0.1076
 4512W        W22716   4.476  13.106  11.356  0.0883 -0.1469  0.1014
 4513W        W22717  12.414   7.948   1.581  0.1755 -0.2218  0.0537
 4514W        W22718   3.602   3.571  12.582  0.0700  0.0731 -0.1703
 4515W        W22719   7.388  13.583   1.352 -0.1667 -0.2868 -0.1288
 4516W        W22720  16.454  12.232   4.475  0.0385  0.1700  0.0473
 4517W        W22721  11.765   2.157  13.880  0.1724 -0.1185 -0.2241
 4518W        W22722  11.392  12.419  14.874 -0.2367  0.2474 -0.3994
 4519W        W22723   4.421   2.218   1.898  0.1817 -0.4034 -0.3022
 4520W        W22724  13.253  10.545   4.524  0.1752 -0.3167 -0.0216
 4521W        W22725   3.069   6.939   4.920 -0.0358  0.0215 -0.0870
 4522W        W22726   1.455   8.916   0.346 -0.1796 -0.1662  0.0628
 4523W        W22727   8.755  18.220  14.364 -0.3129  0.0940 -0.0930
 4524W        W22728  12.137   5.892   1.152 -0.3085 -0.2575  0.1769
 4525W        W22729  18.284   9.383  12.207 -0.1364 -0.2928 -0.2106
 4526W        W22730  16.185   0.666   3.003 -0.0651 -0.1617 -0.1883
 4527W        W22731   1.372   8.969  13.476  0.0403 -0.2522  0.1595
 4528W        W22732  11.278   8.087  11.566  0.0180  0.2527  0.0026
 4529W        W22733  16.968   1.998   3.213 -0.0272  0.1429  0.0599
 4530W        W22734  14.819   9.887   5.530 -0.1480 -0.0523  0.2261
 4531W        W22735   2.031   5.436  12.461 -0.1511 -0.0377  0.0924
 4532W        W22736   7.417   4.150  14.309 -0.0943 -0.0392  0.2002
 4533W        W22737   1.530   2.727   2.314  0.0659 -0.0823  0.1468
 4534W        W22738  10.063  17.929   0.078 -0.1631  0.1637  0.0443
 4535W        W22739   7.240  15.931   3.200  0.0386 -0.2398  0.4111
 4536W        W22740   1.246   9.475   2.770 -0.2039  0.1434  0.1038
 4537W        W22741   8.263   5.446   0.205  0.1328 -0.2721 -0.1864
 4538W        W22742  18.844  17.506  11.301 -0.4896  0.3308  0.0299
 4539W        W22743  17.973   8.526   1.884  0.0095 -0.0026 -0.0929
 4540W        W22744   9.147   2.268   3.132  0.2546 -0.1923  0.1356
 4541W        W22745  13.205  12.170  12.172  0.1067 -0.0876  0.1792
 4542W        W22746   2.374  18.243   0.522 -0.0253 -0.3347  0.1174
 4543W        W22747   4.790   1.100   4.804  0.2611  0.1407 -0.1076
 4544W        W22748   8.424   2.893  13.109 -0.0015 -0.0689  0.1550
 4545W        W22749   9.050   7.593  12.116  0.1908  0.0889 -0.0090
 4546W        W22750  16.614  11.841   3.516 -0.1872 -0.0308 -0.1444
 4547W        W22751  15.427   9.796   9.513 -0.0871  0.2557 -0.2972
 4548W        W22752  15.464   3.145  11.289 -0.0262 -0.0996  0.0823
 4549W        W22753  16.271  12.422   3.911 -0.1017 -0.1985  0.0277
 4550W        W22754  16.060   7.266  11.127 -0.2238  0.2268 -0.0552
 4551W        W22755   3.830  16.550  14.429 -0.3882  0.2070 -0.0583
 4552W        W22756  13.494  10.955  13.488  0.1054  0.0839 -0.0161
 4553W        W22757   5.926   0.069  13.288  0.2929 -0.1512  0.0990
 4554W        W22758  16.180   3.776   2.792  0.1270  0.1551  0.3985
 4555W        W22759   4.688   2.166  12.395 -0.0605  0.2040  0.1219
 4556W        W22760   8.147  12.794   3.663 -0.1347  0.1400 -0.1282
 4557W        W22761  14.451  12.694  15.018 -0.2894 -0.0679 -0.2027
 4558W        W22762   3.448   6.457  13.532 -0.0374 -0.0018 -0.1352
 4559W        W22763  12.463   1.897   2.042 -0.1000 -0.0497 -0.3542
 4560W        W22764  11.379  12.889   3.135  0.0076  0.0292  0.2251
 4561W        W22765   5.935  13.671  13.180  0.1673 -0.0855  0.0162
 4562W        W22766  15.754  12.011  12.762 -0.5001  0.2596 -0.5151
 4563W        W22767  15.865  11.749  12.364  0.0722 -0.1304 -0.1622
 4564W        W22768  17.050   7.704  13.447  0.2372 -0.0099  0.1923
 4565W        W22769  16.778   0.524  12.916  0.2429 -0.0818 -0.0844
 4566W        W22770  16.978   2.603  14.219 -0.0530  0.3314  0.1842
 4567W        W22771   9.139   5.986  11.431 -0.0814 -0.1585 -0.1271
 4568W        W22772  13.974  10.097   4.628  0.0611 -0.2664 -0.0369
 4569W        W22773  10.627  13.955   2.693 -0.2065 -0.3645 -0.0210
 4570W        W22774   1.376   5.168   2.013  0.1165 -0.0293  0.0769
 4571W        W22775  11.268   0.394   4.007  0.1041  0.1292  0.0459
 4572W        W22776   8.351   7.140   2.393  0.2079  0.5674  0.4960
 4573W        W22777   6.913   0.922   3.378  0.2310  0.2177 -0.0871
 4574W        W22778   7.581  13.216   1.040  0.0806 -0.1045  0.0689
 4575W        W22779  12.248   0.328  10.247  0.0673  0.4696 -0.0285
 4576W        W22780  14.689  14.718  14.577 -0.0967 -0.1064  0.2707
 4577W        W22781  17.191   5.655  12.361  0.0434 -0.1516  0.0884
 4578W        W22782  17.175   3.143   3.413 -0.0074  0.1917 -0.0566
 4579W        W22783  15.926   4.009   1.948 -0.0893 -0.0248 -0.3108
 4580W        W22784  12.009   5.827   2.296  0.1849  0.1021  0.0451
 4581W        W22785   1.024  17.262   1.202 -0.0305 -0.0347  0.1526
 4582W        W22786   0.885  14.481   2.683  0.0239 -0.0405 -0.0345
 4583W        W22787   3.451  11.312  11.210  0.0780  0.3760  0.0053
 4584W        W22788   6.910   7.578  11.288  0.0583 -0.0272 -0.3061
 4585W        W22789   3.652   5.185  12.500  0.4016  0.0076 -0.2178
 4586W        W22790   7.107  13.605   2.313 -0.1839  0.2991 -0.2067
 4587W        W22791  10.513  15.088   3.841 -0.2435 -0.1525  0.0214
 4588W        W22792   7.040  17.339  12.061 -0.0532 -0.0814 -0.1318
 4589W        W22793  14.538  12.596   1.767 -0.1425 -0.1769  0.0535
 4590W        W22794   5.276  15.579   0.817 -0.2315 -0.0351 -0.2972
 4591W        W22795  14.558  17.331   2.033 -0.0541 -0.0924 -0.1295
 4592W        W22796   0.834  10.942   4.389 -0.1485 -0.0695 -0.0016
 4593W        W22797   5.051   8.215  14.588  0.1404 -0.4019 -0.1519
 4594W        W22798  10.292  14.937  11.139  0.0324 -0.1945  0.2225
 4595W        W22799  12.399   6.247   1.975 -0.3858 -0.0647 -0.3146
 4596W        W22800   6.051   9.258   3.685  0.2864 -0.1753  0.0593
 4597W        W22801  14.195   6.594  13.814 -0.0391  0.0561  0.1939
 4598W        W22802   8.795   5.513   0.528  0.1852 -0.1317  0.0161
 4599W        W22803  12.680  13.659   0.950 -0.0555  0.0405 -0.1087
 4600W        W22804   4.592   8.395  11.788  0.1570 -0.2685  0.2405
 4601W        W22805  18.893   8.248  13.579 -0.2209  0.1765  0.1079
 4602W        W22806  15.691  16.204  12.165  0.0046  0.0899  0.2044
 4603W        W22807   0.843  15.257   2.644  0.0690  0.0037 -0.2294
 4604W        W22808  15.175   8.814  13.314  0.4327  0.0021 -0.0223
 4605W        W22809  17.277  17.873  14.483  0.3317  0.3129 -0.2596
 4606W        W22810  15.591   8.623   1.404 -0.1110  0.1605  0.1225
 4607W        W22811   3.192  14.524  13.353  0.2066 -0.2724  0.0975
 4608W        W22812   7.496   0.889   2.922  0.2306 -0.2286  0.0874
 4609W        W22813   3.478  14.023  11.404 -0.1804 -0.1265 -0.0716
 4610W        W22814   7.220  11.116   2.071  0.0176  0.2697 -0.1618
 4611W        W22815   0.497   6.732  13.286  0.0621  0.0295  0.2285
 4612W        W22816   4.631  11.708   4.100  0.0521 -0.1816 -0.1235
 4613W        W22817   7.494   9.938   2.830  0.1456 -0.1474  0.0514
 4614W        W22818  13.125   3.236   1.908  0.1869  0.1849  0.0764
 4615W        W22819   3.610   8.396  12.753  0.0746 -0.5607  0.0583
 4616W        W22820  13.283  13.326   2.184  0.3212 -0.1767  0.0762
 4617W        W22821  12.964   8.994  12.476 -0.0985 -0.1054 -0.1220
 4618W        W22822  17.978  10.429   0.759  0.1070 -0.0260 -0.1319
 4619W        W22823  13.994   6.884  11.128  0.2607 -0.0266 -0.2318
 4620W        W22824   5.623  12.527  11.609 -0.1384  0.1839  0.4965
 4621W        W22825   5.561   7.279   3.637 -0.0998  0.0750  0.1986
 4622W        W22826  11.665  16.181   3.072 -0.1333  0.1504  0.1327
 4623W        W22827   2.615   1.928  12.506  0.0811  0.0837 -0.1620
 4624W        W22828  17.647  11.072  11.871  0.2929 -0.0963  0.1007
 4625W        W22829   7.040  14.323   3.234 -0.0259  0.0543 -0.0755
 4626W        W22830  12.477   8.542  12.875 -0.0417  0.0877  0.1411
 4627W        W22831  15.757  13.732   3.621  0.1587 -0.1913 -0.3316
 4628W        W22832  18.455   7.869  10.757 -0.1022 -0.3637  0.0518
 4629W        W22833  11.318  16.331  14.141  0.1037  0.0295 -0.1034
 4630W        W22834   4.005  18.019   3.889  0.1843 -0.3108  0.3079
 4631W        W22835  17.506   6.171   0.477  0.0206  0.1858 -0.3259
 4632W        W22836   2.308   0.306   1.793  0.0485 -0.1644 -0.3520
 4633W        W22837  17.817   1.769   2.263 -0.2064  0.3262  0.2083
 4634W        W22838   6.113  17.364   1.270 -0.0022  0.2046  0.0410
 4635W        W22839   1.667  17.853   1.772  0.0299 -0.1287  0.1079
 4636W        W22840  13.502  13.153  13.155  0.0081 -0.0637  0.0382
 4637W        W22841  12.070   5.150  11.445 -0.2426  0.0386  0.0261
 4638W        W22842   4.951  13.854   2.419  0.0123  0.2883  0.1210
 4639W        W22843   1.981   7.929   2.051  0.1029  0.2840 -0.1951
 4640W        W22844  17.379  10.281   0.148  0.0995 -0.2948  0.0375
 4641W        W22845  17.508  16.104  13.062 -0.2449 -0.2318  0.2089
 4642W        W22846   8.500   3.370  14.193  0.1862  0.3009  0.1301
 4643W        W22847   7.455  17.037  11.207  0.1657  0.1888  0.0400
 4644W        W22848  17.221   0.648   9.580 -0.0988 -0.1724 -0.3195
 4645W        W22849  15.836  12.985   1.967  0.1237 -0.0025  0.2210
 4646W        W22850   3.239  10.415  13.192 -0.3282 -0.1374 -0.1313
 4647W        W22851  13.725   8.882  14.083 -0.4508  0.2348 -0.2639
 4648W        W22852  10.175  10.059   0.494 -0.1115  0.0062  0.2243
 4649W        W22853   8.337  13.477  14.889  0.0757  0.0721  0.0782
 4650W        W22854   3.223   8.406   5.257  0.2628  0.1813 -0.0196
 4651W        W22855  18.324  16.585  13.030 -0.1427 -0.1534  0.1044
 4652W        W22856   3.501  14.100   0.559 -0.2845  0.1205 -0.0933
 4653W        W22857  14.274  12.164  12.042 -0.0508 -0.3057 -0.1442
 4654W        W22858   9.826   6.160   4.511 -0.1840  0.2157 -0.4294
 4655W        W22859  11.602  13.685   0.938 -0.0904  0.0615 -0.0872
 4656W        W22860  11.477   8.079  10.672  0.2907 -0.0373 -0.0679
 4657W        W22861  17.121  12.163   1.793 -0.3838 -0.6102 -0.0683
 4658W        W22862   3.126   1.196   1.268  0.1246  0.3113 -0.3022
 4659W        W22863   6.765  12.914  12.895 -0.1280 -0.0037  0.1479
 4660W        W22864   2.477   0.391  10.459  0.2578 -0.1767  0.1286
 4661W        W22865   2.571   0.718   2.002 -0.0396  0.1640  0.2886
 4662W        W22866   8.337  16.800   0.658  0.2970  0.1824  0.2220
 4663W        W22867  10.328   2.856  12.357  0.0707  0.1514 -0.1453
 4664W        W22868   1.751  17.425   3.510  0.0779 -0.1565  0.0989
 4665W        W22869   1.708   3.981  13.861 -0.1941 -0.0015 -0.2970
 4666W        W22870  13.893   8.852  13.067  0.3000 -0.1056 -0.0034
 4667W        W22871   0.801   7.823   2.711 -0.0907  0.0093 -0.2727
 4668W        W22872   1.049  15.501   1.020 -0.0404  0.2320 -0.1632
 4669W        W22873   8.769   5.720  10.264  0.1025  0.1964  0.4361
 4670W        W22874  14.452  18.372  12.739  0.1172 -0.0544 -0.0632
 4671W        W22875   5.224   4.881  11.022  0.0413 -0.3483  0.0768
 4672W        W22876  14.492   7.080  13.192  0.1344 -0.1622  0.2015
 4673W        W22877   1.441  18.122   5.419 -0.1134  0.0926 -0.0079
 4674W        W22878   7.775  17.172   3.092 -0.0929 -0.0462 -0.0009
 4675W        W22879  10.292   5.843  14.621 -0.1445 -0.0398  0.2122
 4676W        W22880   4.954   6.704  10.095 -0.2152 -0.0540 -0.2832
 4677W        W22881  10.072   7.321   1.590  0.1465  0.0376  0.1771
 4678W        W22882   8.101   7.334  11.627  0.0794  0.0058 -0.0231
 4679W        W22883  18.292  17.124  10.080 -0.1068  0.1695 -0.1991
 4680W        W22884   1.549   5.181   1.144 -0.1481 -0.0850 -0.2450
 4681W        W22885  10.281   5.410   2.494  0.0713 -0.0374 -0.2800
 4682W        W22886  15.475  13.738   1.365 -0.0112 -0.0940 -0.0708
 4683W        W22887  16.764   5.429   3.362 -0.0982  0.0734  0.0533
 4684W        W22888   5.465  14.653   0.888  0.0114  0.3332 -0.1863
 4685W        W22889   6.162   1.877   4.162  0.1225 -0.1260  0.0640
 4686W        W22890  15.494   3.252  14.323 -0.3315  0.1858 -0.1665
 4687W        W22891  18.885   9.399   9.561 -0.1832 -0.3357  0.2229
 4688W        W22892   6.273   7.915  10.791 -0.0629  0.1273 -0.0633
 4689W        W22893   9.216   5.097  11.406  0.1377  0.5375 -0.2269
 4690W        W22894   5.657   9.835  12.132  0.2365 -0.1077 -0.3716
 4691W        W22895   9.005   3.181   0.037 -0.0193 -0.2410 -0.2838
 4692W        W22896   9.310   5.397  12.861  0.0697  0.1541 -0.1080
 4693W        W22897  18.344  12.154  11.239  0.0126  0.0156 -0.1953
 4694W        W22898   3.084  18.158   0.868 -0.0971 -0.1051  0.0463
 4695W        W22899  12.938  18.365   0.806  0.2397 -0.0531  0.0426
 4696W        W22900   6.365   2.867   1.375 -0.2344  0.0266  0.2482
 4697W        W22901  11.437   3.994  14.169  0.1219 -0.2170  0.2416
 4698W        W22902  13.558  12.520  15.032 -0.1016 -0.1087 -0.3178
 4699W        W22903  16.652   8.138   0.774 -0.0192  0.1661  0.2220
 4700W        W22904  13.124  14.968  14.644 -0.4803 -0.1025  0.1096
 4701W        W22905  14.450  10.113   3.253  0.0510 -0.0229 -0.0846
 4702W        W22906   3.378  14.478  11.569  0.3797 -0.1793  0.0390
 4703W        W22907   0.761  11.944  13.928 -0.0592 -0.0553  0.3067
 4704W        W22908   4.310  15.493  13.677  0.1604 -0.1904  0.0479
 4705W        W22909  13.454  17.713   3.271 -0.1567 -0.3709  0.0093
 4706W        W22910  11.220  15.982   4.941  0.2463 -0.0551  0.0517
 4707W        W22911  18.615  15.259   1.148  0.2036  0.0695  0.0458
 4708W        W22912  18.796  10.614   3.356  0.1604 -0.2252 -0.1670
 4709W        W22913   2.569  15.085   2.173 -0.1416  0.0390 -0.0152
 4710W        W22914   0.147   4.449  10.192  0.0826 -0.1387 -0.2304
 4711W        W22915   2.661   7.573  13.824  0.2124  0.1807 -0.1301
 4712W        W22916  12.622  11.217  14.885  0.2085  0.0036  0.0925
 4713W        W22917  10.695   1.234   2.366 -0.1515 -0.1967  0.0040
 4714W        W22918  11.363   6.986  13.185  0.2909  0.0976 -0.2071
 4715W        W22919   9.690   4.397   0.650 -0.1786  0.0459  0.1794
 4716W        W22920   9.514   2.440  13.108 -0.0637  0.3700  0.2210
 4717W        W22921  12.454  15.016   2.721 -0.3095 -0.2539 -0.0108
 4718W        W22922   3.407  11.674   0.779 -0.3707 -0.0668  0.0633
 4719W        W22923   5.957  13.612   0.972 -0.2158  0.0027  0.2128
 4720W        W22924  17.225  15.155  11.008 -0.0236  0.1417  0.0808
 4721W        W22925   8.168  15.738  12.577  0.2852 -0.2886  0.0932
 4722W        W22926   6.080   5.020  13.072 -0.6239 -0.0006 -0.1846
 4723W        W22927  11.440   9.617   4.333  0.0179  0.2723 -0.2737
 4724W        W22928  17.086   1.468  11.911  0.2056 -0.1632  0.0470
 4725W        W22929  13.330   2.127   1.276  0.0277  0.2505  0.1692
 4726W        W22930   9.260  18.283   3.127  0.0805  0.0400  0.0929
 4727W        W22931  16.709  10.035   1.694 -0.1320 -0.1842 -0.1930
 4728W        W22932  18.628   7.995  14.262  0.2272 -0.1773  0.2053
 4729W        W22933  13.931   5.166  11.375  0.0715  0.0695  0.3261
 4730W        W22934   6.378   7.621  14.090 -0.1008  0.2048  0.0923
 4731W        W22935  10.852  15.568   3.140 -0.0754 -0.0131 -0.0051
 4732W        W22936  13.733  15.954  12.739  0.1734 -0.3549 -0.3090
 4733W        W22937   4.994  14.823   3.023  0.0962  0.3000  0.0426
 4734W        W22938  12.619   2.844   3.578 -0.0650  0.1158 -0.0903
 4735W        W22939  15.299   6.147   2.249 -0.1450  0.3909 -0.0668
 4736W        W22940   8.372   5.249  12.328  0.2687 -0.3830  0.2862
 4737W        W22941  12.720   6.089   9.853 -0.1136 -0.1188  0.1350
 4738W        W22942   2.012  15.507  14.015 -0.0103  0.0386 -0.0413
 4739W        W22943   1.119  13.603   0.708 -0.0005  0.0041  0.0434
 4740W        W22944   1.212   1.491  10.960  0.1679 -0.2022  0.4226
 4741W        W22945  17.213  18.859  12.125  0.0391  0.1775  0.0677
 4742W        W22946   0.918  16.249  14.344 -0.3559 -0.2556  0.0606
 4743W        W22947  11.167  18.685   3.930  0.0057  0.1096  0.2556
 4744W        W22948   0.141   8.923  14.287 -0.1602 -0.5326 -0.2985
 4745W        W22949   0.008   3.113   3.201  0.1241 -0.1603 -0.2321
 4746W        W22950   5.639  18.519  14.735 -0.1354 -0.0938 -0.1260
 4747W        W22951   1.160   2.830  12.040  0.0550 -0.1678  0.0819
 4748W        W22952  11.547  16.800   3.130 -0.0619 -0.0392 -0.2245
 4749W        W22953  18.786  16.942   5.259  0.1874 -0.0387 -0.0410
 4750W        W22954   7.951   5.490   2.755  0.0517  0.1608  0.1234
 4751W        W22955   1.145  17.019   1.640 -0.3521  0.1193  0.2155
 4752W        W22956  13.369   0.210   2.603 -0.0850 -0.0294  0.0605
 4753W        W22957  16.824   5.457  12.649  0.1955 -0.1958 -0.1324
 4754W        W22958   3.064  11.279   1.078 -0.0140  0.0561  0.2608
 4755W        W22959  18.019   1.712  13.408  0.0358  0.2905 -0.0223
 4756W        W22960   4.075   5.421  12.487  0.2090  0.2355 -0.0667
 4757W        W22961  14.998   0.468   1.281 -0.1142  0.0850 -0.3364
 4758W        W22962   2.423  18.333   2.524 -0.2577 -0.1238 -0.2194
 4759W        W22963  14.924  11.247   0.789 -0.0983  0.0067  0.2284
 4760W        W22964   7.526  11.062  11.781  0.0457  0.0336 -0.4281
 4761W        W22965  15.068   9.264   3.221 -0.3005  0.3249  0.1949
 4762W        W22966   8.451  14.294   3.425  0.1069  0.0510  0.0521
 4763W        W22967  12.547  15.590  13.187  0.0617 -0.1673 -0.0636
 4764W        W22968   1.289   7.795  11.316  0.0605  0.1053  0.0245
 4765W        W22969  15.012   8.593   2.896 -0.1638 -0.0841  0.0546
 4766W        W22970   1.072   0.894   5.579 -0.1696  0.1399  0.3472
 4767W        W22971  14.677  13.696   2.980 -0.2873 -0.3252  0.0946
 4768W        W22972  18.249   1.356  14.660 -0.0571  0.0868  0.2134
 4769W        W22973   5.230   6.553   4.199  0.0319  0.0716  0.2375
 4770W        W22974  13.305   5.570   3.407  0.0491 -0.0580  0.0212
 4771W        W22975   8.931   5.665  13.788  0.0595  0.1835 -0.0897
 4772W        W22976  10.590   8.529  12.687 -0.0673 -0.1256 -0.2117
 4773W        W22977  16.782  12.757  13.210 -0.0129  0.0123 -0.0167
 4774W        W22978  12.298   8.776   0.523  0.0853 -0.1426 -0.1556
 4775W        W22979   2.349   0.833   0.292 -0.0598 -0.1853  0.4382
 4776W        W22980  12.358  12.274  12.015  0.1886 -0.1528  0.2609
 4777W        W22981   0.786   2.341  13.461  0.1463 -0.0661  0.2086
 4778W        W22982  15.359  12.875   2.610 -0.0235 -0.2931 -0.3123
 4779W        W22983  14.313  12.090   3.988 -0.1951 -0.1870 -0.1040
 4780W        W22984  12.895  14.331   1.951  0.0897 -0.4120 -0.0442
 4781W        W22985   3.445   5.800  13.923  0.1160  0.3712 -0.3808
 4782W        W22986   3.815   9.372  14.613  0.1911 -0.1353 -0.1423
 4783W        W22987  12.787   8.799   2.322  0.1035  0.0106 -0.0198
 4784W        W22988   3.429  12.278  12.049 -0.1674 -0.0689 -0.1846
 4785W        W22989   2.886  17.949   2.237 -0.0988  0.3413  0.0740
 4786W        W22990   3.957   3.242   2.058 -0.1845  0.3647 -0.4659
 4787W        W22991   0.094   4.862  10.995  0.4309  0.0221  0.1617
 4788W        W22992   2.704  17.374  11.743 -0.0899  0.0656 -0.0046
 4789W        W22993  14.499  10.606  11.320 -0.0727 -0.0640 -0.0383
 4790W        W22994   7.856   1.721   3.140  0.1154  0.0910  0.0830
 4791W        W22995   8.840  18.160  14.845  0.0654  0.1629  0.0145
 4792W        W22996   8.430   0.706  12.090 -0.1961  0.3657 -0.0115
 4793W        W22997   0.760  13.627  13.856 -0.1172 -0.2095  0.1709
 4794W        W22998   2.334   8.854   2.442  0.2464 -0.0909  0.5049
 4795W        W22999   8.126   6.788  12.866  0.0438  0.2146  0.1964
 4796W        W23000  10.891  11.056  13.761  0.3073  0.0785  0.2394
 4797W        W23001   4.909   8.599  12.056 -0.4068 -0.3939 -0.1808
 4798W        W23002   4.681  17.752  11.379 -0.1023  0.1229 -0.3390
 4799W        W23003  15.974   2.059   2.607 -0.3674  0.2327  0.2211
 4800W        W23004  11.093  11.868  12.104 -0.1759 -0.0916 -0.1373
 4801W        W23005  17.240  10.758   0.229 -0.3746  0.0691 -0.3457
 4802W        W23006   6.718   1.021  11.642  0.0380  0.2655  0.1355
 4803W        W23007  10.876  17.323   0.016  0.1157 -0.1137  0.0945
 4804W        W23008  14.583   3.518  13.238  0.1686 -0.0553 -0.3044
 4805W        W23009  17.764  10.275  12.743  0.1794  0.5029  0.1313
 4806W        W23010  15.165   0.284   3.031  0.0230  0.3183  0.1347
 4807W        W23011   1.695   4.281   3.957 -0.1457  0.1256  0.2130
 4808W        W23012  18.639   8.666   2.622  0.2893 -0.1244  0.0290
 4809W        W23013   0.008   2.267  11.044 -0.1125  0.2447  0.3275
 4810W        W23014   7.670  12.664   1.623  0.1150 -0.0938 -0.0321
 4811W        W23015  15.271   1.536   0.585 -0.1646  0.1586  0.0367
 4812W        W23016   1.602   4.631  11.280 -0.0654  0.3635 -0.2397
 4813W        W23017   0.332  12.821   2.168  0.0469  0.0198  0.2915
 4814W        W23018  14.896   0.765  14.637  0.0086 -0.2008 -0.0233
 4815W        W23019   6.653   1.061  12.399  0.0960 -0.0234 -0.0811
 4816W        W23020   8.962   5.647   3.027  0.2188  0.0890 -0.1655
 4817W        W23021   8.766  11.302   4.904 -0.0274  0.1353  0.2409
 4818W        W23022   9.209  13.400  13.861 -0.1737  0.0459 -0.1085
 4819W        W23023   3.261   1.476   3.662 -0.0681  0.2908 -0.0318
 4820W        W23024  12.726  16.990  11.490  0.0671  0.0408  0.0562
 4821W        W23025   4.610   2.066  10.631  0.1044 -0.2598 -0.0306
 4822W        W23026   2.031   6.201   3.157  0.0527  0.2311  0.0750
 4823W        W23027  11.430  15.628  12.944  0.0116  0.0325  0.1754
 4824W        W23028   0.954  14.001  12.110 -0.0581  0.1492 -0.0051
 4825W        W23029  11.248   1.415   4.523 -0.0173  0.2258  0.4391
 4826W        W23030   3.531  18.064   0.565 -0.0838  0.0306  0.1816
 4827W        W23031  13.314  15.865  13.102 -0.2275 -0.2758  0.1172
 4828W        W23032   2.530  15.655  13.259  0.0268  0.1102  0.2363
 4829W        W23033  17.275   6.860   1.054 -0.0700  0.1114 -0.0494
 4830W        W23034   1.265   8.175   0.159  0.1115 -0.0875  0.0644
 4831W        W23035   3.798  12.940  12.949  0.0662 -0.1005  0.0283
 4832W        W23036  11.413   2.764   0.551 -0.0839 -0.0867  0.1324
 4833W        W23037   3.671  13.127   1.080  0.0429 -0.2955  0.3027
 4834W        W23038   0.844   3.926  10.520  0.3852 -0.0497 -0.2478
 4835W        W23039   4.050  17.894   1.194  0.0509  0.2627  0.0979
 4836W        W23040  12.858  17.469   2.406 -0.2332 -0.1034  0.1123
 4837W        W23041  12.244  13.149  14.720  0.2415  0.1297  0.1757
 4838W        W23042  12.499   3.815   1.947 -0.1492 -0.1237 -0.1942
 4839W        W23043   3.524   8.454   4.854 -0.1360  0.3965 -0.1984
 4840W        W23044  10.376  18.614   3.300  0.0669  0.0925 -0.2303
 4841W        W23045  13.087   7.207  12.413  0.0058 -0.1177 -0.1126
 4842W        W23046   9.565   9.470  14.941  0.0362 -0.1126  0.0162
 4843W        W23047  10.523  13.877  14.119  0.0994  0.0701 -0.1025
 4844W        W23048  15.234   9.852   2.604 -0.0167  0.2965 -0.2578
 4845W        W23049  17.824   9.398   3.786 -0.1513  0.0845  0.0971
 4846W        W23050  18.463  15.025   2.024 -0.1794 -0.2782  0.0646
 4847W        W23051  14.391   9.035   0.178  0.0378  0.1975 -0.1551
 4848W        W23052   2.106  16.682  10.602 -0.1738 -0.2050 -0.4510
 4849W        W23053   9.508  14.369   3.812  0.1398 -0.1907  0.1301
 4850W        W23054   4.425   0.136  11.096  0.0898  0.2914 -0.0926
 4851W        W23055  16.979  17.637  14.926  0.1336 -0.1862 -0.0000
 4852W        W23056   1.692  11.229   0.795  0.0421 -0.0605 -0.0722
 4853W        W23057  14.571  15.560   0.035  0.1174  0.1857 -0.2647
 4854W        W23058  13.318  17.066   2.247  0.2077  0.2315 -0.0504
 4855W        W23059   3.028  17.016  12.597  0.0545  0.0957  0.0655
 4856W        W23060   1.009   5.831  11.897  0.2666  0.1739 -0.0488
 4857W        W23061  16.397   5.819   4.013 -0.1795  0.0733 -0.1060
 4858W        W23062   0.582  16.845  11.381  0.3325  0.0296  0.3193
 4859W        W23063   1.742  11.504   4.492 -0.0541 -0.2347 -0.2452
 4860W        W23064   8.084  18.606  11.261  0.1080  0.2598  0.0539
 4861W        W23065  13.593   6.731   1.264 -0.2074  0.1395  0.2327
 4862W        W23066  11.374   6.134  11.996  0.3224 -0.0401  0.0545
 4863W        W23067   5.776   0.877  13.744 -0.2490 -0.1863  0.2769
 4864W        W23068   0.593  15.986   3.713  0.0514  0.3697  0.0948
 4865W        W23069  12.167   5.565   2.767 -0.1386  0.0343  0.2608
 4866W        W23070  16.371  10.042  10.852 -0.1751  0.2757  0.0810
 4867W        W23071   9.489  15.132   3.662 -0.2507 -0.0621  0.4109
 4868W        W23072   0.963  17.091  12.544 -0.1983  0.1792  0.3463
 4869W        W23073  18.560  15.285  12.710 -0.1023 -0.0194 -0.0049
 4870W        W23074   2.802   3.602  12.116 -0.1384 -0.0514  0.0296
 4871W        W23075  12.383   2.142   4.424  0.0503 -0.1324 -0.2030
 4872W        W23076   0.034   3.332  12.565  0.1670  0.1448 -0.1146
 4873W        W23077  13.006   5.399  11.632 -0.3446  0.1764 -0.3237
 4874W        W23078   6.674   0.071   1.745  0.2756 -0.0649 -0.1366
 4875W        W23079   1.967  15.400   0.272  0.0715  0.1252 -0.3884
 4876W        W23080   7.018  14.093  14.506 -0.1514 -0.0175 -0.1266
 4877W        W23081   4.226  10.728   9.917 -0.1551 -0.0930  0.1720
 4878W        W23082   7.086   9.408  12.463 -0.0499 -0.0689 -0.0411
 4879W        W23083   2.171   3.407  13.671  0.0149 -0.1477 -0.0233
 4880W        W23084   0.476   8.512  10.771 -0.3039 -0.1958 -0.1595
 4881W        W23085   2.637   6.206   3.699 -0.0269 -0.0683  0.0936
 4882W        W23086   5.389   4.133   1.934  0.2635  0.3877  0.3558
 4883W        W23087   1.518  17.432  12.373 -0.1397 -0.1493 -0.2980
 4884W        W23088   7.328  13.735  10.869  0.0923 -0.0804  0.2201
 4885W        W23089  17.152  11.297   0.109 -0.1141 -0.1277  0.1567
 4886W        W23090   5.620   7.938  12.857 -0.0440 -0.0443 -0.0342
 4887W        W23091   1.017  15.525   3.087 -0.1321 -0.2798  0.2116
 4888W        W23092   7.877  18.659   2.936 -0.2857  0.0822 -0.0553
 4889W        W23093   9.489  15.096  12.964 -0.1276 -0.0571 -0.1825
 4890W        W23094  17.981  16.435   4.635 -0.2050  0.1330  0.0105
 4891W        W23095  18.793   9.669   1.903  0.2548 -0.1256  0.1137
 4892W        W23096   9.358   1.167   1.647  0.3579 -0.4052  0.0582
 4893W        W23097  11.923  16.836   4.025  0.1454  0.0201 -0.1192
 4894W        W23098   4.795  10.717  12.375  0.1753  0.1220 -0.0029
 4895W        W23099  15.688  16.269  14.772 -0.1761 -0.0349  0.4153
 4896W        W23100   3.375   0.014   0.896 -0.2884 -0.1456  0.0906
 4897W        W23101   5.858   2.220  13.303 -0.2726  0.0667 -0.0105
 4898W        W23102   1.911  12.372   3.168 -0.2125 -0.2011 -0.2527
 4899W        W23103   1.823   0.663   5.293 -0.1743  0.2623  0.0652
 4900W        W23104   0.523  13.586   4.404  0.1436  0.0813 -0.0154
 4901W        W23105   2.811   3.064   0.066 -0.1295 -0.0834 -0.2633
 4902W        W23106  10.694  17.859  14.194 -0.0219 -0.0219  0.0964
 4903W        W23107   2.789  15.577   2.803 -0.0427 -0.2463  0.3075
 4904W        W23108  17.375   0.569   4.624 -0.1437  0.2377 -0.0609
 4905W        W23109   8.923   3.335   2.828  0.0149 -0.0741  0.0173
 4906W        W23110   9.856   0.888   2.568  0.3453 -0.1098 -0.0950
 4907W        W23111  15.197  16.353  13.362 -0.1235  0.0906 -0.0603
 4908W        W23112  16.146  17.045   3.335  0.0002 -0.1606  0.0942
 4909W        W23113  12.567   5.327  15.006  0.0105 -0.2295  0.1975
 4910W        W23114   7.614   6.915   2.842  0.0259  0.4627  0.0137
 4911W        W23115  17.215   1.119  12.531  0.1311  0.2057  0.0920
 4912W        W23116  15.773   5.997  11.211 -0.0196  0.1721 -0.1556
 4913W        W23117  15.404   5.351  11.925 -0.1169  0.0827  0.4969
 4914W        W23118   6.232  18.552  13.774  0.0613 -0.2824  0.0501
 4915W        W23119   6.735   9.059   4.228 -0.1893 -0.1976 -0.2168
 4916W        W23120  18.444  12.824   0.605  0.2435 -0.0055  0.2105
 4917W        W23121  15.114   4.061  14.795 -0.0900  0.0670 -0.0741
 4918W        W23122  17.248   0.787   2.380  0.1618 -0.0942  0.3387
 4919W        W23123   2.068  12.485   1.145 -0.0074  0.3281  0.0921
 4920W        W23124  10.959  10.236   0.847 -0.1862  0.1132 -0.0960
 4921W        W23125   7.673  11.301  12.243 -0.2238 -0.1950  0.3054
 4922W        W23126  16.817   9.733   3.168  0.2090  0.0088  0.2257
 4923W        W23127   0.103  13.203   0.915 -0.1982  0.2428 -0.1114
 4924W        W23128  17.823   1.622   1.272  0.0970 -0.0409 -0.2531
 4925W        W23129   6.739  11.491  13.299 -0.0501 -0.1659  0.0389
 4926W        W23130  18.331  13.909   3.665  0.0316  0.1406 -0.0220
 4927W        W23131  13.281  13.632   4.272  0.1612 -0.0054  0.1006
 4928W        W23132  17.168  12.936   0.582 -0.1654  0.2391  0.1831
 4929W        W23133  11.143   1.052   2.522 -0.2523  0.1414  0.1777
 4930W        W23134   7.422   3.845   2.679  0.3015  0.0397 -0.0929
 4931W        W23135   7.955  16.915  12.058  0.1152  0.0397  0.2001
 4932W        W23136  16.197   3.310   3.184 -0.0456 -0.1212  0.1844
 4933W        W23137  14.107   0.461  13.125 -0.1295 -0.1929  0.0651
 4934W        W23138  10.739  17.080   3.603  0.0302 -0.1504  0.3622
 4935W        W23139   6.899   3.880  10.908  0.2193 -0.0617  0.1039
 4936W        W23140  13.303  10.367  10.792  0.0813 -0.0351 -0.0397
 4937W        W23141   6.133   1.867  11.795  0.2394 -0.2932  0.1259
 4938W        W23142   3.229  10.052   5.472 -0.4078 -0.2517 -0.2188
 4939W        W23143   0.379  13.988   1.568  0.2043 -0.1840 -0.2588
 4940W        W23144  16.362   4.014  14.453 -0.2657 -0.1773  0.0027
 4941W        W23145   9.926   9.515   0.788 -0.0112 -0.0726 -0.3289
 4942W        W23146   4.038  16.052  11.448  0.1752  0.3708  0.1600
 4943W        W23147   2.567  10.244  11.668 -0.2230  0.1440  0.0420
 4944W        W23148  17.677  17.532   2.580 -0.2744 -0.1049 -0.0827
 4945W        W23149   7.362  15.671  13.728  0.1777  0.1221  0.2014
 4946W        W23150   5.438   3.503   4.167 -0.1578 -0.1622 -0.1007
 4947W        W23151  14.286   4.622   0.392  0.2565  0.0952 -0.1057
 4948W        W23152   1.715   7.683   4.090  0.1069 -0.0461 -0.1690
 4949W        W23153   1.622  10.530   4.072  0.0562  0.1507  0.2039
 4950W        W23154  13.332  10.856  12.592  0.0289 -0.0350  0.0320
 4951W        W23155   2.341   3.331   0.344  0.1046 -0.0449  0.0888
 4952W        W23156   1.841   8.868  10.522  0.1158 -0.2539  0.0056
 4953W        W23157   4.275   8.112  11.355  0.0610 -0.2006  0.0416
 4954W        W23158   5.464   9.188   1.015  0.3672  0.1106  0.0079
 4955W        W23159   4.209  12.309   2.209 -0.1129  0.0801  0.2441
 4956W        W23160  15.874   7.755  14.124  0.0045  0.0079  0.1744
 4957W        W23161   7.400   5.758   2.903 -0.1128 -0.0276  0.0961
 4958W        W23162  15.428   7.427  13.129 -0.1549  0.0794  0.0605
 4959W        W23163  11.949   1.644   2.003  0.1733 -0.0548  0.0677
 4960W        W23164   6.364   0.689   4.657 -0.2066 -0.0297 -0.3216
 4961W        W23165   2.864   3.172  10.971  0.0691 -0.4837 -0.1242
 4962W        W23166  15.274   9.373   2.775  0.4000 -0.2314  0.0993
 4963W        W23167   9.240  17.407  11.486  0.2899 -0.0093 -0.2054
 4964W        W23168   3.660  10.424  10.593 -0.2231  0.1101  0.0231
 4965W        W23169   3.840  14.533   9.303  0.0626 -0.0793 -0.0577
 4966W        W23170   7.218  11.045  12.381  0.0810 -0.1131  0.0090
 4967W        W23171   1.058   8.489  13.457 -0.0664  0.1634 -0.1962
 4968W        W23172  13.881   7.022  14.431 -0.0605  0.1890 -0.1144
 4969W        W23173   1.115  16.145   3.700  0.0712 -0.0604  0.0656
 4970W        W23174   1.745   0.993   4.893 -0.2862  0.1569  0.2841
 4971W        W23175   0.225   1.487   9.861  0.0511 -0.4858  0.0282
 4972W        W23176   5.170   7.943  11.751 -0.2249  0.1348 -0.0878
 4973W        W23177   8.324  13.024  13.579 -0.0468  0.3661  0.2019
 4974W        W23178  17.995  10.209  12.092 -0.2434 -0.2149  0.0392
 4975W        W23179   7.747   0.213   2.546 -0.0733 -0.0424 -0.1198
 4976W        W23180  10.725  12.804   3.539 -0.3160 -0.0859  0.1827
 4977W        W23181   9.908   3.681   3.824  0.1855 -0.2166 -0.1412
 4978W        W23182  12.443  17.117   0.454 -0.1522 -0.0057 -0.2586
 4979W        W23183  18.795  11.493   2.459  0.2108  0.0392 -0.0783
 4980W        W23184   4.441  18.066   1.473  0.2962 -0.2722 -0.0761
 4981W        W23185  12.414   3.279  13.643  0.0542 -0.0249  0.1433
 4982W        W23186  16.167  13.131   1.479  0.1130  0.0288 -0.3953
 4983W        W23187   0.254   8.869   1.898 -0.1367 -0.0872 -0.3799
 4984W        W23188  11.085  16.704   0.585  0.1210  0.0469  0.1887
 4985W        W23189   0.689   3.524  11.287 -0.1723  0.0885 -0.1792
 4986W        W23190   5.443  16.157  11.792  0.0482  0.1918 -0.1053
 4987W        W23191   7.291   5.739  11.714 -0.1756  0.0733  0.0160
 4988W        W23192   3.101  17.480  12.798 -0.1280  0.2944 -0.0908
 4989W        W23193   6.880  13.628  13.430  0.1366 -0.2218 -0.2711
 4990W        W23194  13.521   1.750  12.091  0.3414  0.0716  0.2276
 4991W        W23195   4.980  16.689  10.560 -0.1508  0.3347  0.1539
 4992W        W23196   5.001   2.606   4.761  0.0415 -0.1630 -0.0330
 4993W        W23197  17.914  10.156   2.617  0.1475 -0.4022 -0.2358
 4994W        W23198   4.630   6.558   0.296  0.2459 -0.1733 -0.1990
 4995W        W23199  15.297   2.765   1.691 -0.0068  0.0402  0.2912
 4996W        W23200  12.369  16.284   1.532  0.0855  0.3880  0.0447
 4997W        W23201  16.905   9.425   2.099  0.2338 -0.0157  0.0805
 4998W        W23202   0.733   9.988   2.021 -0.0047  0.2077 -0.0993
 4999W        W23203   1.770  12.843   4.105 -0.2384 -0.2489 -0.1029
 5000W        W23204   9.177   9.188   0.030  0.0051  0.0233  0.2993
 5001W        W23205   0.297  14.518   3.421 -0.1224  0.1949 -0.2537
 5002W        W23206  11.409  11.663  13.357  0.1850 -0.0046  0.0579
 5003W        W23207   4.169   8.068   0.877 -0.4204  0.1202  0.1834
 5004W        W23208  15.246  12.623   0.516  0.1282  0.0161  0.0193
 5005W        W23209  15.541   7.301  14.986 -0.1495 -0.0295  0.1456
 5006W        W23210  18.033   1.006  12.287 -0.2792  0.2686  0.1769
 5007W        W23211   3.093   3.765  13.670 -0.0863 -0.3669 -0.1971
 5008W        W23212   7.614   2.518   2.078  0.1114  0.0572  0.1454
 5009W        W23213   3.896  12.646   2.705 -0.0130  0.2562 -0.1730
 5010W        W23214   9.429   6.457   2.515  0.3625  0.0872 -0.1105
 5011W        W23215   4.398   3.895  11.551 -0.3638  0.1985  0.2342
 5012W        W23216   4.837   0.116   2.364  0.1668 -0.1398 -0.1293
 5013W        W23217  12.128   9.632  13.589 -0.1550  0.3023 -0.1456
 5014W        W23218   0.663   7.038  11.729 -0.0417 -0.3077  0.3184
 5015W        W23219   2.004  17.862   4.271 -0.0983 -0.1701  0.0611
 5016W        W23220   0.065  14.207   0.059  0.1131  0.1331  0.1256
 5017W        W23221  15.404  12.354   4.423  0.1422  0.0147 -0.0649
 5018W        W23222  12.656   6.531   0.528 -0.2277 -0.0832 -0.1347
 5019W        W23223  10.720  16.782  10.503  0.0582  0.1770  0.2075
 5020W        W23224   9.281  16.425   3.004 -0.0269  0.2864 -0.3078
 5021W        W23225  18.329   0.103  12.834  0.2280  0.1393  0.5109
 5022W        W23226   3.683  11.275   0.509 -0.0040 -0.3034  0.3827
 5023W        W23227   2.202  11.796   4.523 -0.1398  0.4056 -0.0418
 5024W        W23228  10.475   7.793   2.786  0.0090  0.2653  0.4801
 5025W        W23229   1.240   7.209  12.108 -0.0281 -0.1285 -0.1167
 5026W        W23230   7.735   5.041   4.097 -0.0020  0.2644 -0.0375
 5027W        W23231  14.216  10.936   4.646 -0.2471  0.0330 -0.2921
 5028W        W23232   3.291  12.163   0.964  0.2212 -0.3351  0.2485
 5029W        W23233  13.491  17.765   1.649 -0.1845  0.0822  0.2041
 5030W        W23234   5.476   1.252   1.117 -0.2973  0.0478  0.2471
 5031W        W23235   4.292  14.606  14.249 -0.0075  0.2090  0.1186
 5032W        W23236  11.283  11.229   2.737  0.2049  0.0682 -0.1072
 5033W        W23237   8.188   9.369  12.971 -0.0099 -0.3195 -0.0374
 5034W        W23238   9.738   2.123   3.118 -0.1733  0.1256  0.1288
 5035W        W23239  11.523   3.694   9.595 -0.0516 -0.2415  0.1700
 5036W        W23240   9.773   2.504  14.940  0.1965  0.1715  0.0884
 5037W        W23241   1.394   3.256   0.197 -0.1195 -0.0006 -0.2301
 5038W        W23242   8.800  16.083   3.215  0.2235  0.0295  0.3703
 5039W        W23243   0.594   2.809   2.529 -0.1187  0.2838  0.3248
 5040W        W23244  11.555   9.978   4.030 -0.0474 -0.0173  0.1406
 5041W        W23245  14.292   8.774  13.357 -0.1962  0.0426 -0.0050
 5042W        W23246   3.725   2.821  13.622  0.2815  0.2789  0.1152
 5043W        W23247  15.620  15.422  13.217 -0.1249 -0.2987 -0.2075
 5044W        W23248  17.896   0.153  14.927  0.2643 -0.2902  0.0516
 5045W        W23249   3.394  16.650   3.969 -0.1705 -0.0333  0.0406
 5046W        W23250  11.965   8.935  13.553  0.0240 -0.2374  0.1952
 5047W        W23251  14.467  13.537   3.956  0.5333 -0.2192  0.2023
 5048W        W23252  18.775  17.225   0.694 -0.0690  0.2303  0.1335
 5049W        W23253   0.055  11.104   1.172  0.0430  0.0708 -0.0133
 5050W        W23254  11.580   2.582  14.555  0.1314  0.1833 -0.1057
 5051W        W23255   2.869  14.585  12.393  0.1115 -0.4275 -0.1528
 5052W        W23256  16.731  10.924   0.252 -0.0414  0.1373  0.0338
 5053W        W23257   1.076   4.622  11.147  0.0829 -0.1457 -0.1190
 5054W        W23258   7.264  18.488  11.849  0.0492  0.3136  0.1041
 5055W        W23259   4.865   0.495  14.383  0.2046  0.3421 -0.0637
 5056W        W23260  10.449   7.057  10.783 -0.1375 -0.2261 -0.0026
 5057W        W23261   1.906  17.214   2.695 -0.1002  0.3081 -0.0045
 5058W        W23262  11.877   1.701   3.427 -0.1176  0.1851 -0.2690
 5059W        W23263  13.014   5.856   0.827 -0.2981  0.1955  0.2061
 5060W        W23264  12.276  14.401   1.094 -0.1711  0.2343 -0.0213
 5061W        W23265  10.336   3.828   1.470  0.1488  0.1568  0.1107
 5062W        W23266   9.514   3.801   1.773  0.2129  0.0645  0.1887
 5063W        W23267  14.142   4.962  11.950 -0.1412  0.2500  0.0842
 5064W        W23268   0.425   4.020  12.004  0.0477 -0.1030  0.0714
 5065W        W23269   6.051  10.826   4.473  0.0825 -0.2104  0.0151
 5066W        W23270  10.244   0.696   3.085  0.1852 -0.2092  0.1360
 5067W        W23271  10.534   4.485  11.098 -0.1795  0.2781  0.0022
 5068W        W23272   9.896   0.168   1.914  0.3413 -0.0264  0.1623
 5069W        W23273   1.708   8.994   1.210  0.0219  0.0494 -0.3879
 5070W        W23274   7.187  14.912  13.587  0.3498  0.2644 -0.1335
 5071W        W23275  13.904   3.227   0.108  0.0826  0.1768 -0.0503
 5072W        W23276  18.842  12.369   1.663 -0.0502 -0.1984 -0.1932
 5073W        W23277   7.936  17.211  10.463  0.4919 -0.2205 -0.0480
 5074W        W23278   9.465  17.989   2.627  0.2272 -0.2121 -0.1493
 5075W        W23279   5.568   8.326   0.387  0.2241  0.1723 -0.1204
 5076W        W23280  10.661   6.117   2.356  0.1805 -0.1281 -0.3444
 5077W        W23281  13.897  15.449  11.425 -0.1036  0.2136 -0.0564
 5078W        W23282   0.535   8.368  12.064  0.0594  0.1537  0.3489
 5079W        W23283  15.882  17.546   2.962 -0.0356 -0.1938  0.0287
 5080W        W23284  18.178   3.631  14.378  0.0738 -0.1312 -0.1896
 5081W        W23285   0.905  17.409  11.736 -0.0518  0.0365  0.3094
 5082W        W23286   2.455  10.036  12.158  0.0522 -0.1951 -0.1655
 5083W        W23287  13.216  14.960   1.134 -0.1991 -0.2634  0.1805
 5084W        W23288   0.003   1.589  13.285 -0.0284 -0.0836  0.0948
 5085W        W23289   2.727  15.400   0.811  0.2851  0.1200 -0.0719
 5086W        W23290  16.260  12.211   2.369  0.1461  0.0949 -0.0588
 5087W        W23291   5.758  16.145  11.217  0.1262  0.0030 -0.0287
 5088W        W23292  12.144   6.227   1.571 -0.2123 -0.0239 -0.3343
 5089W        W23293   0.487   5.932  13.782 -0.3311  0.0833 -0.0759
 5090W        W23294   7.830   9.769   3.184 -0.2536  0.0492  0.0374
 5091W        W23295  12.240  16.025  13.014 -0.0515 -0.1482 -0.2187
 5092W        W23296  12.353   6.479   3.003  0.0287 -0.1435 -0.3871
 5093W        W23297   1.428   6.179   0.326 -0.2084  0.0724 -0.0769
 5094W        W23298  11.397   9.714   2.852  0.3078 -0.1240 -0.3500
 5095W        W23299   6.801  13.153  11.410 -0.0037 -0.0559 -0.1303
 5096W        W23300  14.119   0.531   1.265  0.2205  0.2873 -0.0545
 5097W        W23301   5.862  12.199   2.023 -0.5317  0.0405 -0.1377
 5098W        W23302  18.106   3.107  10.792  0.2053 -0.2606  0.0231
 5099W        W23303  14.014   7.840   2.354 -0.0008 -0.0724 -0.0969
 5100W        W23304  15.349  13.895   1.946  0.2162 -0.0815 -0.0450
 5101W        W23305   8.677  14.185  13.488  0.0013 -0.5437  0.0238
 5102W        W23306   0.674   3.242   1.177 -0.0515  0.0271  0.3634
 5103W        W23307  14.174   4.716   1.461 -0.0313 -0.1179  0.2907
 5104W        W23308  12.617   8.708  12.199 -0.1269  0.0965 -0.0432
 5105W        W23309   5.365  10.260  12.094 -0.0815 -0.2776  0.4685
 5106W        W23310   1.425   0.181   4.765 -0.1962  0.0386 -0.0746
 5107W        W23311   4.582   3.039  12.701  0.1296 -0.2384  0.0937
 5108W        W23312   7.554   4.187   1.871 -0.3918 -0.3129 -0.2368
 5109W        W23313   6.561   9.804   2.841  0.0528  0.1781 -0.1636
 5110W        W23314   8.691  14.981   0.242  0.0734 -0.0814 -0.2311
 5111W        W23315  12.897   9.596   4.088 -0.0421 -0.1660 -0.1902
 5112W        W23316  12.436  15.316  11.198 -0.0976 -0.3236  0.2511
 5113W        W23317  11.390  10.627   0.169 -0.1219 -0.1648  0.2165
 5114W        W23318  17.716   7.677  13.619 -0.1169  0.1783 -0.3528
 5115W        W23319   9.715  14.675   3.297  0.2214  0.0878 -0.3761
 5116W        W23320  17.462   7.197  12.102 -0.1236 -0.3897  0.2761
 5117W        W23321  16.855  15.348  12.190  0.0170 -0.2293  0.1643
 5118W        W23322   6.798   3.665  11.835  0.1858  0.0450  0.0008
 5119W        W23323   2.484   8.195  10.095 -0.2288  0.0551  0.1133
 5120W        W23324  11.484   5.914  12.449 -0.1958 -0.3138  0.0964
 5121W        W23325  13.314  14.272  14.885 -0.2329  0.1022 -0.0776
 5122W        W23326  12.569   2.673   0.257 -0.1839  0.1342 -0.0495
 5123W        W23327   9.386  14.532   1.444 -0.1789  0.2671  0.2965
 5124W        W23328  12.360   4.664   0.134 -0.0936 -0.0420 -0.0275
 5125W        W23329  12.249  11.405   3.680 -0.0593 -0.0372 -0.0107
 5126W        W23330   8.856   2.557   0.674 -0.0397  0.0379  0.2103
 5127W        W23331  12.874  16.827  13.196 -0.1160 -0.1891  0.0794
 5128W        W23332  10.039   5.652   3.321  0.0457 -0.2877 -0.1801
 5129W        W23333   8.028   6.779   1.608  0.0866 -0.1364 -0.0100
 5130W        W23334   3.283   6.162   3.151 -0.0163  0.0608 -0.0999
 5131W        W23335  10.269  10.979  14.705  0.1418  0.0070  0.3622
 5132W        W23336  13.289   8.734   3.677  0.1543  0.0902 -0.0324
 5133W        W23337   2.382   6.281  14.816  0.0402  0.1576 -0.2947
 5134W        W23338   3.190   7.149  14.412 -0.1800  0.1775 -0.4303
 5135W        W23339   8.509  13.778   0.638  0.0150 -0.1241 -0.1305
 5136W        W23340  11.953  14.193   0.086 -0.3791 -0.2165 -0.1802
 5137W        W23341   0.883  10.551  13.080  0.1865 -0.4893  0.0419
 5138W        W23342   9.477   9.549  12.273  0.0288  0.3325 -0.2533
 5139W        W23343  10.880  15.494  11.650  0.0792  0.0024 -0.0619
 5140W        W23344   5.863   7.077  12.866  0.1657 -0.2898 -0.1005
 5141W        W23345  13.517   9.909  10.549  0.1645 -0.1159  0.1738
 5142W        W23346  18.153   1.401   2.358  0.2265  0.1299  0.4152
 5143W        W23347   2.071   2.034   2.495 -0.0404 -0.0081  0.2047
 5144W        W23348   2.427   7.947   3.427 -0.1567  0.0527  0.0409
 5145W        W23349  10.397   7.018   4.402 -0.2959  0.0616 -0.0468
 5146W        W23350  15.394  10.723   3.092 -0.2065  0.2031  0.3230
 5147W        W23351   2.498   4.655  14.674  0.2223  0.0198  0.1884
 5148W        W23352  14.357   6.364   3.423  0.0720 -0.3150 -0.3540
 5149W        W23353   1.026   8.634   0.511  0.1020  0.2586 -0.0249
 5150W        W23354   3.294   5.870   0.291  0.0688  0.1118 -0.1435
 5151W        W23355  14.388   3.744   1.861  0.0268  0.1746  0.2743
 5152W        W23356  16.707   0.811   3.152 -0.0421 -0.0510  0.0633
 5153W        W23357  14.059  16.481   3.471  0.0380  0.3196  0.2218
 5154W        W23358  13.168   4.596   3.499 -0.0992  0.1375 -0.0909
 5155W        W23359   6.129   0.131   1.526 -0.0579  0.1389 -0.0008
 5156W        W23360  11.975   2.033  10.832  0.0050  0.2669  0.0283
 5157W        W23361  16.395   1.212   0.755  0.1637 -0.0112  0.0053
 5158W        W23362   7.340   5.762  14.995  0.1850 -0.0793 -0.0061
 5159W        W23363   5.975  17.346   0.333 -0.0636 -0.1391 -0.1913
 5160W        W23364   0.631   7.483   1.839  0.3218  0.0190  0.1310
 5161W        W23365  13.370  18.820   0.932  0.1236 -0.0517 -0.1641
 5162W        W23366  18.750   8.131  14.689  0.0879  0.3828 -0.1505
 5163W        W23367  13.663   0.585  14.003 -0.1037  0.3651  0.0782
 5164W        W23368  10.588   2.777  13.288  0.0383  0.3098 -0.0128
 5165W        W23369   3.496   3.606   0.066  0.0865  0.0096 -0.0464
 5166W        W23370   5.062  14.776  14.793  0.1227 -0.1158  0.0721
 5167W        W23371   6.820   8.422   1.504  0.0424  0.1759  0.0972
 5168W        W23372   6.493   2.755   0.547  0.0662  0.0043 -0.0845
 5169W        W23373   5.334   9.462  14.393 -0.0089  0.0257 -0.0796
 5170W        W23374  10.444  10.395   3.063 -0.1377 -0.1663  0.1766
 5171W        W23375  10.334   6.793  13.965 -0.2881 -0.3543  0.0727
 5172W        W23376  15.919   2.932  11.275 -0.2519  0.3306  0.1174
 5173W        W23377   6.811   8.166   3.498 -0.0445 -0.1007 -0.1945
 5174W        W23378  16.870   6.139   3.522  0.0114 -0.0081 -0.1711
 5175W        W23379  10.026  15.061   3.641 -0.0424 -0.0048  0.2150
 5176W        W23380  17.884   6.665  14.628  0.1919  0.3014 -0.0636
 5177W        W23381   9.963   0.075   4.182  0.0265 -0.1939 -0.0237
 5178W        W23382  16.930   7.173  14.950 -0.1190  0.0804 -0.2462
 5179W        W23383   7.980   0.317  14.083 -0.1577  0.2597  0.2709
 5180W        W23384   2.882  17.219   3.506 -0.1792  0.3071 -0.0815
 5181W        W23385  12.686  15.837   2.403  0.2858  0.0361  0.4613
 5182W        W23386  10.883  12.535  13.751 -0.3964 -0.0139 -0.2945
 5183W        W23387  11.258  15.722  14.992 -0.1327 -0.1511 -0.1308
 5184W        W23388  18.761   9.134  12.245 -0.0829 -0.0450  0.1128
 5185W        W23389   6.663   2.924   2.382 -0.1007  0.1236 -0.0745
 5186W        W23390   0.951   1.598  14.138 -0.2513  0.1566  0.2241
 5187W        W23391   8.985   0.061  11.864 -0.1675  0.2623 -0.0094
 5188W        W23392   0.114   8.043   3.009  0.0515 -0.0044 -0.0749
 5189W        W23393  13.970  12.282  12.472 -0.1498 -0.2090 -0.4459
 5190W        W23394   6.525   5.892   1.643 -0.1991  0.1510 -0.4120
 5191W        W23395  16.042   7.778   2.791 -0.0928  0.0936 -0.0445
 5192W        W23396   7.786  17.514   0.188 -0.0903 -0.0324 -0.2991
 5193W        W23397   0.003   8.617  12.528  0.2672 -0.2848 -0.0211
 5194W        W23398  11.394  14.110  13.366 -0.1691 -0.0224 -0.3374
 5195W        W23399   9.436  13.969  14.062 -0.0221 -0.1823 -0.0731
 5196W        W23400  11.956   1.512  14.573  0.0607 -0.0546 -0.3676
 5197W        W23401  14.585   8.622   2.567 -0.1412  0.1958  0.0562
 5198W        W23402  14.676   1.104   0.622 -0.2199 -0.0746  0.2650
 5199W        W23403  10.856  11.270  13.335  0.2428 -0.0862  0.3645
 5200W        W23404  10.359   8.237  14.581 -0.0798 -0.0974 -0.0408
 5201W        W23405   1.963   1.868  14.369 -0.2920  0.0258  0.2972
 5202W        W23406   0.927   0.988  13.114  0.1847  0.2831  0.2679
 5203W        W23407  17.143   0.885  13.138 -0.2907 -0.0070  0.3404
 5204W        W23408  16.301   6.888   1.599  0.3111  0.0576  0.1119
 5205W        W23409   9.242  18.843   0.006  0.0130 -0.2398 -0.0932
 5206W        W23410   0.692   2.709   1.260  0.1568 -0.1314 -0.3536
 5207W        W23411   3.215   4.115  13.266 -0.3360  0.3039  0.1127
 5208W        W23412  15.734  17.010  10.502 -0.0716  0.0022  0.2047
 5209W        W23413  11.271  17.575   1.102 -0.1887 -0.1140 -0.4419
 5210W        W23414   7.885  11.308  11.297  0.0878  0.1362  0.0202
 5211W        W23415  17.744  18.028  14.530 -0.1830 -0.0960 -0.2120
 5212W        W23416  12.026  15.630  14.966  0.0983  0.0516  0.1490
 5213W        W23417  18.407  12.972  10.599  0.0516 -0.0772  0.1854
 5214W        W23418   3.079  13.255   2.614 -0.1076  0.1225  0.1277
 5215W        W23419  16.791  13.501   1.369 -0.1671 -0.2164  0.4064
 5216W        W23420   5.328  15.099  13.510 -0.2296 -0.3505 -0.2258
 5217W        W23421   0.085   4.610   1.243  0.1089 -0.3786 -0.1924
 5218W        W23422  13.783  11.600   2.893 -0.0834  0.2429 -0.0262
 5219W        W23423  15.502  15.934   0.070  0.0950 -0.0827 -0.0298
 5220W        W23424  11.623  15.214  11.741 -0.1938  0.0758  0.0725
 5221W        W23425  13.156  13.728   0.794 -0.1544 -0.0650 -0.0161
 5222W        W23426  18.020   8.650   0.072  0.0910  0.1026  0.0288
 5223W        W23427   8.143   6.278   3.331 -0.0611 -0.0995 -0.0181
 5224W        W23428  12.583   1.755  10.845 -0.0748 -0.0617 -0.0395
 5225W        W23429  15.680   8.133   1.315 -0.1017 -0.0993 -0.0317
 5226W        W23430   6.851   4.665  14.437  0.1978  0.3419  0.0530
 5227W        W23431  18.459   7.728  11.529  0.0944  0.0272  0.1303
 5228W        W23432   4.071   8.722   4.093 -0.0008  0.2590  0.2389
 5229W        W23433   4.924   7.270  13.440 -0.0632  0.0007  0.0741
 5230W        W23434   1.423  16.104  14.302 -0.1486 -0.0408 -0.0384
 5231W        W23435  13.342   9.444   0.846 -0.0392 -0.3595  0.0042
 5232W        W23436  10.053  10.817  12.796  0.1351 -0.0525  0.2870
 5233W        W23437  18.261   6.788   1.520  0.1617  0.1673 -0.2735
 5234W        W23438   5.845   1.852   0.518  0.0123  0.0414 -0.3876
 5235W        W23439  14.606  15.720  12.499 -0.1643  0.2011  0.0639
 5236W        W23440  17.533   8.502   2.274 -0.0415  0.0410 -0.2367
 5237W        W23441   8.824  18.514   4.627 -0.0027 -0.0461  0.3204
 5238W        W23442  12.802  12.104   2.359  0.2426 -0.2747  0.1127
 5239W        W23443   7.151   5.525   4.176  0.2233  0.1850  0.0969
 5240W        W23444   3.387   7.640  13.268  0.1250  0.2320  0.2740
 5241W        W23445   5.237   4.622  12.086  0.1033  0.1358 -0.0375
 5242W        W23446  15.347  12.259   0.183 -0.4060  0.1278 -0.1556
 5243W        W23447   3.341   4.653  11.492 -0.1944  0.0412 -0.2519
 5244W        W23448  18.760  10.886   4.519 -0.0461 -0.1807  0.2511
 5245W        W23449   0.936  10.559  13.952  0.2352  0.1043 -0.0511
 5246W        W23450   6.096   5.818   1.124 -0.2634  0.1108 -0.0994
 5247W        W23451  13.092   0.670  12.346  0.1210  0.4818 -0.3722
 5248W        W23452   2.543  12.901  12.370  0.1540 -0.1928 -0.2445
 5249W        W23453   3.196  14.700  13.821  0.1944  0.1033  0.2196
 5250W        W23454   2.905  18.214  11.222 -0.0296  0.2637 -0.2135
 5251W        W23455   4.694   8.888   0.093 -0.1154 -0.4184 -0.1391
 5252W        W23456  13.362  14.800  14.083  0.0516  0.1371 -0.0660
 5253W        W23457  10.422   9.339  10.518 -0.0532  0.0109  0.1912
 5254W        W23458  10.918  18.845  14.062 -0.3146  0.0530 -0.0615
 5255W        W23459  10.281  12.831   4.610 -0.0459 -0.1015  0.1126
 5256W        W23460   0.859  13.968   2.772  0.0573 -0.1441 -0.1499
 5257W        W23461  17.915   8.577  14.589  0.1399  0.2912  0.1535
 5258W        W23462   1.074   2.883  12.583  0.4136 -0.0159 -0.0368
 5259W        W23463   3.755  16.040  11.072  0.2998 -0.0413  0.0574
 5260W        W23464   5.676  16.603   2.915 -0.5055  0.2997  0.2389
 5261W        W23465   1.915  10.524  11.505  0.0054  0.2503 -0.0942
 5262W        W23466  10.996  11.272   0.881 -0.3013 -0.2270 -0.0921
 5263W        W23467  13.728   5.214   0.408 -0.1266  0.0780 -0.0474
 5264W        W23468   3.754   2.027  12.793 -0.0239  0.1200 -0.1098
 5265W        W23469   7.015  15.043   4.002 -0.0773  0.2269 -0.3380
 5266W        W23470  14.455  11.500   0.745 -0.0973  0.1416  0.1615
 5267W        W23471  10.980   2.934   2.829  0.1379  0.0533 -0.2836
 5268W        W23472   4.147   6.603   0.121 -0.0133  0.0356 -0.2289
 5269W        W23473   5.487  15.708   0.026 -0.0300  0.0308 -0.3580
 5270W        W23474   8.345  10.220  12.762  0.2249  0.0330  0.0194
 5271W        W23475   1.027   0.600   0.799 -0.0256  0.2764  0.1081
 5272W        W23476   6.435   7.523   4.067  0.1566 -0.0989 -0.0380
 5273W        W23477   2.643  14.440   2.823 -0.0747 -0.0350  0.0964
 5274W        W23478  10.108  13.668  14.936 -0.1082  0.2743  0.1743
 5275W        W23479   1.691  15.072  12.995 -0.1610 -0.1668 -0.0008
 5276W        W23480   1.707   6.897   2.139  0.0170 -0.2952 -0.0306
 5277W        W23481  13.498  15.764   3.044  0.0315  0.0042  0.0844
 5278W        W23482   0.477   5.373  13.529 -0.1881  0.0436 -0.1280
 5279W        W23483  18.844  12.144  10.943 -0.1571 -0.0034 -0.2136
 5280W        W23484   3.489  11.797   3.717  0.3416  0.0704  0.3477
 5281W        W23485  18.565  13.791   3.095  0.3533  0.0113 -0.1256
 5282W        W23486  12.383  13.831  13.783 -0.2182  0.2721  0.2976
 5283W        W23487   3.150   0.383   3.433 -0.0007  0.1615 -0.1528
 5284W        W23488   6.139   2.970   1.897 -0.0060  0.1443  0.0274
 5285W        W23489   4.725  16.739  12.863  0.1540  0.1862  0.2650
 5286W        W23490   3.820  14.769   1.692  0.2189  0.1615  0.3186
 5287W        W23491  11.382  13.649  13.060  0.1731  0.0561  0.1196
 5288W        W23492  10.432  17.213  14.727 -0.3149 -0.2909  0.2832
 5289W        W23493  18.350   1.943   2.233  0.3449  0.0516 -0.0967
 5290W        W23494   4.367  18.828   2.227 -0.2567 -0.1496 -0.1938
 5291W        W23495  10.458   1.905   1.276 -0.0464 -0.3730 -0.0715
 5292W        W23496   2.541  18.417   3.839 -0.2772 -0.0569  0.2201
 5293W        W23497  12.276   2.470  13.186  0.1571  0.1989  0.0343
 5294W        W23498  13.724   4.462   2.248  0.1368  0.2298  0.2684
 5295W        W23499   2.179  12.224   0.732 -0.0302  0.0047  0.3351
 5296W        W23500  11.820  13.399   1.994  0.1544 -0.4340 -0.1861
 5297W        W23501   0.352   5.522   1.957  0.0537  0.1529  0.0717
 5298W        W23502  14.667   2.255   3.358 -0.1355  0.0854 -0.1919
 5299W        W23503   1.799   7.941   4.514 -0.2332  0.1574  0.3331
 5300W        W23504   5.882  14.508   1.657 -0.2004 -0.1942  0.0734
 5301W        W23505   6.299   3.212   0.450  0.3447 -0.2489  0.2928
 5302W        W23506  12.683   1.269   3.394 -0.2836  0.0186 -0.0443
 5303W        W23507   4.529   7.956  14.642  0.1144 -0.0831 -0.2923
 5304W        W23508   1.373   5.657   4.028  0.2425 -0.1435 -0.2130
 5305W        W23509   5.026   1.347   0.279 -0.0515  0.2510  0.1602
 5306W        W23510   9.833  10.502   4.553 -0.2157 -0.1037  0.0909
 5307W        W23511  10.520   5.892  10.679  0.0121  0.0051  0.4141
 5308W        W23512   3.128  18.653   2.825 -0.0538  0.0829 -0.4335
 5309W        W23513  15.572  14.840   4.379  0.1844  0.2039 -0.5969
 5310W        W23514  14.288  16.657   3.042 -0.1024  0.2636  0.1413
 5311W        W23515   2.603   8.835   1.449 -0.0380 -0.3417 -0.0511
 5312W        W23516  11.924   7.746   1.243 -0.0507  0.0372  0.0490
 5313W        W23517   2.279   4.061   2.249 -0.1154 -0.0284 -0.0323
 5314W        W23518   1.179   2.051   4.149  0.1725 -0.0983  0.2071
 5315W        W23519  12.375  16.300   2.449  0.2568  0.0365 -0.0023
 5316W        W23520   4.584   8.927   0.968 -0.0826  0.1332  0.2405
 5317W        W23521  14.588  11.457   3.837 -0.0259 -0.0387  0.0158
 5318W        W23522   1.452  14.678  13.849 -0.0275  0.1207  0.0588
 5319W        W23523   1.408   7.650   3.692  0.0759  0.1389  0.0022
 5320W        W23524   8.665   3.272   4.096 -0.1305  0.2431 -0.2937
 5321W        W23525  17.797   6.184  13.728  0.0291 -0.0961  0.1937
 5322W        W23526  11.255   2.009   2.632  0.0042 -0.1788  0.3120
 5323W        W23527  14.534  13.870   3.598  0.1357 -0.0739 -0.0961
 5324W        W23528   5.821   7.847   1.681 -0.2142 -0.2210  0.1871
 5325W        W23529  10.018   8.034   3.960  0.0020  0.1114  0.1051
 5326W        W23530   9.239  17.549   1.393  0.0799  0.3213  0.0066
 5327W        W23531   7.511   3.978  13.528 -0.2054  0.0413 -0.1283
 5328W        W23532  16.629  12.529   0.503 -0.0480 -0.3561  0.2175
 5329W        W23533  13.157   3.286   3.594  0.1509  0.1120  0.1064
 5330W        W23534   6.557  14.215  12.322 -0.3771  0.3298 -0.0700
 5331W        W23535  10.953  16.302  13.690 -0.2163  0.1654 -0.4244
 5332W        W23536   0.947  15.869   4.115  0.0989  0.0995 -0.1803
 5333W        W23537   8.210  17.782   3.181  0.1518  0.1215  0.2909
 5334W        W23538  12.921  11.287   4.436 -0.2035 -0.2823 -0.1715
 5335W        W23539  16.261  18.283   1.123  0.3689 -0.0312 -0.1662
 5336W        W23540  10.119  13.175   2.193 -0.0601 -0.3460 -0.2159
 5337W        W23541   6.242  10.069   0.638 -0.1018 -0.0534 -0.3339
 5338W        W23542  10.369   7.766  13.465 -0.4627  0.0733  0.0439
 5339W        W23543   6.532   6.836  12.238 -0.0035  0.1021  0.2116
 5340W        W23544   9.605  14.820  11.694  0.0169 -0.1241 -0.0834
 5341W        W23545   3.618  17.840   4.557 -0.0806 -0.2433  0.4579
 5342W        W23546   8.372  10.344   0.891  0.3748 -0.0088  0.0444
 5343W        W23547   5.652  12.331   3.569 -0.1255  0.1048  0.3807
 5344W        W23548  18.918  14.469  10.580 -0.0830  0.2448  0.0866
 5345W        W23549  14.604  15.627   2.189 -0.2112  0.1863  0.0038
 5346W        W23550  17.790   6.214  11.047  0.3263 -0.1604 -0.1074
 5347W        W23551   1.460   6.071   1.050  0.0312 -0.0940  0.0123
 5348W        W23552   4.610   6.541  14.342 -0.1139 -0.0022  0.0571
 5349W        W23553   9.266  16.618   1.019 -0.0711 -0.1338  0.0370
 5350W        W23554   9.953   9.926  14.000  0.0292  0.0984  0.0144
 5351W        W23555   3.344  15.903  13.035  0.1280 -0.2684 -0.0393
 5352W        W23556   6.973  13.364   0.150 -0.2513 -0.1963  0.0144
 5353W        W23557   2.609   6.764   4.677  0.0735 -0.0786  0.1116
 5354W        W23558  14.211   9.702  11.437  0.0544 -0.0659 -0.2535
 5355W        W23559  16.462  18.246  14.331  0.1655  0.1430 -0.0708
 5356W        W23560  18.271  12.371  14.393  0.0335  0.1183 -0.2940
 5357W        W23561  13.574  13.374   1.350  0.2228 -0.1467 -0.1505
 5358W        W23562  10.521  16.119  12.797  0.0693  0.0408  0.2611
 5359W        W23563  18.817  14.602  12.812 -0.0346  0.0290  0.0621
 5360W        W23564   7.775   2.517  14.174 -0.1905  0.0204  0.2064
 5361W        W23565   8.664   7.442  14.470  0.1082  0.0186  0.1316
 5362W        W23566   5.804  11.267   2.018  0.1016  0.0959 -0.0827
 5363W        W23567   5.894  10.918   1.279 -0.4316 -0.1399  0.1781
 5364W        W23568  14.088   3.873  12.578  0.0208 -0.1259  0.1074
 5365W        W23569  14.125   8.434  10.414  0.0786  0.1386 -0.1145
 5366W        W23570  14.745   3.127  14.976  0.2663  0.3650  0.0868
 5367W        W23571   3.184  11.972   3.138  0.2006  0.0170 -0.0057
 5368W        W23572  18.306  12.554   1.567 -0.0035  0.2912  0.0523
 5369W        W23573   2.855  18.294   4.254  0.0087 -0.1764  0.3843
 5370W        W23574  18.157  15.644  12.503  0.0401 -0.1573  0.1232
 5371W        W23575  13.753  17.568  13.588  0.2628 -0.1331 -0.0787
 5372W        W23576  13.042   3.352  11.407 -0.0559 -0.0075  0.2018
 5373W        W23577   0.615  15.191   3.126 -0.0319 -0.0958 -0.4310
 5374W        W23578   1.434  18.647   4.062 -0.0850 -0.0926  0.4686
 5375W        W23579   6.936   7.422  13.001  0.2890 -0.2420 -0.0719
 5376W        W23580   1.165   9.907   0.959  0.1366  0.1716 -0.2188
 5377W        W23581   7.721  14.088   2.788  0.0413 -0.3514 -0.0894
 5378W        W23582  15.542   1.336  14.253 -0.1279  0.1777  0.0049
 5379W        W23583  17.579   4.487   0.800 -0.2757  0.0981 -0.1581
 5380W        W23584  14.444   8.948  10.781  0.0090  0.1318 -0.4223
 5381W        W23585   7.891  16.965  11.518 -0.2003  0.0981  0.2298
 5382W        W23586   2.906   3.580   2.762 -0.0556  0.0454  0.1223
 5383W        W23587   1.508  14.886  10.538  0.1135  0.2994 -0.2446
 5384W        W23588  17.662   8.965   2.227 -0.0828  0.0976 -0.0887
 5385W        W23589  18.853  18.334  13.110  0.2988 -0.1037 -0.0722
 5386W        W23590   8.676   6.155  11.286 -0.2683  0.1908 -0.0651
 5387W        W23591   8.151  16.833   3.088  0.2965 -0.0732 -0.0311
 5388W        W23592  10.787   2.439  13.664 -0.0555 -0.3663  0.2320
 5389W        W23593   2.084  16.337   1.753 -0.3210 -0.0350 -0.3444
 5390W        W23594  10.456  15.422  10.293 -0.1293  0.1509  0.1676
 5391W        W23595   4.044   9.518  10.739  0.0299 -0.1366  0.0829
 5392W        W23596   9.290   1.709  11.500  0.1340  0.3432  0.0740
 5393W        W23597   2.073   1.493   1.644 -0.1753  0.0156 -0.2061
 5394W        W23598   7.415   8.280  12.985  0.2440 -0.1764 -0.2797
 5395W        W23599   0.917   9.002  13.253  0.3907 -0.0735 -0.2402
 5396W        W23600   0.226  10.704   1.590  0.4310 -0.2326  0.4807
 5397W        W23601  10.623  11.616  13.953 -0.1420 -0.0334 -0.0034
 5398W        W23602   5.727   2.118   1.681 -0.5147 -0.4249  0.0032
 5399W        W23603   8.091   8.464   0.664 -0.5749 -0.3805  0.0278
 5400W        W23604  15.689   0.886  14.479 -0.0514  0.2619 -0.1003
 5401W        W23605  10.669  16.677   2.351  0.0143  0.2230  0.0389
 5402W        W23606   9.004  11.667  11.600  0.3986  0.1483 -0.1980
 5403W        W23607  10.084  13.889  12.763 -0.0060 -0.0689  0.1254
 5404W        W23608  10.063  13.160   3.891 -0.1286 -0.2073 -0.0189
 5405W        W23609   5.867  14.777   2.891 -0.1814 -0.0137 -0.2562
 5406W        W23610   1.992   3.747  14.673  0.3031 -0.0144  0.2762
 5407W        W23611  14.589   2.065   2.102  0.2139  0.0761 -0.0997
 5408W        W23612   4.545   4.986   0.853  0.1000  0.2081  0.0160
 5409W        W23613  17.784  10.745  12.792  0.0015  0.1048 -0.0302
 5410W        W23614  14.848   9.141   3.995 -0.2830  0.1319  0.1904
 5411W        W23615   0.209   9.398   2.579  0.1544 -0.1209  0.2441
 5412W        W23616  15.685   2.079   9.587  0.0535  0.2259  0.1165
 5413W        W23617  12.723  16.279  14.981 -0.0187 -0.0113 -0.4217
 5414W        W23618   3.940  11.223  14.016 -0.0469 -0.0877  0.0243
 5415W        W23619  16.881  12.132  12.049 -0.0675  0.0108 -0.0095
 5416W        W23620  12.003  14.203  14.179 -0.1681 -0.0705  0.0311
 5417W        W23621   6.276   3.507   4.029  0.0642 -0.0212  0.0738
 5418W        W23622  14.957   9.388  11.577 -0.1880 -0.0747  0.1976
 5419W        W23623  16.489   1.688   0.327 -0.0816 -0.4138  0.2047
 5420W        W23624   9.993   2.593   2.983  0.0614 -0.1492 -0.0890
 5421W        W23625   3.598  10.290   0.880  0.0802 -0.1026 -0.0676
 5422W        W23626   1.760   0.749   1.052 -0.3318 -0.3067  0.2819
 5423W        W23627   0.088  15.469   0.224  0.0752 -0.0249 -0.1649
 5424W        W23628  10.137  17.624   0.947  0.0639 -0.0625 -0.1974
 5425W        W23629  17.661  15.126   2.879  0.0233 -0.1651  0.0892
 5426W        W23630   9.599  14.539  13.176  0.0810 -0.0097 -0.1549
 5427W        W23631   8.320  17.813   0.083  0.2382  0.3018 -0.1837
 5428W        W23632   3.785   7.762  13.557 -0.1020  0.0178 -0.0114
 5429W        W23633  11.207  17.150   2.804  0.0497  0.0658  0.1651
 5430W        W23634  15.866  13.871   1.875  0.0214 -0.1516 -0.5403
 5431W        W23635  13.420  12.051   1.900  0.0402  0.3506  0.0492
 5432W        W23636  10.488  18.383  14.072  0.0312  0.3391 -0.0556
 5433W        W23637  12.733  12.161   3.872 -0.1382 -0.0878  0.1879
 5434W        W23638   2.305  10.254  13.070 -0.1018  0.3848  0.0689
 5435W        W23639   3.444   6.988   1.303  0.2277  0.0337 -0.0753
 5436W        W23640  10.614   7.796  14.465 -0.0328  0.0829  0.3254
 5437W        W23641   8.260   6.679   1.147 -0.0157  0.1091  0.3141
 5438W        W23642  10.584  13.292   3.824  0.1514  0.1752  0.1925
 5439W        W23643   9.381   4.895   3.523  0.1621 -0.2022 -0.2179
 5440W        W23644  17.683  14.997  13.126 -0.0262  0.1328  0.0521
 5441W        W23645  18.729  10.707  14.850 -0.0050 -0.1298 -0.2490
 5442W        W23646  13.816   8.433  11.685 -0.0499 -0.1528 -0.2857
 5443W        W23647  15.107  14.070   4.198  0.3429  0.0844 -0.1235
 5444W        W23648  16.768  17.944  10.491  0.0792 -0.0938 -0.0979
 5445W        W23649   8.781   5.283   4.063  0.0335 -0.0741 -0.0272
 5446W        W23650  17.613  13.849   1.225 -0.1221 -0.2171 -0.1413
 5447W        W23651   0.984   4.675   2.479  0.2333 -0.0859  0.2352
 5448W        W23652  10.826  13.615  14.794  0.0239 -0.1034 -0.2653
 5449W        W23653   9.092  10.727   2.060 -0.5341  0.0130 -0.1588
 5450W        W23654   1.535   9.759  11.544  0.1308  0.4123 -0.0553
 5451W        W23655  15.509  18.362   1.710  0.1611  0.4244 -0.1276
 5452W        W23656  11.617   5.673   1.087  0.0975 -0.0009 -0.1909
 5453W        W23657  18.452  16.792   2.760  0.0690 -0.0972  0.2339
 5454W        W23658   4.064  11.787   2.095  0.4090 -0.0486 -0.4101
 5455W        W23659  13.344  12.899  12.651 -0.2636  0.0800  0.0660
 5456W        W23660  13.683   9.126  12.695  0.1735  0.1419 -0.0351
 5457W        W23661   7.519  12.855  13.470  0.0249  0.1373 -0.3675
 5458W        W23662   8.928   4.122   3.974  0.1619  0.1333 -0.3309
 5459W        W23663  18.144   6.942   2.482 -0.0395  0.0031 -0.0690
 5460W        W23664   2.606   3.722   4.013 -0.1446 -0.1460  0.1177
 5461W        W23665  18.717  15.502  13.129 -0.0052 -0.2150 -0.2191
 5462W        W23666   2.435  16.281   9.914 -0.1293  0.2414 -0.0382
 5463W        W23667   1.383  14.400  10.639  0.1833 -0.0148  0.0306
 5464W        W23668  13.225   9.657  13.386 -0.0180  0.2203 -0.0396
 5465W        W23669  17.533  15.132   0.964 -0.0309 -0.0537 -0.0804
 5466W        W23670   0.156   0.993  11.554 -0.0244 -0.0969 -0.0729
 5467W        W23671   4.052   6.895   1.563 -0.2067  0.5255  0.0865
 5468W        W23672   3.605  11.337   2.876 -0.0001 -0.0498  0.4467
 5469W        W23673   4.965  16.191  12.584 -0.0912 -0.2454  0.1144
 5470W        W23674   9.394   9.220   1.669 -0.0059 -0.1939  0.0607
 5471W        W23675  13.522  12.140  14.220 -0.0593 -0.0805  0.2790
 5472W        W23676   0.132  11.645   4.069 -0.0116  0.3534  0.1064
 5473W        W23677   2.412   9.906  11.251  0.0246 -0.1932 -0.0464
 5474W        W23678   8.863   8.021  11.954 -0.1374  0.1826  0.1802
 5475W        W23679  17.849   8.284  13.788 -0.1322  0.2220  0.0172
 5476W        W23680  13.444  15.503   3.535 -0.0176  0.0624 -0.0010
 5477W        W23681  11.569   6.857  14.995  0.2002  0.1816  0.0124
 5478W        W23682   3.577  14.259  12.483  0.0528 -0.1589 -0.0376
 5479W        W23683  13.860  14.461   1.809  0.0857  0.1588 -0.1301
 5480W        W23684   9.327   0.376   2.740  0.0527 -0.0142  0.1085
 5481W        W23685  15.550   3.266   3.840  0.2615  0.0829 -0.0518
 5482W        W23686  16.914  12.239  14.203 -0.2288  0.1341  0.1151
 5483W        W23687  11.071   6.653  13.057  0.0113 -0.1759 -0.1616
 5484W        W23688  17.119  15.436   1.782 -0.0580  0.0567 -0.0168
 5485W        W23689  11.735  10.492  11.941  0.1526 -0.1696  0.0169
 5486W        W23690  13.976   9.192  12.308 -0.2035 -0.0354  0.1824
 5487W        W23691  15.086   4.491  10.395  0.1638 -0.0532  0.1464
 5488W        W23692   9.102  15.176   0.550  0.2743 -0.0834 -0.0438
 5489W        W23693  13.294  12.439  14.604 -0.0682  0.1342  0.0435
 5490W        W23694  10.140   6.424  14.230  0.0293 -0.0403 -0.0145
 5491W        W23695   9.611  13.800  14.681  0.1336 -0.0400  0.1106
 5492W        W23696   8.691   2.778  10.859  0.0261  0.2017 -0.0513
 5493W        W23697   5.243   6.600   3.187 -0.2567 -0.0441  0.0133
 5494W        W23698  10.494  15.197   2.896 -0.0237 -0.2383  0.2806
 5495W        W23699   8.370   5.650   4.614 -0.0470  0.0037  0.0498
 5496W        W23700   5.061   0.887   4.009 -0.0127 -0.1696 -0.0065
 5497W        W23701   8.862   3.111   0.530  0.0192 -0.0138  0.0905
 5498W        W23702  14.564  15.260   2.485 -0.4191  0.2026  0.0210
 5499W        W23703   2.420   2.428   1.600  0.0581  0.1380  0.2504
 5500W        W23704  11.848  11.496  13.117  0.1154 -0.3885  0.0182
 5501W        W23705  11.035   9.967  14.509  0.0452 -0.1485  0.0499
 5502W        W23706  17.655   7.435   0.634 -0.0496 -0.0185 -0.0037
 5503W        W23707  11.051  17.802   2.771  0.0290 -0.0439 -0.0441
 5504W        W23708   6.123   4.100   0.957  0.1369  0.0282  0.2187
 5505W        W23709   8.564   8.293  13.642  0.0335  0.1649 -0.0505
 5506W        W23710  11.230  10.715   1.502  0.0353  0.1498 -0.1759
 5507W        W23711   7.147   4.192   1.581  0.1992 -0.0115  0.0497
 5508W        W23712   7.574   6.286   1.321 -0.0155 -0.1675 -0.1539
 5509W        W23713   9.790  13.059  11.543  0.1894 -0.1143  0.5459
 5510W        W23714  15.972   8.014  12.519 -0.2361  0.0991 -0.0523
 5511W        W23715  11.065   6.777  14.087  0.2289 -0.0864 -0.1926
 5512W        W23716  13.575   0.400  11.251  0.0555  0.1916 -0.0793
 5513W        W23717  13.286  18.643   1.528  0.2511  0.0359 -0.3483
 5514W        W23718  14.173   1.867   0.162  0.4423  0.0379 -0.2447
 5515W        W23719   2.637   6.275   4.300 -0.3567  0.1350  0.0557
 5516W        W23720   1.942  18.488   0.474 -0.0231  0.0133  0.0416
 5517W        W23721  18.069  18.414  14.405  0.2876  0.1321 -0.0058
 5518W        W23722   2.033   7.606   3.313  0.1592  0.1847 -0.0502
 5519W        W23723   1.437  10.038  14.556  0.2568 -0.2093  0.0238
 5520W        W23724  10.739   7.386   2.517  0.3132  0.2795 -0.1557
 5521W        W23725   8.816  16.820   5.809 -0.1364  0.2096  0.2588
 5522W        W23726  11.883   7.374   4.384 -0.1045 -0.0609 -0.1282
 5523W        W23727  11.402   3.162   2.736 -0.2415  0.2373  0.1097
 5524W        W23728   9.148  14.310   3.467  0.2616  0.0399 -0.0611
 5525W        W23729   7.039  17.331  11.126  0.2251  0.3323 -0.3332
 5526W        W23730   4.991  16.418  13.127 -0.1220 -0.1464  0.1590
 5527W        W23731   0.438  12.704   1.721  0.0361 -0.2246  0.2434
 5528W        W23732   5.789  16.581  14.376 -0.1430  0.2808  0.1298
 5529W        W23733  12.424  16.695   4.018 -0.2813 -0.2332  0.3183
 5530W        W23734   6.504  14.216   3.245 -0.1158  0.0739  0.2336
 5531W        W23735   4.967   8.822  13.853  0.3058  0.2396 -0.3889
 5532W        W23736  13.662   7.287  11.021  0.0819 -0.0679  0.1063
 5533W        W23737   2.612  17.379  13.863  0.1463  0.0120  0.0607
 5534W        W23738  11.596  17.528   3.718 -0.2673 -0.3290 -0.0905
 5535W        W23739   7.381   3.385  13.739 -0.1968  0.0657 -0.2467
 5536W        W23740  14.893  13.736   0.995  0.1265  0.1113  0.0909
 5537W        W23741  13.105  17.469  14.910  0.0224  0.0691 -0.1167
 5538W        W23742  13.058  18.857  13.934  0.1993 -0.1291  0.0212
 5539W        W23743  11.976  14.390  12.922  0.0118  0.0333  0.1967
 5540W        W23744   4.898  15.606  14.304  0.0759 -0.2351 -0.0418
 5541W        W23745   9.149  14.882   1.098  0.0741 -0.0084 -0.1663
 5542W        W23746   8.359  17.899  12.530  0.0873 -0.6845  0.0909
 5543W        W23747   5.726  11.647   3.933 -0.4629 -0.0090 -0.2513
 5544W        W23748   4.828   4.675   2.953  0.3000  0.0629  0.0948
 5545W        W23749  10.267  13.128   2.990  0.1072 -0.2155 -0.0235
 5546W        W23750   6.335  18.601   1.561  0.3549 -0.0762  0.2738
 5547W        W23751   0.630   2.662  12.703 -0.1452 -0.1394 -0.1822
 5548W        W23752   6.115  16.796  12.177 -0.2636  0.0874  0.0136
 5549W        W23753   8.381   8.764   4.614 -0.0919  0.0373 -0.0002
 5550W        W23754  13.532  17.833  10.742  0.0399  0.3827  0.3432
 5551W        W23755  18.624   8.703  12.917  0.1383  0.0673  0.2997
 5552W        W23756   6.880  11.207   4.166  0.1645  0.1556  0.1345
 5553W        W23757   2.149  13.979  11.516  0.1802 -0.0864  0.2970
 5554W        W23758   8.030   0.384   0.444 -0.2204 -0.1727  0.4445
 5555W        W23759   2.608  12.227   1.074  0.2606 -0.1530 -0.1074
 5556W        W23760  13.712  11.316  14.649  0.0910  0.1825 -0.0042
 5557W        W23761   2.546  13.314  13.921  0.1074 -0.0177  0.3966
 5558W        W23762   0.675  15.755   2.534 -0.0157 -0.2078  0.0389
 5559W        W23763   0.819  15.465  12.117  0.0487 -0.0882  0.2064
 5560W        W23764   8.073  15.761  13.408 -0.0698  0.1071 -0.0506
 5561W        W23765   0.746   4.538   5.001 -0.0534 -0.3296  0.0374
 5562W        W23766   3.998   4.324  14.563  0.1815  0.0285 -0.1462
 5563W        W23767  10.633   7.336  13.092 -0.2358 -0.0512  0.2176
 5564W        W23768  14.394  12.716   2.849  0.0037 -0.1851 -0.0625
 5565W        W23769  15.579   4.783   1.155 -0.0393  0.3140 -0.0660
 5566W        W23770   3.370   9.395   4.271  0.0689 -0.0405 -0.0668
 5567W        W23771  17.969  12.209  13.244 -0.1169  0.3933 -0.1909
 5568W        W23772   3.765   1.985  14.273 -0.2052 -0.0461  0.2342
 5569W        W23773   3.675  10.228   2.152 -0.0957  0.0332 -0.2835
 5570W        W23774   2.514  17.000  12.746 -0.2321 -0.0764  0.0489
 5571W        W23775   0.074   5.001   1.611 -0.1286 -0.0494 -0.1704
 5572W        W23776   3.856  13.836  11.671 -0.0374  0.2345 -0.2055
 5573W        W23777   1.042  12.735  14.495  0.3096  0.1204  0.1303
 5574W        W23778   9.508   2.462  13.637  0.2767 -0.0826  0.1663
 5575W        W23779   2.936   4.552   5.692  0.1427 -0.0066 -0.0231
 5576W        W23780   2.502  11.328   0.578  0.2893 -0.0476 -0.1411
 5577W        W23781   2.892   1.479  12.491  0.0397  0.2800  0.1483
 5578W        W23782  17.436   4.728   3.513 -0.1718  0.1480  0.0994
 5579W        W23783   2.734   4.987  11.579  0.2230  0.0421 -0.1921
 5580W        W23784  10.757   5.897  12.672  0.0594  0.1256  0.1207
 5581W        W23785   5.699   9.319   0.465  0.0728  0.0409 -0.0703
 5582W        W23786   1.005   8.284   1.892  0.0335  0.1360  0.3004
 5583W        W23787   9.902  14.617   0.348 -0.0903  0.0552 -0.1401
 5584W        W23788   3.056  18.822   4.193 -0.1419 -0.0865  0.2274
 5585W        W23789   3.372   9.395  12.674  0.0796  0.0586 -0.1755
 5586W        W23790  16.376  15.597   2.530 -0.0779 -0.2247 -0.2587
 5587W        W23791   2.382  14.348  12.255 -0.4923 -0.4223  0.3515
 5588W        W23792   0.730   4.397  13.566 -0.1384 -0.0357 -0.1253
 5589W        W23793   2.628   5.244   0.395  0.3309  0.3177  0.3222
 5590W        W23794   4.874  12.363  15.020 -0.0907 -0.0827  0.0882
 5591W        W23795   3.019   5.707   1.384 -0.0122 -0.1728 -0.1345
 5592W        W23796  17.860   1.994   0.402  0.0736  0.0169  0.0683
 5593W        W23797  14.349  17.580  13.488 -0.0559  0.1967 -0.0741
 5594W        W23798  18.253   2.667  10.663 -0.0739 -0.1541 -0.2416
 5595W        W23799  13.958   6.956   1.583  0.1425 -0.1097  0.0285
 5596W        W23800   3.604   3.594   2.236 -0.0430 -0.0516 -0.0791
 5597W        W23801  10.724  11.075  10.917 -0.0078 -0.4060 -0.1312
 5598W        W23802   4.045   1.457  14.341 -0.0351 -0.0806  0.1812
 5599W        W23803   4.999  16.551  14.043  0.1822  0.2407  0.1222
 5600W        W23804  13.490  11.865  13.391 -0.0371  0.2092  0.2158
 5601W        W23805   3.657   8.554   2.054  0.0843 -0.4129  0.3889
 5602W        W23806  15.885  14.371   0.215 -0.1436 -0.1245 -0.2554
 5603W        W23807  14.369  15.182  10.729 -0.1203 -0.0205  0.2944
 5604W        W23808   1.517   1.212  12.844 -0.0904  0.2967 -0.0688
 5605W        W23809  10.070  12.734   1.270  0.5885 -0.1613 -0.2228
 5606W        W23810  12.422  11.468   4.249 -0.0394 -0.1406 -0.2707
 5607W        W23811  10.860  18.893   1.844  0.0209  0.0100 -0.1293
 5608W        W23812  13.909   8.067  13.100  0.1790  0.1329  0.4537
 5609W        W23813   4.268  15.881  14.895 -0.0429 -0.1392  0.0866
 5610W        W23814   8.190  12.632  11.898 -0.0893  0.1401  0.2080
 5611W        W23815   9.179   1.174  10.602 -0.1325  0.1270  0.4429
 5612W        W23816   6.863  15.368  14.903 -0.0339 -0.3369 -0.0135
 5613W        W23817   0.483   5.305   4.555  0.6584  0.0169  0.1475
 5614W        W23818   5.031   7.852  10.185  0.1353  0.2605 -0.0890
 5615W        W23819   8.424  18.307  11.527 -0.1129 -0.2597 -0.2642
 5616W        W23820  15.900   5.991  12.322  0.0396  0.1328  0.2723
 5617W        W23821   3.553   9.104  13.838 -0.2930  0.1714  0.1202
 5618W        W23822  13.617   1.462   0.493 -0.1393  0.0117 -0.0307
 5619W        W23823   3.249  17.690   2.743  0.0656 -0.1738  0.1082
 5620W        W23824  16.437  17.420   0.403 -0.2242 -0.3829 -0.0441
 5621W        W23825  13.365   8.599   3.232  0.0693 -0.1479  0.3197
 5622W        W23826   1.372   9.734   1.531 -0.0725 -0.0893 -0.2641
 5623W        W23827  17.305   8.926   1.651  0.2071  0.2489  0.0079
 5624W        W23828  16.659  14.755  14.927  0.0055  0.1270  0.1795
 5625W        W23829  18.257   6.246   1.968 -0.3116 -0.2659 -0.1393
 5626W        W23830  13.121  10.584   3.137  0.0363  0.1350 -0.0159
 5627W        W23831  12.802   9.809   3.613  0.2382 -0.1727 -0.1281
 5628W        W23832   1.005   7.017  12.540 -0.0794  0.1793  0.0052
 5629W        W23833  13.765   9.182   0.433 -0.2041  0.0253 -0.0058
 5630W        W23834  17.223  12.782  12.911  0.1597 -0.4832 -0.1878
 5631W        W23835  12.117  15.847   3.729 -0.1846  0.2672  0.0810
 5632W        W23836   2.170  18.334   0.057  0.0121  0.0659 -0.4054
 5633W        W23837  14.964   3.235  14.114 -0.1703 -0.2712  0.3822
 5634W        W23838  15.712   8.701   0.453  0.2087  0.0039  0.0540
 5635W        W23839  13.842  17.117   3.894 -0.2006 -0.0128 -0.2462
 5636W        W23840  17.674   7.751  11.930 -0.1593 -0.1557 -0.0261
 5637W        W23841  15.611  13.507   0.118  0.0366  0.2483 -0.0973
 5638W        W23842  16.890   1.684  15.001  0.2646 -0.1689 -0.2915
 5639W        W23843  11.643  12.878   0.667 -0.1348 -0.1823 -0.0002
 5640W        W23844  16.551   9.857   3.860 -0.1739 -0.1111  0.1721
 5641W        W23845   2.810   0.288   0.949 -0.1757 -0.0287 -0.0568
 5642W        W23846   5.974   2.948   3.124 -0.0648 -0.4243  0.0095
 5643W        W23847   6.291  11.747  14.697  0.0974 -0.0455  0.0240
 5644W        W23848  14.721   8.137  14.651 -0.0322 -0.1669 -0.1851
 5645W        W23849  12.245   6.135  11.154 -0.0535 -0.0156  0.3023
 5646W        W23850   1.450  12.963   1.916  0.2113  0.2009  0.2396
 5647W        W23851  15.820   0.316  13.547 -0.0292 -0.0191  0.1196
 5648W        W23852  15.696   8.234   0.028  0.3416  0.0185  0.2697
 5649W        W23853  17.446  14.389  14.246  0.2508 -0.1548  0.1241
 5650W        W23854   0.124   1.121  13.269 -0.1965 -0.0665  0.4215
 5651W        W23855   5.423  18.704   2.903 -0.2094  0.3830 -0.2618
 5652W        W23856  14.728   0.880  12.313  0.2521  0.0101  0.1612
 5653W        W23857  10.710   9.410   1.459  0.0345 -0.2406  0.1399
 5654W        W23858   3.896  18.048  10.494 -0.1210 -0.0167  0.0190
 5655W        W23859   0.528  12.551  10.581  0.1514 -0.0762  0.0229
 5656W        W23860   4.926  10.077  14.259 -0.0490 -0.2811 -0.1151
 5657W        W23861   6.841   4.359   2.798  0.0254  0.1406  0.1774
 5658W        W23862   3.421  15.421  13.322 -0.3270 -0.0966 -0.2347
 5659W        W23863  15.655   5.022  11.234 -0.2206 -0.2204  0.1249
 5660W        W23864   1.844  12.995   0.183  0.0364  0.1154  0.0975
 5661W        W23865   0.284  16.371   2.140  0.1110 -0.1495 -0.0320
 5662W        W23866   4.464   1.430  11.146  0.1277 -0.0485 -0.0406
 5663W        W23867  18.185   3.171  14.807 -0.1226 -0.0756  0.3689
 5664W        W23868  12.509  14.474   9.730  0.0959 -0.2677 -0.1502
 5665W        W23869   7.779  18.310  12.907 -0.3217  0.1076 -0.0851
 5666W        W23870  11.079   3.743  10.177 -0.2429 -0.0775  0.1275
 5667W        W23871  16.366   1.764  14.168 -0.1587 -0.1306 -0.1059
 5668W        W23872   6.776  11.629   3.659 -0.1893 -0.2269  0.1244
 5669W        W23873   3.761  11.403   1.831 -0.1143 -0.3544 -0.2743
 5670W        W23874  16.027   9.231  13.581  0.2689 -0.0123  0.1374
 5671W        W23875   6.294  14.797   4.141  0.0789 -0.0071  0.1212
 5672W        W23876   2.539  16.024  14.835 -0.0810 -0.1654  0.1982
 5673W        W23877   1.818  10.710  12.278 -0.0078  0.1144 -0.2903
 5674W        W23878  14.547  18.796  10.727 -0.0802  0.2632  0.0515
 5675W        W23879   4.582  16.039  11.108 -0.1416 -0.1691 -0.1065
 5676W        W23880   5.441   7.601  10.674 -0.2795 -0.0589  0.0250
 5677W        W23881   0.079   9.318   3.233  0.2520 -0.0566  0.1361
 5678W        W23882  17.773   2.919  14.937  0.0679 -0.1374 -0.0237
 5679W        W23883   5.462  18.199   3.716 -0.1493 -0.1762 -0.0342
 5680W        W23884   6.168   3.367   1.300 -0.2659 -0.0477  0.3234
 5681W        W23885  16.724   8.146   0.022  0.0922  0.0515 -0.1412
 5682W        W23886  16.944  17.038  13.607  0.1602 -0.0283 -0.3826
 5683W        W23887   8.068   2.934   1.945 -0.0478  0.1814 -0.1657
 5684W        W23888  12.525   4.757  11.204 -0.0374  0.0577  0.0064
 5685W        W23889  14.192   9.228  13.246  0.0084 -0.0830 -0.2672
 5686W        W23890  13.120  18.621  10.174 -0.1987  0.0280  0.0052
 5687W        W23891  12.851  10.514  13.315  0.1986  0.2541 -0.0762
 5688W        W23892  14.938  10.481  14.682  0.0126 -0.2331 -0.1725
 5689W        W23893   1.657  12.027  14.278  0.0215 -0.1854 -0.2709
 5690W        W23894   3.964   3.986   3.436 -0.1871  0.4362 -0.0318
 5691W        W23895  16.700  14.600  11.400 -0.2297 -0.4715 -0.0196
 5692W        W23896   6.015   8.647   1.371  0.0296 -0.2646  0.1081
 5693W        W23897   8.543   2.859  14.506  0.0995  0.0982 -0.0163
 5694W        W23898  18.740  14.697   3.344 -0.0080 -0.0939 -0.1350
 5695W        W23899  14.526  18.671   1.818 -0.0040 -0.1380 -0.1000
 5696W        W23900   4.969  14.263  13.836  0.1455  0.3299 -0.1150
 5697W        W23901  15.576  14.392  14.181  0.1297  0.0658 -0.3421
 5698W        W23902  15.071   7.946   0.494 -0.0797 -0.3015 -0.0653
 5699W        W23903   6.841  11.924  10.737 -0.0017 -0.1872  0.1297
 5700W        W23904   0.256   3.983  12.471  0.0394 -0.4175  0.0787
 5701W        W23905  10.353   7.560   0.316  0.0912 -0.0470 -0.0742
 5702W        W23906   1.585   0.390  11.884  0.0245 -0.1959 -0.0901
 5703W        W23907  10.850   6.532   3.812 -0.5365  0.0716 -0.1485
 5704W        W23908   7.983  18.005  13.803  0.1692  0.1390 -0.0711
 5705W        W23909  16.552   3.726   0.548 -0.0475  0.1555 -0.1055
 5706W        W23910  16.856   9.083  14.903 -0.0629  0.0348  0.2358
 5707W        W23911   2.198  17.968  14.807 -0.0536  0.0960  0.1770
 5708W        W23912  17.769  10.026  11.670 -0.0719  0.0735  0.0118
 5709W        W23913   5.572   6.869  11.265 -0.0715 -0.2346  0.0421
 5710W        W23914   6.171   5.646   2.335 -0.0249 -0.1595  0.1140
 5711W        W23915  17.313   0.626   0.906 -0.2168 -0.0546  0.0095
 5712W        W23916   8.655   3.705   2.601 -0.3053  0.0538 -0.1515
 5713W        W23917   3.593  13.678  13.444  0.0065  0.0597  0.0432
 5714W        W23918   3.742  11.373  11.624 -0.0605  0.1705  0.0404
 5715W        W23919   0.915   5.507   2.000 -0.2205  0.0570  0.0480
 5716W        W23920   4.701   4.705  13.128 -0.1122 -0.2382  0.1868
 5717W        W23921   2.968   4.694   0.385  0.2160  0.0003  0.0374
 5718W        W23922   0.173   4.728  11.920  0.0810 -0.2284  0.1750
 5719W        W23923   7.940  11.997  13.018  0.1114 -0.2581 -0.1057
 5720W        W23924  14.962   0.505  12.018 -0.3623 -0.0400 -0.2439
 5721W        W23925   0.393   5.494  14.022 -0.2329 -0.0058 -0.4796
 5722W        W23926   9.209  17.543  10.941  0.3651  0.0134  0.0636
 5723W        W23927   9.832   8.129  12.295  0.0155 -0.1291 -0.0194
 5724W        W23928  10.772  13.831   3.468  0.1055  0.1420 -0.1379
 5725W        W23929   4.123  13.440  13.523 -0.0072 -0.2457  0.1515
 5726W        W23930  11.122  18.473   2.124 -0.1574  0.0665 -0.4439
 5727W        W23931   2.395   1.767   3.790  0.1156  0.1594 -0.1800
 5728W        W23932  14.607  17.753  13.093  0.0579 -0.2577  0.0009
 5729W        W23933   3.040   5.204  12.852  0.1622 -0.0410 -0.2025
 5730W        W23934  13.341  16.106   0.671 -0.1359  0.2759 -0.2505
 5731W        W23935   0.826  12.930   0.937 -0.0508 -0.1202 -0.2558
 5732W        W23936   6.402   8.313  14.085  0.0369 -0.1267 -0.1532
 5733W        W23937  17.323   7.042   1.739  0.0634  0.0511  0.1120
 5734W        W23938   3.470   6.898  12.684 -0.3999 -0.2277  0.1685
 5735W        W23939   7.569   1.823  14.049  0.1781  0.0092  0.1850
 5736W        W23940  11.484   7.552   1.113  0.1725 -0.0981  0.0787
 5737W        W23941  11.893   6.610  13.282 -0.1029 -0.2081  0.1431
 5738W        W23942   5.498   8.382  11.871  0.1606  0.1590  0.0662
 5739W        W23943   6.369  12.173  13.525  0.1246  0.2188 -0.0961
 5740W        W23944  16.137   1.306   4.271 -0.0320  0.3519 -0.0116
 5741W        W23945  12.659   7.084  10.655 -0.3456  0.3203 -0.0567
 5742W        W23946   7.401  16.472   1.931 -0.3248  0.0311 -0.1914
 5743W        W23947  10.834   0.487   5.409  0.2476  0.1014 -0.1980
 5744W        W23948   4.288  18.301  10.813  0.2484 -0.1900 -0.0714
 5745W        W23949  14.564   4.433   4.205  0.4287  0.1222  0.0694
 5746W        W23950  13.697  11.276   2.501 -0.1268 -0.0778  0.0906
 5747W        W23951   2.572   7.688   3.002  0.0595  0.0944 -0.0830
 5748W        W23952  17.043   7.536   1.792 -0.0138 -0.0859  0.1536
 5749W        W23953  15.308  16.775   3.287  0.0816 -0.1201 -0.0347
 5750W        W23954  18.671  13.734  13.921  0.0087  0.0960 -0.0047
 5751W        W23955   7.660   3.612  11.462 -0.2156  0.0340 -0.2352
 5752W        W23956   6.417   9.145  13.541  0.0081  0.0013 -0.1881
 5753W        W23957   7.159   1.116  13.565  0.2039 -0.1702 -0.1210
 5754W        W23958   9.173  15.592   0.293  0.2238 -0.1107 -0.1063
 5755W        W23959   6.636  13.381   2.498  0.2285  0.1058  0.0514
 5756W        W23960  10.205   0.516  13.482 -0.1750 -0.0744  0.2929
 5757W        W23961  17.154  14.524  13.709 -0.2451 -0.0350 -0.2917
 5758W        W23962  18.700  12.767   1.415  0.2718 -0.0337  0.1251
 5759W        W23963  17.464   7.442   2.639  0.2414 -0.2901  0.1176
 5760W        W23964  12.773   2.484  12.986  0.0561  0.2317 -0.2041
 5761W        W23965   8.620  10.004   3.024  0.0583  0.0007  0.1673
 5762W        W23966  11.580   8.927   9.697  0.1170  0.0129 -0.0446
 5763W        W23967  17.920  16.766  12.820  0.0472  0.2704 -0.2754
 5764W        W23968  15.716   3.551  11.184 -0.0712 -0.2549 -0.0216
 5765W        W23969   6.362   9.334   1.842  0.2500 -0.2765 -0.1614
 5766W        W23970  11.191   4.568   3.719  0.1025  0.1701  0.0589
 5767W        W23971  15.727   0.299   1.935  0.0558  0.0774  0.1489
 5768W        W23972  16.093  13.581   4.340 -0.1024 -0.2920  0.0725
 5769W        W23973   4.359  14.069   4.089  0.0512 -0.0353  0.1439
 5770W        W23974  10.405  16.913   0.644 -0.2617 -0.2445 -0.1467
 5771W        W23975   6.447   7.636  11.495  0.1067  0.1113 -0.0944
 5772W        W23976  11.933  16.787  10.856  0.0321  0.1048  0.1704
 5773W        W23977   6.879   3.975   2.542 -0.1943  0.0775  0.1252
 5774W        W23978  17.157  10.963   1.681 -0.1901 -0.0295  0.1685
 5775W        W23979   7.344  18.795   0.114 -0.2016  0.0644 -0.0541
 5776W        W23980  18.077  15.437   2.777 -0.0261  0.6147  0.0084
 5777W        W23981  16.205   7.058   0.966 -0.3459 -0.2695 -0.0466
 5778W        W23982   8.702   4.134  12.709  0.0363 -0.0007 -0.0337
 5779W        W23983   8.709   6.420   4.561  0.1624 -0.2410  0.3042
 5780W        W23984   8.882   0.491   1.815 -0.0762 -0.1757  0.0143
 5781W        W23985  11.820   9.036   2.863  0.1388  0.1264 -0.1251
 5782W        W23986  12.699  14.575  12.426  0.2645 -0.2825 -0.0848
 5783W        W23987  11.926   5.160  12.926  0.2069 -0.3977  0.2025
 5784W        W23988   2.163  13.442  12.901 -0.1334  0.0693  0.4227
 5785W        W23989  18.332   7.039   0.629  0.2802  0.0938 -0.0409
 5786W        W23990   5.686   7.497  12.630 -0.3658 -0.4476  0.2381
 5787W        W23991  12.182   7.206  13.210 -0.1030  0.2695 -0.0593
 5788W        W23992  16.790  10.950  14.319 -0.0276  0.0431 -0.1264
 5789W        W23993  15.644   1.236  13.444 -0.1226 -0.4619  0.1460
 5790W        W23994  11.416  14.442  10.560  0.0728  0.0082 -0.1619
 5791W        W23995   7.571  10.845   1.870 -0.1604  0.3223 -0.1866
 5792W        W23996   6.271   5.891  14.173 -0.1869  0.3219 -0.0246
 5793W        W23997   7.877  12.672   4.158  0.0175 -0.0806  0.1361
 5794W        W23998   5.929  13.690  14.600 -0.1731  0.1578 -0.1292
 5795W        W23999   5.655  10.422   1.185 -0.0387 -0.0594  0.0503
 5796W        W24000   1.056   3.808  11.087 -0.0398  0.1843 -0.1179
 5797W        W24001   7.767  14.990   4.486  0.1732 -0.0657  0.0441
 5798W        W24002  12.226   7.010  14.426  0.1442  0.0597  0.0098
 5799W        W24003   1.545   1.085   3.159 -0.0912  0.1768 -0.0154
 5800W        W24004   4.939  14.493  12.993  0.4247 -0.0968  0.0761
 5801W        W24005   2.899   2.256  12.102 -0.1936 -0.0166 -0.1335
 5802W        W24006  14.041   2.856  10.129  0.1465 -0.0260 -0.0240
 5803W        W24007   4.269  11.940  12.328 -0.1511 -0.1133  0.4599
 5804W        W24008   1.546  13.128  10.633 -0.0612 -0.0947  0.0455
 5805W        W24009   8.288   8.158  14.073 -0.2963  0.0441 -0.1560
 5806W        W24010   2.796  17.925   1.722  0.2422  0.0468  0.0603
 5807W        W24011   8.726   5.874   0.943  0.2307 -0.0253 -0.2560
 5808W        W24012   2.024   4.692  12.111 -0.1076 -0.1051 -0.1973
 5809W        W24013  15.885  17.296  10.890  0.1006  0.0173 -0.0526
 5810W        W24014  11.320   2.708  11.332 -0.5144  0.1102 -0.2067
 5811W        W24015   9.426  16.084   0.098 -0.0080  0.0090  0.0046
 5812W        W24016   9.201   7.690  14.066  0.1955  0.2456  0.0651
 5813W        W24017  11.567   1.591  10.537  0.1443  0.0169  0.2749
 5814W        W24018  18.920  17.635  12.866  0.4268  0.1419 -0.0645
 5815W        W24019  15.220   3.081   0.062 -0.1699  0.1075  0.2329
 5816W        W24020  10.324   3.535   1.942 -0.3110 -0.0483 -0.1158
 5817W        W24021  11.434  17.177  14.269 -0.1741  0.0910 -0.2417
 5818W        W24022   9.692   9.533   1.497  0.0653 -0.2436  0.1517
 5819W        W24023  15.921  15.257  12.185 -0.1557  0.0230 -0.2111
 5820W        W24024   7.670   2.406  14.691  0.1184  0.0375  0.0520
 5821W        W24025  16.421  11.324   1.706 -0.0076 -0.1459  0.2729
 5822W        W24026  11.108   1.872   0.896 -0.2706  0.4112  0.0698
 5823W        W24027  16.515   2.688   4.541 -0.2492  0.1114 -0.2714
 5824W        W24028   5.542   5.982   4.406 -0.2576  0.3603 -0.1214
 5825W        W24029   7.649  18.584  13.313  0.0173 -0.0708 -0.0488
 5826W        W24030   6.872   7.897   5.804 -0.3658 -0.0541  0.1060
 5827W        W24031   1.869   5.332   3.151  0.0407 -0.0047  0.0304
 5828W        W24032  13.623  12.786  11.862 -0.0950  0.2343 -0.0140
 5829W        W24033   0.308  15.392   0.789  0.1010 -0.1595  0.4180
 5830W        W24034  12.111   3.414  14.109  0.1233  0.2171  0.1243
 5831W        W24035   9.164  14.454   2.618  0.2041 -0.1556  0.1513
 5832W        W24036   4.769   6.028   1.759 -0.0564 -0.0598 -0.1094
 5833W        W24037   1.594  12.443   1.290 -0.1907  0.1924  0.2758
 5834W        W24038  14.621   0.060   4.408 -0.0653  0.0198 -0.0417
 5835W        W24039  18.722   2.968   1.635  0.1002  0.3648  0.0988
 5836W        W24040  17.069   9.228   2.976 -0.0052  0.1290  0.3273
 5837W        W24041   1.931  10.191  13.777  0.1426 -0.0285  0.2700
 5838W        W24042   8.160  18.759  13.108  0.2685  0.4400 -0.1128
 5839W        W24043   3.330   1.632  14.835  0.1528 -0.1429  0.2637
 5840W        W24044   8.732  17.220  12.246 -0.1400  0.0104 -0.4791
 5841W        W24045   7.179   5.819  12.233 -0.1879  0.2593 -0.3680
 5842W        W24046   0.635  13.338  11.386  0.0280  0.1399  0.0331
 5843W        W24047   7.626   5.176   2.888 -0.1692 -0.4816  0.0842
 5844W        W24048  11.582   5.477  12.302  0.0158  0.2265  0.1665
 5845W        W24049   3.880   5.724  11.316 -0.3750  0.0483 -0.2892
 5846W        W24050   8.207   9.263   3.384 -0.1159  0.0529  0.0905
 5847W        W24051   6.724   8.534  10.780 -0.3648 -0.2122  0.2084
 5848W        W24052  14.424  10.919  11.697  0.0595 -0.4524  0.3495
 5849W        W24053  11.628   4.908   2.095  0.0493  0.1730  0.1441
 5850W        W24054   1.981   1.729   1.234 -0.3368 -0.3652 -0.1771
 5851W        W24055   1.001   0.872   1.826  0.2902 -0.2240 -0.0134
 5852W        W24056  17.577   8.886  12.817 -0.0708 -0.0107  0.1488
 5853W        W24057   5.853  13.144   4.306  0.0463  0.0404  0.0444
 5854W        W24058   8.088  18.893  11.687  0.0746 -0.1620 -0.0908
 5855W        W24059   9.833   1.140   0.300  0.3450 -0.2523 -0.2401
 5856W        W24060   6.325  13.632   3.376 -0.0268  0.1506 -0.0656
 5857W        W24061   8.028  15.378   1.220 -0.0077 -0.0106 -0.0874
 5858W        W24062   4.415  10.472  12.990 -0.1737  0.1906 -0.0804
 5859W        W24063  17.791   5.649   4.821 -0.0565  0.0820 -0.0238
 5860W        W24064   0.765  17.215   0.513 -0.1718  0.3126 -0.0845
 5861W        W24065   7.693  11.824  12.222  0.0046 -0.0941  0.3246
 5862W        W24066  14.068   1.588  13.884  0.2882 -0.0747 -0.1413
 5863W        W24067   9.817   7.595   2.624 -0.0620  0.0686  0.0063
 5864W        W24068  14.838  17.766  12.033  0.0609 -0.0296 -0.0059
 5865W        W24069  12.971   0.953   3.606  0.1620 -0.1334 -0.0682
 5866W        W24070  10.607   2.631   0.662  0.1164 -0.1174 -0.0641
 5867W        W24071  13.503  11.640   1.484 -0.1430 -0.1893  0.2560
 5868W        W24072   1.534   3.347  10.653  0.3545  0.1429  0.0022
 5869W        W24073   4.421   6.927  11.243  0.3998 -0.0343 -0.1580
 5870W        W24074   4.493  10.469   3.146 -0.0595  0.0371 -0.0205
 5871W        W24075   2.166   4.148   3.917  0.2360  0.0398 -0.1413
 5872W        W24076  17.920   6.576   2.113  0.0301  0.1232 -0.2495
 5873W        W24077   6.052   4.856  11.351  0.1045  0.0073 -0.1108
 5874W        W24078  18.184   6.069  10.139  0.2024  0.1969 -0.4813
 5875W        W24079  15.427   9.640   0.039 -0.0381 -0.0940  0.0267
 5876W        W24080   6.283   7.100   4.967  0.3226 -0.4865  0.0988
 5877W        W24081   3.359   5.911  13.466 -0.1228 -0.1147 -0.0357
 5878W        W24082   6.587   2.153   0.666  0.2306  0.0695 -0.1221
 5879W        W24083   6.517  15.257   3.991  0.1452  0.1177 -0.0391
 5880W        W24084   6.071  12.589  14.678 -0.2835  0.1996 -0.3104
 5881W        W24085   1.139   2.405  12.409  0.2204  0.2529  0.2345
 5882W        W24086  11.267  12.330   4.346  0.1724 -0.1774 -0.0274
 5883W        W24087   4.950   3.318   4.138 -0.2627  0.1128  0.2051
 5884W        W24088  18.849   8.705   1.015 -0.3735 -0.0248  0.1317
 5885W        W24089  15.810  17.987   1.395 -0.4352 -0.0454  0.1786
 5886W        W24090  15.879   2.910   1.151 -0.0158  0.0069 -0.0604
 5887W        W24091   7.736   4.558   0.603  0.0448 -0.0462  0.3515
 5888W        W24092  14.901   5.306  11.773 -0.2230  0.0630  0.2644
 5889W        W24093   3.528   5.545   0.026  0.1768 -0.1172 -0.0204
 5890W        W24094  11.800   5.966   2.765 -0.1588 -0.2491 -0.1445
 5891W        W24095   0.570  17.484   4.146 -0.0556 -0.0604 -0.0313
 5892W        W24096  10.419  17.954   0.508  0.0317 -0.0536  0.0576
 5893W        W24097  17.803  11.602  14.034  0.0794 -0.0882  0.1323
 5894W        W24098  10.413   3.978   4.027 -0.0040 -0.0597  0.0764
 5895W        W24099   8.558  12.085   0.138  0.1458 -0.0536  0.0178
 5896W        W24100   5.781   4.291  10.379  0.0919  0.0235  0.0867
 5897W        W24101   0.445   7.876   0.316  0.0579 -0.0260  0.1468
 5898W        W24102  10.354   3.702   3.594  0.1584  0.1256  0.0755
 5899W        W24103   4.527   3.592  14.938 -0.0096  0.0660  0.1731
 5900W        W24104  14.070  11.826  12.704  0.2069 -0.0018 -0.1662
 5901W        W24105   9.010   8.363  12.742 -0.1409  0.0921  0.0943
 5902W        W24106   7.399   7.115   0.876 -0.2043 -0.0030 -0.1301
 5903W        W24107  14.522  17.800   1.879 -0.1804  0.0316  0.4448
 5904W        W24108   1.419   3.120  11.093  0.0154 -0.0474 -0.2117
 5905W        W24109  11.021   0.732  10.619  0.2258 -0.3209  0.4439
 5906W        W24110   7.657  11.855  13.428 -0.1296 -0.0085  0.0166
 5907W        W24111   9.260   9.252  13.155 -0.0395  0.0467 -0.0658
 5908W        W24112  17.607  13.701  13.042 -0.2983  0.1697  0.0529
 5909W        W24113   9.949  16.001  13.011 -0.0486 -0.0044 -0.2132
 5910W        W24114   4.056   6.523   4.094 -0.0922  0.0280  0.1822
 5911W        W24115   8.611   6.667   3.016 -0.1834  0.5243 -0.3106
 5912W        W24116   9.631   6.794  14.037 -0.2282  0.1286 -0.1835
 5913W        W24117  14.147  10.109  13.491  0.3716  0.0073  0.1168
 5914W        W24118   6.288  16.563  11.364  0.2925  0.1513  0.0298
 5915W        W24119   3.437  14.322  14.655 -0.2203  0.2284  0.1667
 5916W        W24120   0.068   5.517   4.390 -0.0652  0.0520  0.1308
 5917W        W24121   1.108   5.120  11.589  0.0106  0.0636 -0.1168
 5918W        W24122   5.273  12.402  14.670  0.1899 -0.0761 -0.3446
 5919W        W24123  13.143   8.706   2.703 -0.1952  0.0061 -0.2251
 5920W        W24124  11.221  10.068  13.924 -0.0940 -0.1788 -0.1603
 5921W        W24125  17.744  15.407  11.087 -0.0817  0.0053 -0.0297
 5922W        W24126   2.108   1.030   2.440  0.0921 -0.1251 -0.0002
 5923W        W24127  12.840   8.084  13.452 -0.0199 -0.1542 -0.1002
 5924W        W24128  10.968  18.177   3.389 -0.0982 -0.0409 -0.2556
 5925W        W24129  14.673   7.203  14.634  0.2678 -0.0879  0.0841
 5926W        W24130   6.371   7.837   4.483  0.1020  0.1222  0.1348
 5927W        W24131  10.852  17.787   0.344 -0.0823 -0.0951 -0.3866
 5928W        W24132   1.168  13.091  11.011 -0.2842 -0.1804  0.0275
 5929W        W24133  17.999  12.350   0.404 -0.0816  0.1215  0.0083
 5930W        W24134  16.386  16.534   0.360 -0.0639 -0.3159 -0.0895
 5931W        W24135  16.981   8.291   2.134  0.0650 -0.1627 -0.0272
 5932W        W24136  17.393  17.160   4.101 -0.0102 -0.2283 -0.0667
 5933W        W24137   8.768   6.219  13.551  0.1707 -0.0649 -0.0970
 5934W        W24138   0.207   1.380  12.757 -0.1674  0.1002 -0.0169
 5935W        W24139   7.883  18.920   0.095 -0.1670  0.0254 -0.0619
 5936W        W24140  10.598   8.031  10.952 -0.2998 -0.0162  0.1861
 5937W        W24141   9.276  11.606   0.245  0.0660 -0.0722 -0.1174
 5938W        W24142   7.368  18.259   1.791 -0.0802  0.1758 -0.0384
 5939W        W24143  14.372   5.459   3.308 -0.2608 -0.1798 -0.0317
 5940W        W24144   1.953   6.820  14.162  0.0655  0.4737  0.0157
 5941W        W24145   9.294  10.276   0.010 -0.0701 -0.1380 -0.1243
 5942W        W24146   1.682  14.366   1.933 -0.0561 -0.2131  0.1790
 5943W        W24147  11.243  16.870   4.404  0.1093 -0.1613 -0.0760
 5944W        W24148  15.541   7.102  12.740 -0.0871  0.2811 -0.1639
 5945W        W24149   9.413   2.519   2.363  0.1185  0.1139 -0.2199
 5946W        W24150   9.952  15.425   2.053 -0.0344  0.1149 -0.0334
 5947W        W24151   6.654   1.570  10.628  0.0570  0.1024  0.2729
 5948W        W24152   6.633  12.824   4.262 -0.3881 -0.0390  0.0893
 5949W        W24153   9.503   9.581  10.537  0.2374 -0.2386 -0.1076
 5950W        W24154  12.513  11.131   0.378  0.0047 -0.0673 -0.0107
 5951W        W24155   3.625  10.913  14.723  0.0616  0.0283  0.1762
 5952W        W24156   0.796  10.554  14.500  0.1600  0.2759 -0.3942
 5953W        W24157   2.046  11.854   3.228  0.0050  0.0295  0.0315
 5954W        W24158   1.760  14.753  11.015 -0.0765  0.1014  0.1519
 5955W        W24159   3.933  16.262   4.133 -0.0785 -0.0638  0.2378
 5956W        W24160  10.274   5.609  12.026 -0.0777 -0.0372  0.0836
 5957W        W24161   9.152  16.870   0.290  0.0252 -0.2065  0.3369
 5958W        W24162  13.258   6.325  11.015 -0.1057 -0.3152 -0.2497
 5959W        W24163  11.191   9.295   1.623  0.1300 -0.0528 -0.1585
 5960W        W24164   5.960  14.530  13.399  0.0997 -0.5384 -0.0147
 5961W        W24165  18.868   1.746   1.907 -0.0949  0.1298  0.1233
 5962W        W24166   9.531   8.702  10.890 -0.1277  0.1967  0.0063
 5963W        W24167   7.496  11.086   5.680 -0.1422  0.2900  0.1904
 5964W        W24168  12.144  18.724   0.585  0.0572  0.2466  0.2115
 5965W        W24169   5.041  12.322   3.176  0.0673  0.2821 -0.0740
 5966W        W24170  12.808   0.641  12.868 -0.2461 -0.1059  0.1344
 5967W        W24171   3.097   3.303  12.367  0.1667 -0.1182 -0.2367
 5968W        W24172   0.356  16.053  14.277  0.2200  0.0073  0.3798
 5969W        W24173   0.762   4.757  12.614 -0.0787 -0.1440 -0.0536
 5970W        W24174   9.582   8.314  11.210  0.1427  0.2726 -0.0523
 5971W        W24175   9.441  15.603  13.169 -0.1637  0.0255  0.3604
 5972W        W24176  13.200  16.737  14.190  0.0290 -0.0699 -0.0510
 5973W        W24177  13.591  12.047   3.173  0.0242 -0.0162  0.1005
 5974W        W24178   3.778   2.544  12.765 -0.2578 -0.0691 -0.1035
 5975W        W24179   6.232  11.774   9.657 -0.0258  0.3399  0.1074
 5976W        W24180   5.383   4.704   0.639 -0.1161  0.0869 -0.0873
 5977W        W24181   5.143   6.182   2.467  0.1181  0.0756 -0.0929
 5978W        W24182  13.378  16.790  10.569 -0.1013  0.1163  0.2773
 5979W        W24183  13.628   9.919  14.840  0.1489 -0.0458 -0.0170
 5980W        W24184   0.934   5.744  14.618 -0.2212  0.2273 -0.1056
 5981W        W24185  11.249  16.392   3.367  0.2489  0.0551  0.2406
 5982W        W24186   4.736  11.229   2.355 -0.2263  0.1492  0.2357
 5983W        W24187  15.975   9.911  15.002  0.1217  0.0526 -0.3268
 5984W        W24188   1.055   7.989  11.767 -0.0838  0.2502  0.2074
 5985W        W24189  12.875   9.289   3.109 -0.0055 -0.0890  0.0077
 5986W        W24190   2.716  18.912  15.025  0.2375  0.0730 -0.3723
 5987W        W24191  17.989  14.962   0.670 -0.3416 -0.2667  0.0339
 5988W        W24192   8.452  12.460  10.598  0.0231 -0.5266 -0.3343
 5989W        W24193  12.184   4.992   2.875 -0.1294 -0.1081 -0.1107
 5990W        W24194  16.838  13.221   3.673  0.0277  0.1025 -0.0569
 5991W        W24195   0.768   7.437  13.848 -0.3426  0.0551 -0.1762
 5992W        W24196  11.664   0.757   2.685  0.3922 -0.2814  0.2817
 5993W        W24197  11.735  12.894   4.436 -0.3527 -0.0302 -0.1134
 5994W        W24198  12.043   8.501  14.567  0.0993  0.1853  0.1582
 5995W        W24199  11.215   3.780   0.627  0.3429  0.2812 -0.1481
 5996W        W24200  14.990   7.020   3.250 -0.2006  0.1313  0.2121
 5997W        W24201   5.639  12.867   3.847  0.1633  0.2119  0.4113
 5998W        W24202   3.372  14.713  12.508 -0.0274  0.0082 -0.0488
 5999W        W24203   4.460  16.949   3.279 -0.1872  0.3458 -0.0481
 6000W        W24204  12.559  17.465  11.059  0.3309 -0.1804  0.0259
 6001W        W24205   7.106  17.875   0.509  0.1134 -0.0320 -0.2411
 6002W        W24206  14.076  15.462   0.877  0.1522  0.1264  0.0972
 6003W        W24207  16.317  16.665  14.179 -0.0650 -0.0195  0.0949
 6004W        W24208  18.596   3.382  14.715  0.2081  0.1294  0.0724
 6005W        W24209   9.361   6.828   2.851 -0.1460  0.1538 -0.1805
 6006W        W24210  10.465  17.017  12.482  0.0762 -0.3263  0.0335
 6007W        W24211  18.246   4.257   4.984  0.0086  0.2315  0.0972
 6008W        W24212   5.910   8.478  14.190 -0.2016 -0.0748  0.0897
 6009W        W24213   8.045   3.634   3.206 -0.1037 -0.1167  0.2025
 6010W        W24214  16.772  15.113   1.622 -0.1588 -0.0358 -0.0259
 6011W        W24215  18.940  14.548   1.522  0.0496 -0.0555 -0.2617
 6012W        W24216   6.946   5.333  13.791 -0.1787 -0.0968 -0.2237
 6013W        W24217   5.536   2.679   1.393  0.1074 -0.2460  0.2221
 6014W        W24218  15.076  18.550   3.727  0.0484 -0.3054  0.3365
 6015W        W24219  18.401   7.846   0.939  0.0487 -0.1884  0.0309
 6016W        W24220  17.026   4.870  11.233  0.0887 -0.4578  0.0371
 6017W        W24221   6.325   1.825  13.574  0.1736 -0.0624 -0.1885
 6018W        W24222   6.890  17.187  11.575 -0.1708  0.0228  0.1021
 6019W        W24223   2.862  12.157   3.534  0.0799 -0.2709  0.1397
 6020W        W24224   7.106  14.051   0.029  0.1014 -0.4043  0.3873
 6021W        W24225  13.278   7.099  14.372  0.0334 -0.1185 -0.1097
 6022W        W24226  13.621  11.431  11.833 -0.0035 -0.0599  0.1877
 6023W        W24227   3.441  12.609   1.882 -0.1739  0.0999 -0.1858
 6024W        W24228   0.422   9.430   0.153 -0.0565  0.1255 -0.0597
 6025W        W24229   9.282  14.222   2.151 -0.2844 -0.1964 -0.4277
 6026W        W24230  12.761   0.846   0.948 -0.0049  0.1643 -0.1632
 6027W        W24231  12.257  10.040  12.505  0.0494  0.1022 -0.0622
 6028W        W24232   4.406   3.025   2.762  0.0361 -0.0619  0.2627
 6029W        W24233  17.914   6.675  11.273  0.1277  0.1581 -0.0522
 6030W        W24234   3.348  18.605   2.259  0.3592  0.0705 -0.1313
 6031W        W24235  15.796  10.105  12.461  0.0411 -0.0692 -0.1332
 6032W        W24236   1.819   9.258   0.127  0.0416  0.1979  0.0158
 6033W        W24237   4.961   9.814  14.769 -0.1099  0.0781 -0.0002
 6034W        W24238   9.768  10.439   3.413 -0.1253  0.2942 -0.3557
 6035W        W24239  12.578  16.872  12.467  0.3419 -0.1177 -0.0869
 6036W        W24240   5.786   3.182  10.454  0.2503  0.1670 -0.1112
 6037W        W24241   4.351   8.168   3.602 -0.1546 -0.2290 -0.1243
 6038W        W24242   3.015   4.168   1.219 -0.2089  0.0068 -0.2612
 6039W        W24243  13.800  10.503   1.431 -0.0450 -0.0785 -0.2869
 6040W        W24244  13.892   6.358   3.540  0.0159 -0.0905  0.3720
 6041W        W24245  13.832   9.495   1.646 -0.0173 -0.0065 -0.0457
 6042W        W24246  12.880  16.481  13.894  0.1884  0.1665 -0.2480
 6043W        W24247   7.041   0.458  14.873  0.0455  0.0853  0.2460
 6044W        W24248  10.687   9.797   3.885 -0.0206  0.1621  0.2181
 6045W        W24249   1.216   6.014   1.500  0.3630  0.2099  0.1371
 6046W        W24250   3.756   1.755   1.023 -0.0084 -0.2163 -0.1036
 6047W        W24251  13.778   7.906   0.963 -0.1373 -0.4029  0.0782
 6048W        W24252  11.688  11.996  11.339  0.0026 -0.2109  0.1154
 6049W        W24253   9.690  11.793   1.420 -0.0967 -0.1177  0.0901
 6050W        W24254   2.907   6.958  12.992 -0.3248  0.2641 -0.3016
 6051W        W24255   3.072  12.433   3.150 -0.1790  0.0406  0.3205
 6052W        W24256   6.618   8.047  11.108 -0.1354  0.1875 -0.0338
 6053W        W24257   4.895   3.067   3.687  0.0329 -0.1324  0.1792
 6054W        W24258  18.637  17.782  14.792  0.1611 -0.1299  0.0634
 6055W        W24259   0.438   3.358   0.279 -0.0375 -0.4279  0.0747
 6056W        W24260   6.986   5.945   0.795  0.0764  0.0859 -0.1748
 6057W        W24261  17.505  16.735   4.848 -0.3871  0.0123 -0.1594
 6058W        W24262   6.194  11.659   4.152 -0.2690  0.1265  0.1626
 6059W        W24263   0.044   5.740   3.546 -0.2093 -0.2203  0.2009
 6060W        W24264  16.799   5.410  11.204 -0.1445  0.1149  0.5500
 6061W        W24265   6.856   5.227   1.696  0.0480  0.1552 -0.0165
 6062W        W24266   4.526  14.540  13.795 -0.0750 -0.0923  0.0195
 6063W        W24267   9.459   0.553  14.210  0.0152 -0.2363  0.0255
 6064W        W24268   8.507   4.148   0.641  0.3071  0.1107  0.1532
 6065W        W24269   6.939  14.981   0.323 -0.4232 -0.0350  0.1230
 6066W        W24270  16.108   4.980  12.238  0.5615 -0.2378 -0.0301
 6067W        W24271   4.580  17.347  11.896  0.1125  0.3153 -0.1970
 6068W        W24272   6.893   7.466   2.359 -0.0100  0.3732 -0.0517
 6069W        W24273   1.391   4.648   4.047  0.1472  0.0092 -0.1769
 6070W        W24274  13.482  14.629  14.579 -0.1247 -0.1581 -0.0356
 6071W        W24275   3.929   0.996  12.504  0.2101  0.0231 -0.2100
 6072W        W24276  15.705  18.399   2.184 -0.0199  0.1074  0.2715
 6073W        W24277  16.959   6.205  11.474  0.1339 -0.0754 -0.0175
 6074W        W24278   9.784  15.131  12.517 -0.1304 -0.0628  0.2258
 6075W        W24279  15.875  13.313  11.417 -0.2934  0.2054 -0.0399
 6076W        W24280  10.739  17.653  14.654  0.5038  0.0355  0.1281
 6077W        W24281   1.504   7.575  14.580  0.3047 -0.0728 -0.1392
 6078W        W24282  11.372   1.804  12.569  0.2588 -0.0754 -0.2523
 6079W        W24283  16.582   8.720   3.228 -0.0519  0.1659 -0.3289
 6080W        W24284   7.453   4.899   3.241  0.1293 -0.1436  0.0118
 6081W        W24285  14.988  15.410  12.508 -0.0643 -0.0494  0.1302
 6082W        W24286   1.064  13.354  14.945 -0.1434 -0.0982 -0.1652
 6083W        W24287  14.753   1.243  14.589  0.2294  0.0381  0.2708
 6084W        W24288   7.957  13.667   5.518 -0.1649 -0.0602 -0.0148
 6085W        W24289  18.219  12.014  13.659 -0.1009 -0.2390  0.0446
 6086W        W24290  14.074  16.841  12.474 -0.2046  0.0255 -0.0059
 6087W        W24291   7.322   2.850   0.811  0.0568 -0.2059 -0.0480
 6088W        W24292   9.211   8.177  13.779  0.2460  0.0835 -0.3106
 6089W        W24293  16.860  11.249   4.070 -0.0729 -0.1485  0.1131
 6090W        W24294  16.544   9.582  11.049 -0.1052  0.1013  0.2530
 6091W        W24295   1.089   9.574  12.619 -0.2016  0.0337 -0.1676
 6092W        W24296   5.533   5.595   4.130  0.1390  0.0802 -0.1330
 6093W        W24297   9.028   3.994   1.355 -0.0676 -0.2356 -0.0092
 6094W        W24298  12.589  11.910   5.580 -0.2123 -0.0560  0.2813
 6095W        W24299  10.769  17.418   2.514  0.2295 -0.0028 -0.1330
 6096W        W24300   7.227  11.473  14.780  0.3226  0.1116  0.2152
 6097W        W24301  17.818   0.899   3.512 -0.1398  0.0239 -0.2169
 6098W        W24302   4.606   9.888  10.882  0.1777 -0.2951  0.2313
 6099W        W24303   1.607  10.192   4.500 -0.1966 -0.1711  0.0187
 6100W        W24304  10.592   7.860  13.982 -0.2226 -0.0795  0.3110
 6101W        W24305   7.576   7.793   1.721  0.1891 -0.2814 -0.2856
 6102W        W24306   7.893  13.719  12.251  0.1035 -0.3397 -0.0258
 6103W        W24307   2.610   1.061  11.588  0.1261  0.0819 -0.0327
 6104W        W24308  17.005  11.714  14.117  0.0566  0.0392 -0.1081
 6105W        W24309  16.427  17.472  13.788  0.1428  0.2481 -0.1404
 6106W        W24310  10.516  17.532   2.124 -0.0994 -0.1129  0.0431
 6107W        W24311  14.118  14.081   1.560  0.2616 -0.2000  0.2741
 6108W        W24312  10.417   0.567   3.654  0.0776 -0.0158  0.1997
 6109W        W24313  14.483  13.138   4.204 -0.2740 -0.1942  0.0526
 6110W        W24314   3.500   9.841   0.240 -0.0659  0.1072  0.1148
 6111W        W24315  15.033  18.472   1.730  0.1515 -0.1305 -0.1236
 6112W        W24316   3.690  18.502   0.166  0.0153  0.0612 -0.0853
 6113W        W24317  16.412  17.252   1.802  0.1489  0.3108 -0.1133
 6114W        W24318  11.212  13.170   2.248 -0.0216 -0.1867 -0.2875
 6115W        W24319   1.673  12.053  12.340 -0.2951 -0.0272  0.1283
 6116W        W24320   2.257  17.141  10.861  0.0427  0.1024 -0.2563
 6117W        W24321   7.999  13.085   4.454  0.0643 -0.1805 -0.0150
 6118W        W24322  13.832   5.400  11.913  0.1274 -0.3507  0.2037
 6119W        W24323   3.963   0.369   2.148  0.3794  0.2641 -0.1191
 6120W        W24324  16.642   4.438   3.109 -0.0093 -0.0629 -0.0289
 6121W        W24325   4.137  12.013   0.424  0.1213 -0.2608  0.1543
 6122W        W24326  18.275   0.995   0.032  0.1189 -0.4432 -0.3595
 6123W        W24327  14.309  17.991   3.588 -0.1776 -0.0379  0.0284
 6124W        W24328  15.529   0.013  12.362  0.0166 -0.0347 -0.2114
 6125W        W24329   9.949   0.309   3.653  0.2391 -0.4850 -0.3250
 6126W        W24330  12.276   6.102   0.207  0.1606  0.1212 -0.2213
 6127W        W24331   1.908  15.312  12.175  0.2029 -0.1411 -0.1818
 6128W        W24332   7.055   2.143   0.984 -0.3037  0.1970 -0.0581
 6129W        W24333  11.160  16.565  10.314 -0.1693 -0.0928  0.3902
 6130W        W24334  18.593  15.843  11.932  0.0047 -0.2053  0.2018
 6131W        W24335   0.832   5.202  13.050 -0.0347 -0.1968  0.2041
 6132W        W24336   9.106  15.300  10.522  0.0530  0.2099 -0.1557
 6133W        W24337   7.792   6.669   4.195  0.1418 -0.0288  0.1837
 6134W        W24338   2.684  18.797   1.105 -0.1223 -0.1707 -0.0870
 6135W        W24339   5.847   1.553   0.979  0.1323  0.2519  0.4396
 6136W        W24340  16.652  13.578  13.268  0.1874 -0.1147  0.3433
 6137W        W24341  13.365  16.609   1.933  0.2437 -0.1639  0.2009
 6138W        W24342  16.584   9.158  11.952  0.2224  0.1176 -0.0015
 6139W        W24343   0.396  18.203   1.518  0.1399 -0.2269  0.2525
 6140W        W24344  12.622   2.362   1.790 -0.2102  0.0585  0.2493
 6141W        W24345   5.451   7.598   0.754  0.2305  0.0695  0.1187
 6142W        W24346   0.118   9.784   2.927 -0.3529  0.2008 -0.0961
 6143W        W24347   0.502  17.857   0.451 -0.0425 -0.0684 -0.0293
 6144W        W24348   1.827  14.873   0.122  0.1999 -0.1675 -0.0514
 6145W        W24349   6.822   0.699  12.737 -0.0345  0.1993  0.1218
 6146W        W24350   3.124  13.632   3.317 -0.2943 -0.0370  0.1091
 6147W        W24351   7.874   3.457  13.764 -0.3062  0.0465 -0.1427
 6148W        W24352  18.164   9.114  14.128 -0.0846 -0.2202  0.1348
 6149W        W24353  12.138   3.241  10.798 -0.1437  0.1984  0.0242
 6150W        W24354   2.979  17.870  12.110  0.0505 -0.3653 -0.1165
 6151W        W24355   9.556   7.216   3.804  0.1066  0.2122 -0.0845
 6152W        W24356   6.652  10.475  15.002  0.2500 -0.1498  0.2005
 6153W        W24357  15.755  16.069   3.156 -0.3095 -0.1009 -0.0378
 6154W        W24358   2.923  18.348   3.528  0.0953 -0.0464 -0.3273
 6155W        W24359   4.851  16.457   4.108 -0.1838  0.0495  0.1722
 6156W        W24360  14.479   7.673  10.741  0.1717  0.1573 -0.1494
 6157W        W24361  13.467   3.642  13.941 -0.0795 -0.1973 -0.5296
 6158W        W24362  15.298  13.015  12.151  0.3731 -0.0328 -0.1714
 6159W        W24363   6.503  14.019  14.536 -0.1369  0.2462  0.1875
 6160W        W24364  11.149   3.743  13.887  0.1164 -0.4662  0.0466
 6161W        W24365  17.432  16.904  12.785 -0.3015 -0.0162  0.0244
 6162W        W24366   1.955  16.042   1.031  0.1467 -0.0808  0.0994
 6163W        W24367   1.162  11.725   3.370  0.2200 -0.0891  0.1771
 6164W        W24368  12.927   1.082  13.076  0.2270  0.0276  0.0593
 6165W        W24369  18.298   7.759  12.421 -0.0094  0.1519 -0.0558
 6166W        W24370  10.942  18.927  11.375  0.1071  0.0554  0.3331
 6167W        W24371  18.500  18.874  13.809 -0.1159 -0.0281 -0.4313
 6168W        W24372  17.275  10.263   1.512  0.1694  0.0334 -0.1389
 6169W        W24373   6.027   9.932  10.894  0.5507  0.0408 -0.0295
 6170W        W24374  11.995   4.785  12.099 -0.0909  0.2045 -0.1652
 6171W        W24375   0.031  13.251   4.586 -0.1968  0.2820  0.1154
 6172W        W24376  15.144  11.265  13.837  0.0326  0.1619 -0.1072
 6173W        W24377  14.898  12.401   3.613 -0.0359 -0.3821  0.0641
 6174W        W24378  14.279   4.087  14.071  0.2224 -0.1856 -0.1354
 6175W        W24379  16.673   1.735   1.598  0.0258  0.0524 -0.3639
 6176W        W24380   7.626  11.269   0.774  0.3782  0.1269 -0.2184
 6177W        W24381   4.528  16.884  14.902 -0.1684  0.2582  0.2149
 6178W        W24382   9.727  16.945   0.193  0.0079 -0.0574 -0.0681
 6179W        W24383  13.372  15.936  11.930 -0.1419  0.0428 -0.2718
 6180W        W24384  13.763   5.822   5.004 -0.1733 -0.0123  0.2614
 6181W        W24385   3.399  16.575  14.674 -0.2257  0.0985 -0.1892
 6182W        W24386  13.025  12.126  13.364 -0.1331  0.1261 -0.3093
 6183W        W24387  12.653  11.830   1.002  0.1748  0.0202  0.1151
 6184W        W24388  13.841   8.652   0.405  0.0470  0.0005 -0.4762
 6185W        W24389  16.283   9.344   3.923 -0.1464  0.3373  0.0927
 6186W        W24390   6.312   7.973   5.013  0.0792 -0.2862 -0.0175
 6187W        W24391  15.104  18.876   4.196  0.0878  0.0999 -0.2008
 6188W        W24392   3.312   4.264  12.304 -0.0847  0.0653 -0.2880
 6189W        W24393  14.567  18.161  11.858 -0.1892  0.1077 -0.0638
 6190W        W24394  18.237  14.874  14.524  0.1482 -0.0502 -0.1476
 6191W        W24395   8.969   3.719   1.836  0.1997 -0.2980  0.0090
 6192W        W24396   6.668   5.329  14.909  0.0228 -0.1345 -0.0548
 6193W        W24397   1.379   7.726   5.308 -0.3179 -0.2357 -0.1033
 6194W        W24398   8.096  11.197   0.626 -0.1641 -0.2000 -0.0481
 6195W        W24399  14.918  18.105  11.517  0.0277 -0.0079 -0.0132
 6196W        W24400  11.415   2.682   1.069  0.1174  0.0702 -0.1710
 6197W        W24401  11.133   6.130  14.875 -0.0412 -0.1594 -0.1017
 6198W        W24402  12.150  18.789   1.298  0.0780 -0.0021 -0.3685
 6199W        W24403  16.634   0.704   0.291 -0.0270 -0.0297  0.1326
 6200W        W24404  10.535   2.920  10.125 -0.0881  0.1529  0.0487
 6201W        W24405  14.788  17.623  14.917 -0.1525 -0.0819 -0.0417
 6202W        W24406  11.837   3.213  13.269 -0.1008 -0.0014  0.0435
 6203W        W24407  12.468  16.192   0.516  0.1267 -0.1602 -0.1864
 6204W        W24408   9.308  13.541   0.374 -0.0249 -0.1015 -0.2205
 6205W        W24409   1.518   1.703  14.674 -0.1905 -0.2278 -0.3142
 6206W        W24410   1.578  18.250   0.905 -0.1473 -0.0440 -0.1401
 6207W        W24411  18.556   4.380   4.004 -0.2005 -0.0193  0.1629
 6208W        W24412   7.565   7.032   3.349 -0.0700  0.0544  0.0577
 6209W        W24413   9.147   7.812   4.460  0.0167  0.2327 -0.3944
 6210W        W24414   8.996   6.318   0.803  0.2200  0.6166 -0.0157
 6211W        W24415   9.332   4.727  12.239 -0.4523  0.0700 -0.2347
 6212W        W24416   4.166  16.436   3.754 -0.0071  0.2223  0.1069
 6213W        W24417   6.034  15.044  10.863 -0.0027  0.1458 -0.1559
 6214W        W24418  10.733  12.310   3.652 -0.2511 -0.0643  0.0482
 6215W        W24419   1.627  10.597   1.271  0.0214 -0.0116  0.1649
 6216W        W24420  13.156   0.392   2.193 -0.4033 -0.0180  0.2806
 6217W        W24421   0.732  15.158   1.812  0.1322  0.1900  0.2858
 6218W        W24422   5.467  18.863  12.353  0.0442 -0.0039 -0.0453
 6219W        W24423   2.734   7.158  14.312  0.0998 -0.0202  0.1269
 6220W        W24424   5.938  13.098   1.320 -0.0320  0.1750 -0.0841
 6221W        W24425   8.655  11.991   1.061  0.3321  0.3883 -0.4182
 6222W        W24426  17.856   3.622   2.470 -0.1675 -0.1430 -0.2045
 6223W        W24427   0.442   6.464  15.027  0.1412 -0.1073 -0.1184
 6224W        W24428   3.494  14.281   4.469 -0.0957 -0.2235 -0.1226
 6225W        W24429  17.848  15.995  13.854  0.3457  0.0784  0.2276
 6226W        W24430   9.127   9.277  10.763 -0.4341 -0.1014  0.2912
 6227W        W24431   1.894  10.989  12.654  0.0522  0.0993  0.0849
 6228W        W24432  10.268   8.931   3.841 -0.1138  0.0921 -0.1850
 6229W        W24433   8.713  10.022   3.963  0.0269 -0.1499 -0.1204
 6230W        W24434  17.186  10.328  13.709  0.2055  0.2696 -0.1541
 6231W        W24435   6.384  13.033  11.150 -0.0268 -0.2232  0.2134
 6232W        W24436  14.482   8.082   2.174 -0.1250 -0.3564  0.1863
 6233W        W24437  11.740   3.083  12.176 -0.2458  0.0696  0.3878
 6234W        W24438  18.597   3.943  14.866 -0.1425  0.0334 -0.2999
 6235W        W24439   3.351  15.500   1.505  0.1747 -0.0781  0.2312
 6236W        W24440   3.189  11.695  13.001  0.2240  0.1864 -0.2458
 6237W        W24441  13.592  17.757   2.791 -0.1111  0.0097 -0.4173
 6238W        W24442  12.088   8.262   3.992 -0.2355  0.2534  0.6370
 6239W        W24443  18.671  18.351   4.074 -0.1757 -0.0250  0.1624
 6240W        W24444   4.352  10.311   4.117  0.1181 -0.1058  0.2392
 6241W        W24445  11.867   6.677   3.332  0.1477 -0.1079 -0.1796
 6242W        W24446   5.469  12.599   2.007  0.0091  0.0870 -0.1538
 6243W        W24447  13.905  10.771   2.731 -0.0964  0.1599 -0.0184
 6244W        W24448   9.719   7.960   0.894 -0.1633  0.2633 -0.1389
 6245W        W24449  16.749   8.615   4.116  0.0313 -0.1527  0.0328
 6246W        W24450   3.809   8.472   3.216  0.0346 -0.1664 -0.2669
 6247W        W24451  13.107  16.885  13.734  0.0538 -0.1993 -0.2680
 6248W        W24452   9.899  10.191  12.779  0.5006  0.1835 -0.1387
 6249W        W24453   4.542  15.932  13.323  0.3522 -0.1632  0.0653
 6250W        W24454   4.400   6.186   0.063  0.3164 -0.1168  0.2751
 6251W        W24455  11.616  10.422   3.777  0.0971  0.0064 -0.0281
 6252W        W24456   7.245   6.380  10.984  0.0545 -0.1161  0.1749
 6253W        W24457   4.821   5.179  11.049 -0.1121  0.1012  0.0412
 6254W        W24458  13.354   1.875  10.309 -0.0700 -0.0882 -0.5488
 6255W        W24459  11.903  15.635  11.525  0.0640  0.2119 -0.1918
 6256W        W24460  15.915  14.843   0.408  0.1711  0.1511  0.3647
 6257W        W24461  16.731  12.464  10.593  0.3721  0.0918 -0.0160
 6258W        W24462   7.686  11.641  14.878  0.4985 -0.2504  0.3157
 6259W        W24463   9.582  12.032   4.450 -0.2085  0.1823 -0.2257
 6260W        W24464  15.702   8.487   2.275  0.3622 -0.2391 -0.0843
 6261W        W24465   3.344   2.766   0.631 -0.5126  0.0857  0.5122
 6262W        W24466   1.505   4.457  13.165 -0.0962 -0.1832  0.0656
 6263W        W24467  18.821   6.664   2.536  0.1062  0.0466  0.3748
 6264W        W24468  11.188   1.171   1.546 -0.1669 -0.0974  0.1576
 6265W        W24469  10.195   5.522   0.189  0.2346  0.1068 -0.0289
 6266W        W24470   2.086   7.697  10.697 -0.1707 -0.0193 -0.2660
 6267W        W24471   4.426  11.893  12.874 -0.2889 -0.0293 -0.1497
 6268W        W24472   0.095  15.943   0.046  0.0437 -0.1082 -0.5159
 6269W        W24473   6.987  16.394   0.698  0.1113  0.2383 -0.2628
 6270W        W24474  15.714  12.353  11.137 -0.1900  0.5833 -0.0409
 6271W        W24475   4.316   1.213   3.323  0.1752 -0.2957 -0.2889
 6272W        W24476   7.550  10.227   3.352  0.2452 -0.0633 -0.2566
 6273W        W24477   6.913  15.577   3.766  0.1470  0.0065 -0.0018
 6274W        W24478   8.593   7.286  14.972  0.1862  0.0728  0.1930
 6275W        W24479   0.468  14.485   2.305  0.3500  0.3636  0.1078
 6276W        W24480   6.732  13.000   1.308  0.0113 -0.1524  0.0555
 6277W        W24481   4.810   4.904   2.001  0.3487  0.1354  0.0302
 6278W        W24482  15.549  16.664   2.735  0.1456 -0.1986 -0.0474
 6279W        W24483   5.985  10.507  13.469  0.2429  0.0717 -0.0936
 6280W        W24484  14.151   4.617  13.602 -0.0161 -0.0815 -0.2363
 6281W        W24485   7.138   0.019   1.080 -0.3268  0.2121 -0.1808
 6282W        W24486   1.783  14.391  14.046 -0.0529 -0.1515 -0.1971
 6283W        W24487  14.306  14.701  12.027 -0.3511  0.1163  0.0060
 6284W        W24488  16.092   1.641   0.621  0.3353 -0.1278 -0.4554
 6285W        W24489   3.298   0.189   2.906 -0.0583  0.2028 -0.1827
 6286W        W24490  17.622   4.398   2.336  0.4804 -0.0065  0.1962
 6287W        W24491  10.648   4.871   1.768  0.2031 -0.0266  0.0572
 6288W        W24492   5.481  11.598   1.793 -0.2349 -0.0455 -0.0655
 6289W        W24493  15.349  17.690   3.430  0.0415 -0.3088  0.2576
 6290W        W24494  16.774   6.993   1.222  0.2061 -0.1964 -0.1891
 6291W        W24495   1.588   7.962  14.889 -0.2143 -0.4697  0.2533
 6292W        W24496   8.050   6.251   0.936 -0.0459 -0.1310  0.2405
 6293W        W24497  16.789  10.474   0.144  0.0436 -0.0866 -0.1037
 6294W        W24498   8.545  11.697  14.795  0.4761  0.0126 -0.0497
 6295W        W24499   0.469   9.275  13.127  0.0012  0.1526 -0.0326
 6296W        W24500   5.992   5.303   4.220  0.1243  0.0999  0.1221
 6297W        W24501  18.801   6.996   3.113 -0.0351  0.1038  0.1045
 6298W        W24502   3.587  10.915   4.487  0.0305  0.0815  0.2965
 6299W        W24503   4.142  18.174   4.565  0.1148 -0.1971 -0.3313
 6300W        W24504   0.614  11.355  12.687 -0.2691  0.3213  0.2798
 6301W        W24505   0.127   0.084   4.343 -0.1813 -0.0096 -0.1200
 6302W        W24506   7.833  15.533   4.381 -0.1793  0.0139 -0.0622
 6303W        W24507   2.870   4.335  12.700  0.0297  0.1463  0.1287
 6304W        W24508   5.571   7.214  12.160 -0.0479 -0.0039  0.2726
 6305W        W24509   2.106   1.678   2.900 -0.1060 -0.2314  0.2701
 6306W        W24510  18.356   8.935   2.952  0.1580 -0.1814  0.0624
 6307W        W24511   4.254  11.297   4.078  0.0309 -0.4484 -0.2043
 6308W        W24512   2.123  15.014   2.521 -0.1456 -0.0127 -0.1973
 6309W        W24513  16.911  10.038  10.664  0.0652 -0.2847 -0.0145
 6310W        W24514   0.732   0.782  13.899  0.2795  0.0399  0.1699
 6311W        W24515  14.600  16.735   0.592 -0.3014  0.1216  0.0467
 6312W        W24516   5.540  16.948   0.581  0.0788 -0.0352 -0.0404
 6313W        W24517   5.232   8.745  11.502  0.2655 -0.0212  0.0723
 6314W        W24518   5.759   4.161  11.286  0.2165  0.1829  0.0122
 6315W        W24519  16.736   9.395   1.176  0.4398  0.0062 -0.0690
 6316W        W24520  16.354   6.794   0.611  0.2513  0.1669  0.0252
 6317W        W24521  12.390   4.417  11.990  0.0152  0.1498 -0.0190
 6318W        W24522   6.387   4.046   3.980  0.0524 -0.2674 -0.0357
 6319W        W24523   8.466   6.468   0.174  0.0013 -0.1013 -0.3309
 6320W        W24524  10.982   7.808  11.856 -0.1702  0.0792 -0.0978
 6321W        W24525  13.303   8.433  14.821  0.0086 -0.1010  0.0861
 6322W        W24526   5.799  13.761   0.060 -0.0404 -0.0160 -0.1130
 6323W        W24527   2.140   8.212  11.241 -0.2106 -0.0939  0.3250
 6324W        W24528  16.450   2.006   2.406 -0.0076 -0.1505 -0.0780
 6325W        W24529   9.433   3.679  11.947 -0.0916 -0.1582 -0.1005
 6326W        W24530   9.522   8.379   0.534  0.2099 -0.2049  0.0119
 6327W        W24531   3.405  12.501  14.375 -0.0681  0.2469 -0.1552
 6328W        W24532  11.624   8.645  14.911 -0.2719  0.2940  0.2275
 6329W        W24533   3.983   4.614   2.315  0.0962  0.2256 -0.0698
 6330W        W24534   1.928   5.951   2.342 -0.0741 -0.1180 -0.1427
 6331W        W24535  16.406  14.426   2.843  0.2413 -0.4148 -0.1190
 6332W        W24536  12.617  13.002   0.355  0.1972 -0.1558 -0.0578
 6333W        W24537  17.699   7.606  14.194  0.1041 -0.0339 -0.2400
 6334W        W24538  18.355   3.036   1.107 -0.2026 -0.2379  0.0348
 6335W        W24539   2.534   7.457   3.397  0.2755  0.0211  0.2438
 6336W        W24540  13.456   1.265  10.822  0.2678 -0.4150 -0.3488
 6337W        W24541   4.167   1.026   0.595 -0.1938 -0.0034  0.1231
 6338W        W24542   8.704   1.488   4.141 -0.1559  0.5559 -0.0373
 6339W        W24543  17.335  15.616   2.230  0.0425 -0.0489  0.0471
 6340W        W24544   7.788  17.743   1.016 -0.4129 -0.0920 -0.0807
 6341W        W24545  12.352  18.305   2.601  0.2175  0.1359  0.1867
 6342W        W24546   4.728   0.071   4.575  0.1567  0.1510 -0.1228
 6343W        W24547  18.564  18.306   1.067  0.1323  0.2545  0.0861
 6344W        W24548   6.275   4.218  11.421 -0.0662 -0.0601  0.3039
 6345W        W24549   6.319  11.605   0.166  0.0361  0.0754  0.4206
 6346W        W24550  11.880  13.444  10.651 -0.2069  0.1537  0.0473
 6347W        W24551  18.352   9.566   0.508 -0.0721 -0.0693  0.0088
 6348W        W24552  12.710  15.186   0.394 -0.0963 -0.3094  0.0473
 6349W        W24553   1.686  10.214  11.857 -0.0933 -0.0320 -0.0150
 6350W        W24554  12.896   6.746  12.509  0.1456  0.1415 -0.0835
 6351W        W24555  14.332  17.467   3.769  0.1725 -0.1750 -0.3003
 6352W        W24556   3.334   7.198  13.097 -0.0760  0.3132 -0.0610
 6353W        W24557  15.719   2.690   1.980  0.1078  0.1482  0.0882
 6354W        W24558  10.746   4.787   0.330  0.1644  0.0946 -0.2413
 6355W        W24559   1.202   6.461   1.788  0.1628  0.1927 -0.1546
 6356W        W24560   4.167   3.847   2.938 -0.2676  0.0453  0.0810
 6357W        W24561   1.300  12.513   1.740 -0.3480  0.1464  0.1525
 6358W        W24562  10.420  16.240   2.306 -0.0617  0.0549 -0.3777
 6359W        W24563  16.859   1.311  13.922 -0.1660  0.1578 -0.0696
 6360W        W24564   8.690   8.126   0.755  0.0302  0.2009 -0.0611
 6361W        W24565   7.191   7.397   4.547  0.0557  0.1843 -0.0133
 6362W        W24566   1.548  17.905   4.460  0.4047 -0.3535  0.3404
 6363W        W24567   0.943  13.300   4.203 -0.0641 -0.3099 -0.0394
 6364W        W24568  10.146   6.224  13.747  0.1692  0.1872  0.3266
 6365W        W24569   9.555  10.515  12.757 -0.0036  0.3038  0.0273
 6366W        W24570   9.469   7.173   5.392 -0.0406  0.0771  0.1117
 6367W        W24571  11.671   7.826  13.584 -0.0870  0.2204 -0.1092
 6368W        W24572  17.919  16.958  13.784  0.0399 -0.4027 -0.0371
 6369W        W24573   2.419  12.197  13.115  0.2125 -0.2504 -0.1013
 6370W        W24574   3.950  13.324  11.348 -0.0315  0.1941  0.0048
 6371W        W24575   8.608   2.607  12.081 -0.0958  0.0139  0.0758
 6372W        W24576   9.557  12.864  13.112  0.0585  0.2149  0.0959
 6373W        W24577  14.906   2.408   4.478 -0.0374  0.1305 -0.0293
 6374W        W24578   7.461   5.238   3.660 -0.0501 -0.2285  0.0078
 6375W        W24579   5.295   9.398  11.390 -0.0344  0.0833 -0.0619
 6376W        W24580   8.274   1.505  13.338  0.0744 -0.4106 -0.4841
 6377W        W24581   5.661   4.896   1.761  0.1033  0.0042  0.3224
 6378W        W24582   6.411  12.221  14.611 -0.2168 -0.0699 -0.1162
 6379W        W24583   8.510  13.803   4.182  0.0450  0.1126 -0.1294
 6380W        W24584  16.045   0.188  12.425  0.1109  0.1378 -0.0882
 6381W        W24585  12.415  18.460  14.076 -0.0715  0.3755  0.4791
 6382W        W24586   8.941  17.748  13.279  0.1573 -0.0198  0.2419
 6383W        W24587   4.902  11.210  10.868 -0.0839 -0.4989  0.1409
 6384W        W24588  18.772  17.166   3.493 -0.0070  0.1512 -0.1689
 6385W        W24589   3.850   4.567  13.623 -0.1455  0.0949 -0.1643
 6386W        W24590   6.672  11.998  12.476 -0.1181 -0.0120  0.1404
 6387W        W24591  16.888  15.519  13.124 -0.1767  0.2112  0.0950
 6388W        W24592  16.754  10.448  12.349  0.0183 -0.0999 -0.3621
 6389W        W24593  12.989   8.507   0.834  0.0468 -0.0079  0.0214
 6390W        W24594   1.681  12.388  11.497  0.1782 -0.0070  0.0950
 6391W        W24595  17.059   7.527  14.714 -0.0211 -0.1347  0.1359
 6392W        W24596   7.500   2.197   4.286 -0.0399  0.1035  0.0345
 6393W        W24597   8.243  18.900   9.825 -0.0167  0.0327 -0.0039
 6394W        W24598   9.836  13.754   5.285 -0.4604 -0.1344  0.1410
 6395W        W24599   8.219   8.681   1.884  0.2116 -0.1001  0.3362
 6396W        W24600   1.585  14.498   3.588  0.0548 -0.1767 -0.1946
 6397W        W24601   7.950  18.272   0.864 -0.1428 -0.0050  0.0337
 6398W        W24602   4.626  13.693  14.187 -0.2091 -0.1067  0.0560
 6399W        W24603   6.743   4.231   4.254 -0.2169  0.1722 -0.1617
 6400W        W24604   2.112   6.737   2.939 -0.0682  0.0393  0.1141
 6401W        W24605  16.172  11.177   1.100 -0.2059 -0.0696  0.0221
 6402W        W24606   0.095  14.436  13.651  0.1507 -0.1920 -0.1396
 6403W        W24607  17.898   7.618   2.273  0.0407  0.4184 -0.1468
 6404W        W24608   9.068  15.152  13.326  0.0019 -0.2417  0.2183
 6405W        W24609  18.015  14.054   0.051 -0.0122 -0.0884 -0.1727
 6406W        W24610  18.253  17.576   0.987  0.1118 -0.0082  0.0030
 6407W        W24611  12.569   5.785  12.569 -0.1417  0.2186 -0.3898
 6408W        W24612  16.808  16.860   4.987 -0.0596  0.4161 -0.0638
 6409W        W24613   4.812  12.131  11.112 -0.2721  0.2529  0.0527
 6410W        W24614   8.322  17.514  12.048 -0.3709 -0.1285  0.1444
 6411W        W24615  17.574  18.720   1.271  0.0906  0.0315  0.2550
 6412W        W24616  12.677  11.470  12.064 -0.1861 -0.5519  0.0814
 6413W        W24617  18.047   0.467   0.655 -0.2282 -0.1797  0.0810
 6414W        W24618   0.512  11.714  14.427  0.2420  0.0351  0.0794
 6415W        W24619   1.245  10.029   1.971  0.1200  0.0500  0.1011
 6416W        W24620   3.386   1.469  14.389 -0.0905 -0.1165 -0.1494
 6417W        W24621  10.703  15.312   1.671  0.1334 -0.3010  0.0485
 6418W        W24622   1.416  13.180  11.965 -0.3738  0.0663 -0.2343
 6419W        W24623  13.987   4.784  10.147  0.2467  0.1503  0.2002
 6420W        W24624  11.848  13.905  13.052  0.1344 -0.1113 -0.0324
 6421W        W24625  14.754   2.068  10.937  0.1172  0.1082 -0.1721
 6422W        W24626  14.676  13.654  12.776 -0.4953 -0.1918  0.1419
 6423W        W24627   3.717   5.070   2.288 -0.2092 -0.2708  0.3731
 6424W        W24628   7.750   3.529   1.331 -0.0498  0.1281 -0.0241
 6425W        W24629   5.648  13.593  10.475 -0.0475 -0.0454 -0.0624
 6426W        W24630   4.245  12.795   2.375 -0.0081 -0.0488 -0.0096
 6427W        W24631  15.179   1.529   2.053 -0.3229  0.1884 -0.0501
 6428W        W24632   3.991   0.194   3.789  0.1176  0.1515  0.0358
 6429W        W24633  16.025   6.010   5.089  0.1735 -0.2154 -0.2026
 6430W        W24634  13.519  16.535  13.873  0.0486  0.0765 -0.3248
 6431W        W24635   1.780  13.490  13.310 -0.3082  0.0802 -0.0809
 6432W        W24636  12.266   7.556  14.747 -0.0771 -0.4106 -0.0115
 6433W        W24637  17.274  15.152   9.933 -0.1453  0.2930  0.1772
 6434W        W24638  18.225  17.612  13.327 -0.0209 -0.0584  0.0927
 6435W        W24639  11.489  16.623   0.294 -0.3319 -0.1916 -0.3279
 6436W        W24640  15.606  10.584  10.845  0.0950  0.2505 -0.3602
 6437W        W24641   1.320   3.348   2.369 -0.1801 -0.0986  0.1705
 6438W        W24642   2.405   0.202  12.050 -0.1417  0.1741  0.0561
 6439W        W24643   5.185  11.301   2.700  0.2376 -0.1647 -0.1578
 6440W        W24644  17.845  15.734  14.235 -0.0271 -0.2508  0.4927
 6441W        W24645   3.196   0.859   9.932 -0.0345  0.3019 -0.0177
 6442W        W24646   9.393   4.688  11.748 -0.0740  0.0742 -0.1661
 6443W        W24647   1.930   0.031  11.941 -0.0273 -0.0618 -0.1471
 6444W        W24648  17.751   6.931   0.744 -0.1376  0.4559  0.3465
 6445W        W24649  16.332   6.127   2.855 -0.1048 -0.0041  0.0518
 6446W        W24650   4.747  11.305  11.355  0.1712  0.2625  0.1357
 6447W        W24651  17.164  10.025   3.569  0.4140 -0.1957 -0.0481
 6448W        W24652   3.477  13.619   4.275  0.4341  0.0358  0.0752
 6449W        W24653  18.816  16.514  13.196 -0.2057  0.3177 -0.3683
 6450W        W24654   5.569  10.893   4.548  0.0362  0.2545  0.3210
 6451W        W24655   3.567   8.645   0.675 -0.0353  0.0356  0.1620
 6452W        W24656  10.995   4.579   0.956 -0.3829 -0.0529  0.1371
 6453W        W24657  15.652   4.015   1.550  0.0188 -0.2671  0.0687
 6454W        W24658   2.599  11.916   2.506  0.0397  0.1072 -0.0112
 6455W        W24659   9.426   6.639   0.708  0.0638  0.0964 -0.0119
 6456W        W24660   3.922  12.689   0.103 -0.1034 -0.0810 -0.1570
 6457W        W24661  18.056  10.701  11.972  0.2074 -0.1253 -0.3918
 6458W        W24662   4.222   9.106  15.024  0.0534 -0.1219 -0.1597
 6459W        W24663  12.807  13.568  11.605 -0.0077  0.0622  0.3569
 6460W        W24664   6.251  10.267  14.664  0.0286  0.0955 -0.1246
 6461W        W24665   1.826   6.098   0.653  0.0947  0.1475 -0.1226
 6462W        W24666  13.369  10.336  12.379 -0.0275 -0.1635 -0.0762
 6463W        W24667   7.932  11.082  13.679  0.2192  0.0776 -0.2857
 6464W        W24668  14.229   8.138   1.187 -0.0100 -0.2897 -0.1470
 6465W        W24669   5.290  17.834   4.173 -0.1919 -0.2931 -0.1712
 6466W        W24670   1.067  11.047   0.128  0.3172 -0.0503  0.1192
 6467W        W24671   8.005   4.901  12.590 -0.0291 -0.1950  0.1666
 6468W        W24672   2.137  10.114  10.816  0.0937 -0.2651  0.1339
 6469W        W24673   2.033  11.215   1.892  0.0123  0.1044 -0.1713
 6470W        W24674  15.722  14.868  13.614 -0.0859 -0.4231 -0.1569
 6471W        W24675  11.819  12.731  10.937  0.0020 -0.0923  0.1574
 6472W        W24676   4.328  12.691  13.962 -0.0893 -0.1176  0.1598
 6473W        W24677   1.863   2.910  13.576  0.2247 -0.1096  0.1681
 6474W        W24678   0.919  18.414   3.821 -0.1123  0.1286  0.1120
 6475W        W24679  18.390  11.390   2.745  0.4102  0.3113 -0.1113
 6476W        W24680   1.591   5.213   4.008 -0.0236 -0.1355 -0.2704
 6477W        W24681   2.614  17.532   2.047 -0.0464 -0.0234  0.0964
 6478W        W24682   1.105  16.455   1.278 -0.2434 -0.2619  0.1587
 6479W        W24683   2.625   7.052   0.168  0.3134  0.1103  0.7130
 6480W        W24684  14.040   4.300  13.147 -0.0270 -0.3815  0.2510
 6481W        W24685  18.439   1.907   0.243  0.1129  0.0569  0.0477
 6482W        W24686   9.298   2.023   1.108 -0.0686 -0.1061  0.0341
 6483W        W24687   8.078   0.648   4.697  0.1310 -0.1588  0.1609
 6484W        W24688  14.943   4.954  10.498 -0.5760 -0.1063  0.0750
 6485W        W24689  14.363   3.584   0.096 -0.0450  0.2157  0.2713
 6486W        W24690   6.669  16.208  13.044  0.3054  0.0196 -0.1525
 6487W        W24691  12.920   2.570   3.263  0.1392 -0.1359 -0.0536
 6488W        W24692  10.181   8.163   3.327  0.3485 -0.0834  0.1037
 6489W        W24693   5.475   7.057   3.094 -0.0311 -0.0824 -0.2710
 6490W        W24694  15.046  10.989   1.263 -0.1807 -0.0533  0.4319
 6491W        W24695  12.014   7.081  14.905 -0.2084  0.0828  0.6887
 6492W        W24696  15.262   1.781  15.014  0.2242  0.0087 -0.2037
 6493W        W24697  16.112  13.423   2.035 -0.0385  0.2233 -0.0906
 6494W        W24698  11.082   2.255   1.730 -0.0042 -0.1860  0.1713
 6495W        W24699   3.120  16.372  14.275  0.1360  0.1245 -0.0801
 6496W        W24700   4.447   2.687   1.707  0.1298  0.0263 -0.0655
 6497W        W24701   2.822  12.966  10.532 -0.1831 -0.0643 -0.2538
 6498W        W24702  18.129  13.250   4.369 -0.0791  0.3829  0.0316
 6499W        W24703  18.629   2.690   9.912 -0.2474 -0.1982  0.1265
 6500W        W24704   3.045   8.780   4.113 -0.1377 -0.0009 -0.1368
 6501W        W24705  16.427  16.008   2.093  0.2876  0.2242 -0.0612
 6502W        W24706   8.931  11.648   3.648  0.1394  0.1430  0.1601
 6503W        W24707  17.448  12.724  10.973  0.1490  0.0498  0.3495
 6504W        W24708  12.989   9.589   1.849 -0.0671 -0.1995  0.3153
 6505W        W24709   6.245   7.252   0.119  0.0268  0.3171  0.1243
 6506W        W24710  18.323  16.593   2.227  0.1127 -0.1064 -0.2711
 6507W        W24711   2.675   4.737   1.021 -0.0320 -0.1546  0.1943
 6508W        W24712   1.376  17.445   2.585  0.0049 -0.2707 -0.1808
 6509W        W24713  12.884  12.614  13.807  0.0488  0.2056 -0.1458
 6510W        W24714   0.261  18.198  10.670  0.2731 -0.0725  0.0534
 6511W        W24715  15.343  17.273  12.652  0.2672 -0.2426 -0.0169
 6512W        W24716  16.818   8.998   2.573  0.1122 -0.0897  0.2227
 6513W        W24717   8.602   4.108  13.991  0.0726 -0.1514  0.1434
 6514W        W24718   1.512  16.636  11.961 -0.0567 -0.1751  0.1751
 6515W        W24719   5.678  18.467   3.320 -0.0361  0.0731  0.2259
 6516W        W24720   1.620  15.283   2.447 -0.1402 -0.1830  0.0435
 6517W        W24721  16.147   9.683   1.966 -0.0390 -0.4521 -0.0874
 6518W        W24722  10.279  17.106   1.080  0.2314  0.0360  0.3372
 6519W        W24723   4.672   3.071  13.222 -0.1035  0.0681 -0.0152
 6520W        W24724  17.878   4.778  12.442 -0.2770 -0.1586  0.4371
 6521W        W24725  11.896   6.915   0.441  0.0407 -0.1288 -0.0090
 6522W        W24726   6.150   4.608   1.540 -0.0136  0.1464  0.3535
 6523W        W24727  11.679   4.314  11.403 -0.1744 -0.0255  0.0250
 6524W        W24728  17.995   3.948  10.810  0.1054 -0.0521 -0.2317
 6525W        W24729   3.184  13.341   0.545  0.2706 -0.3986  0.1020
 6526W        W24730   6.084   6.506   4.304  0.2020  0.2328  0.1743
 6527W        W24731  18.601   2.891  14.905 -0.1422 -0.0894 -0.1984
 6528W        W24732   0.814   7.252   3.142 -0.0003 -0.0010  0.0199
 6529W        W24733   7.794   3.161   2.389 -0.1461 -0.0103 -0.0265
 6530W        W24734  11.415   8.801   2.489  0.1417 -0.4063  0.0493
 6531W        W24735  10.182   3.068  13.296 -0.1434 -0.4054  0.1568
 6532W        W24736  16.314   8.469   0.871 -0.0194  0.1604 -0.0273
 6533W        W24737  13.934  11.600  13.143  0.0976  0.2687  0.1085
 6534W        W24738   9.429  12.562  11.707  0.1018 -0.1393  0.3393
 6535W        W24739   6.416  12.287  14.034  0.0466  0.0235 -0.1209
 6536W        W24740   3.897  11.059   3.171  0.0063  0.0010 -0.1003
 6537W        W24741   9.061   6.639   0.332 -0.3713  0.2110  0.2286
 6538W        W24742   4.691  16.021  14.664  0.1883 -0.3114 -0.1491
 6539W        W24743  11.415  18.127  10.319 -0.0809  0.0434  0.3277
 6540W        W24744   4.039   1.546   4.789 -0.2836  0.1850 -0.3448
 6541W        W24745   3.443  14.567   1.262  0.0703  0.0092  0.1640
 6542W        W24746   4.180   5.285   4.601  0.1240  0.2698 -0.0955
 6543W        W24747  11.493  14.917  10.809  0.2231  0.1265  0.4506
 6544W        W24748   6.090  10.071  13.162 -0.2015 -0.1063  0.0416
 6545W        W24749   3.998   1.997   3.841 -0.1989 -0.1939 -0.0171
 6546W        W24750   6.208  15.085   0.401  0.0281  0.1138 -0.0367
 6547W        W24751   9.595   5.990   1.585  0.0434 -0.1687 -0.0314
 6548W        W24752   6.097  10.306   3.265 -0.2741 -0.0955  0.0600
 6549W        W24753   8.228   0.546   4.145  0.1109  0.0781  0.2259
 6550W        W24754   1.260   9.140   2.097  0.1450  0.1233 -0.1549
 6551W        W24755  17.582  11.522   3.463  0.3752 -0.1433 -0.0221
 6552W        W24756  13.385   0.886  11.467  0.0808  0.1907  0.3086
 6553W        W24757  14.938  14.723  13.545 -0.1319 -0.3163  0.1476
 6554W        W24758  13.263  12.632   9.669  0.1342 -0.0917  0.0197
 6555W        W24759   1.395  18.162  11.580 -0.1693 -0.1786  0.1440
 6556W        W24760   7.182  14.145   4.466 -0.2294 -0.3100  0.1144
 6557W        W24761   1.622  10.852   2.134  0.1021 -0.2003  0.0086
 6558W        W24762   7.554  15.627   4.968 -0.0068  0.0610  0.4344
 6559W        W24763   2.857   8.340  13.740 -0.4352  0.0537  0.0145
 6560W        W24764   9.948   7.087  13.819 -0.2857  0.0751  0.0265
 6561W        W24765   4.021  12.615  12.288 -0.2790  0.1421  0.2728
 6562W        W24766   5.935   2.136  13.819  0.0274 -0.0307 -0.0924
 6563W        W24767   2.775  10.219   3.162 -0.1790 -0.2013 -0.1683
 6564W        W24768   6.995   3.081  11.228  0.0398 -0.2327  0.2833
 6565W        W24769   8.937  16.405   0.210  0.0464  0.1404  0.3733
 6566W        W24770  15.798  12.971   0.480  0.0437 -0.2542  0.2784
 6567W        W24771  17.742   6.618   1.693 -0.1515  0.0857  0.0377
 6568W        W24772  10.293   4.175  10.750  0.0204 -0.2042  0.3552
 6569W        W24773   7.953  10.185   1.191 -0.1745 -0.1543 -0.0251
 6570W        W24774  17.832  18.837  13.127 -0.1413 -0.0438  0.1729
 6571W        W24775  14.050   7.743   4.864  0.1041 -0.1212 -0.2765
 6572W        W24776   1.125   3.373  14.837 -0.0279 -0.0075 -0.3339
 6573W        W24777   8.764  17.868  10.816  0.0985  0.3041 -0.4787
 6574W        W24778   2.606   5.349   5.532  0.3182  0.3247 -0.0585
 6575W        W24779  18.317  14.855   1.055  0.0018  0.4355 -0.2384
 6576W        W24780  10.211  16.087  12.163  0.1442 -0.3123  0.3190
 6577W        W24781  16.218   9.367   9.599 -0.2760 -0.0217 -0.2003
 6578W        W24782   5.451  13.357   3.937  0.0340  0.2681  0.2104
 6579W        W24783   6.185   2.009   3.713 -0.1067 -0.2964 -0.1672
 6580W        W24784  13.910  17.617   3.605 -0.0747  0.0867  0.0014
 6581W        W24785   5.420  13.843  11.312 -0.0659 -0.1304  0.3653
 6582W        W24786  15.645   5.323   0.283  0.2141  0.1405 -0.3645
 6583W        W24787   8.550   5.407  13.604 -0.0432 -0.0910 -0.4407
 6584W        W24788  10.982   2.972  13.518 -0.0142 -0.0447  0.2641
 6585W        W24789  16.526  12.466  14.438 -0.1415  0.0865  0.0464
 6586W        W24790   6.732  16.479   2.663 -0.0116  0.1274 -0.1275
 6587W        W24791   5.905  14.393   0.672 -0.2925  0.2566 -0.1768
 6588W        W24792   9.730   3.283  11.729 -0.1440  0.1064  0.0405
 6589W        W24793   8.978  11.031  13.165  0.2268 -0.0495  0.2147
 6590W        W24794   8.991   1.352   2.614  0.2577  0.1213  0.2914
 6591W        W24795   8.912  15.865  13.945 -0.0255 -0.1392  0.0297
 6592W        W24796  12.584  12.874   2.608  0.1197  0.0962 -0.0916
 6593W        W24797  15.806   9.620  13.784 -0.0358 -0.1311 -0.0543
 6594W        W24798   8.583  17.740   0.522 -0.3194  0.0200 -0.0189
 6595W        W24799   6.167  12.180   3.299  0.0646 -0.0927 -0.1810
 6596W        W24800   4.024  18.289  14.799  0.0238  0.1395  0.3047
 6597W        W24801   0.735   1.624  10.977  0.3203  0.3316 -0.1879
 6598W        W24802   9.085   5.217  12.306  0.0864  0.2193  0.0211
 6599W        W24803  10.226   4.933  14.589 -0.0089  0.1198  0.1383
 6600W        W24804   4.847   6.930   4.272  0.1993 -0.2227  0.0155
 6601W        W24805   8.546  12.241   2.340 -0.1491  0.1562  0.2216
 6602W        W24806   0.361  17.261  11.078 -0.0903  0.2847  0.0009
 6603W        W24807   3.849  13.723  11.101  0.1090  0.0963  0.2662
 6604W        W24808  13.628   1.288   1.795 -0.1189 -0.0268  0.0862
 6605W        W24809  12.333  12.080   0.630 -0.0323 -0.0397  0.0700
 6606W        W24810  12.557   6.397  14.911 -0.1953 -0.1726  0.0235
 6607W        W24811   0.049   6.340   0.857  0.2886  0.2330 -0.1064
 6608W        W24812  17.650   5.695  11.831  0.2936 -0.4166 -0.0467
 6609W        W24813  18.050  15.205   0.237  0.1221 -0.1760  0.1574
 6610W        W24814  16.481   8.559   3.691 -0.2138 -0.1971 -0.0134
 6611W        W24815  17.156  18.929  14.630 -0.0197  0.0673 -0.0579
 6612W        W24816   3.623   2.565   2.266 -0.0618 -0.1554  0.1081
 6613W        W24817  18.000  14.327   3.742  0.3005 -0.0007  0.0096
 6614W        W24818  17.658   9.735   2.567 -0.2116  0.0885  0.3876
 6615W        W24819  12.607   9.853   4.452 -0.2787  0.1624 -0.1551
 6616W        W24820   2.924   2.361   3.603 -0.0949 -0.3002 -0.1197
 6617W        W24821   3.704   2.318  13.792  0.0393  0.1551  0.1966
 6618W        W24822   1.553   9.974   2.314 -0.0153  0.0866 -0.0727
 6619W        W24823   4.207   0.404  12.052  0.1860  0.2619 -0.4416
 6620W        W24824  18.721  10.294  11.362  0.0494 -0.3566  0.0417
 6621W        W24825  11.571   2.624  14.042  0.0155  0.2972 -0.3111
 6622W        W24826   8.177   6.322   3.874 -0.0829  0.1421  0.1034
 6623W        W24827   1.121   1.991  12.868  0.1817 -0.2340 -0.0246
 6624W        W24828  15.710   4.462   2.831  0.4030  0.1246 -0.0423
 6625W        W24829   4.713   5.145   4.471  0.2306  0.2081  0.2199
 6626W        W24830   1.028   7.693  12.829 -0.3214 -0.2830 -0.0223
 6627W        W24831  12.047   0.737  14.143  0.1403 -0.2712  0.2994
 6628W        W24832  10.759   1.878   1.791  0.0308  0.1263 -0.3012
 6629W        W24833   0.817  15.342   4.074 -0.1680  0.0189 -0.3563
 6630W        W24834  18.852  11.034   4.045 -0.0308 -0.0639 -0.0782
 6631W        W24835  14.468   9.828   0.053  0.0006  0.3068 -0.1833
 6632W        W24836   6.888   3.320   0.044 -0.0754 -0.2901  0.1019
 6633W        W24837  18.009   0.635  13.480 -0.0456 -0.0457  0.0196
 6634W        W24838   8.993   9.957   4.701  0.1982 -0.1073  0.1152
 6635W        W24839   6.583  16.475  14.272 -0.3142 -0.1342 -0.1959
 6636W        W24840   1.233   0.193  10.869 -0.0057 -0.0145 -0.0052
 6637W        W24841  13.853   1.377  12.289 -0.0660 -0.2096 -0.1163
 6638W        W24842  13.701   2.287   2.579 -0.1356  0.2811  0.0218
 6639W        W24843  14.924  10.472   1.436 -0.4733  0.1463  0.0187
 6640W        W24844   5.888   8.285  15.007 -0.1573 -0.2093 -0.2806
 6641W        W24845  18.008   5.356   2.305 -0.0333 -0.2212  0.0905
 6642W        W24846   8.084   9.275  14.769  0.2341  0.0440 -0.2289
 6643W        W24847   4.559   6.139   1.330  0.2788  0.0452 -0.0708
 6644W        W24848  14.874  14.830   3.151  0.5653  0.0438  0.0843
 6645W        W24849   8.118  13.980   1.720  0.0504  0.0774  0.2197
 6646W        W24850  18.948  14.896   4.301 -0.0948  0.2165 -0.2628
 6647W        W24851  15.142   0.068  12.745 -0.1484  0.2080  0.2617
 6648W        W24852  12.065   3.993  13.771 -0.2813  0.3457  0.0262
 6649W        W24853   0.312   6.235  13.283 -0.1853 -0.0613  0.0124
 6650W        W24854  13.624  17.431  14.561  0.0014  0.1423 -0.1093
 6651W        W24855   3.129   1.729  13.426 -0.0102  0.3121  0.2123
 6652W        W24856  11.368   4.466   2.330 -0.2656  0.0863 -0.1508
 6653W        W24857  12.115  14.853   3.556  0.2242  0.0792 -0.1616
 6654W        W24858  14.739  14.208   2.911 -0.0229  0.2102  0.0063
 6655W        W24859   1.531   0.128   3.727  0.0062  0.0559  0.3122
 6656W        W24860  12.867   9.549   1.209  0.3083  0.1556 -0.0572
 6657W        W24861   2.509  18.626   4.574 -0.1526 -0.1980  0.2370
 6658W        W24862   5.790   5.595  12.430 -0.0048  0.3963  0.0081
 6659W        W24863  11.237   5.666   0.675  0.1820 -0.1401 -0.2718
 6660W        W24864   5.187   6.004  14.234  0.0366 -0.0981  0.2382
 6661W        W24865  17.044   9.057   9.938  0.0090  0.2468  0.2010
 6662W        W24866  10.942   8.249  13.111  0.0113  0.1149  0.0287
 6663W        W24867   8.960  13.193  11.133 -0.0506 -0.1283  0.0301
 6664W        W24868   4.583  13.467   0.066 -0.1539 -0.2582 -0.2707
 6665W        W24869  17.671  18.423  11.779  0.1654  0.0766  0.1173
 6666W        W24870  17.728  12.939  12.942 -0.1465  0.1441 -0.1192
 6667W        W24871   1.608   7.034  11.759  0.1652 -0.0181 -0.2752
 6668W        W24872   1.802  18.485  12.612  0.0154 -0.0670 -0.2403
 6669W        W24873  13.232  17.064  11.421 -0.2523  0.2272  0.0508
 6670W        W24874   7.083   2.919  13.001  0.0791 -0.1688  0.2482
 6671W        W24875  17.981   8.087   1.564  0.0173 -0.0248  0.0134
 6672W        W24876   7.967  17.891  12.101 -0.0978  0.4813 -0.2545
 6673W        W24877   7.689  10.075  10.028  0.3195 -0.1302 -0.2829
 6674W        W24878   4.080  10.260  13.787 -0.4451 -0.0515 -0.1593
 6675W        W24879  11.314   6.294   5.184  0.0542  0.0454  0.3327
 6676W        W24880   4.327   6.608  13.860  0.1243  0.0242  0.2077
 6677W        W24881  18.876   5.231   2.970 -0.2818 -0.1021 -0.1546
 6678W        W24882   4.908   2.265  13.658 -0.2720 -0.1248 -0.2165
 6679W        W24883   4.327   0.808  13.666 -0.1512 -0.1926 -0.3762
 6680W        W24884   9.743  14.244  10.819 -0.2037  0.2864  0.0742
 6681W        W24885   4.809   6.337   3.435 -0.1947 -0.2967 -0.0260
 6682W        W24886   6.846   6.497   3.856  0.1791 -0.2252 -0.0022
 6683W        W24887  15.447   9.977   0.458  0.0530  0.0709 -0.1715
 6684W        W24888   6.827   9.456  13.775 -0.0918  0.1543 -0.1807
 6685W        W24889  15.216   0.797   1.509  0.1954  0.0069 -0.0794
 6686W        W24890   7.557  18.797   4.551  0.0464 -0.1382  0.2122
 6687W        W24891  13.573   6.783  13.179  0.0566 -0.2077 -0.1533
 6688W        W24892  16.283   4.604   3.520  0.2186 -0.0293 -0.1898
 6689W        W24893  11.132  17.260   1.477  0.0561 -0.1758  0.5113
 6690W        W24894   0.633   4.986  12.115 -0.0446  0.0722  0.2419
 6691W        W24895   0.367  14.288  12.463  0.0129  0.2870 -0.0167
 6692W        W24896   2.011   3.493   1.784  0.3351 -0.0923 -0.0387
 6693W        W24897  15.132   5.470   4.483 -0.2289  0.1978 -0.1894
 6694W        W24898   6.562  16.906   2.379  0.0238 -0.0010 -0.3752
 6695W        W24899  10.094   8.017  13.887 -0.0532  0.0787 -0.2229
 6696W        W24900  12.868   4.420  10.703  0.0231  0.4163  0.2477
 6697W        W24901   2.276   1.377   0.193  0.1480  0.1956 -0.0217
 6698W        W24902   8.185   8.679  13.706 -0.0182  0.1292  0.4046
 6699W        W24903   3.156  14.002  12.302  0.3669 -0.3022  0.0498
 6700W        W24904  16.900   2.782   3.705  0.1054 -0.1429 -0.0139
 6701W        W24905  10.799   3.387  11.697  0.0071  0.4181  0.0159
 6702W        W24906   0.447   2.441  12.293  0.1311  0.1199 -0.0885
 6703W        W24907  10.777  13.917   2.223  0.1119  0.0942 -0.1736
 6704W        W24908  10.916   4.230  12.579  0.1419  0.0699  0.4336
 6705W        W24909  12.551  15.458  10.402  0.0841  0.0392 -0.0373
 6706W        W24910   4.363   7.596   3.120 -0.0509  0.2534 -0.0149
 6707W        W24911   1.601   6.588   9.961 -0.0824 -0.4435  0.0876
 6708W        W24912   7.775  11.520  11.775  0.3868  0.1433 -0.1240
 6709W        W24913   8.645  16.013  12.376 -0.0464 -0.0199 -0.1287
 6710W        W24914   1.060   6.582   4.640 -0.1957  0.0997  0.0251
 6711W        W24915   2.992   7.083  12.507  0.1602  0.0634  0.5861
 6712W        W24916   7.721  12.846   3.327  0.1968  0.1758 -0.1107
 6713W        W24917  17.986   1.389   3.329 -0.0886  0.0115  0.2384
 6714W        W24918   4.600  15.575   0.130  0.1691 -0.2020 -0.1169
 6715W        W24919   5.391   7.595   1.722  0.1925 -0.3593 -0.0556
 6716W        W24920  14.265  17.132   3.003 -0.0001 -0.1249 -0.1256
 6717W        W24921  13.290   3.171  13.907  0.2731  0.0738 -0.2055
 6718W        W24922   3.989  18.026  13.092 -0.0719 -0.0901  0.0616
 6719W        W24923   7.723  14.983  12.961  0.1982 -0.1010 -0.0774
 6720W        W24924  14.535   7.655   3.936  0.1584  0.0317  0.0802
 6721W        W24925   7.928   1.954  12.246  0.1860 -0.0595  0.0892
 6722W        W24926  11.149   8.983  10.457  0.1135  0.1014  0.1578
 6723W        W24927   1.098  16.614  11.323 -0.0884  0.0854  0.0084
 6724W        W24928  10.446   9.962  12.636  0.3174 -0.2036 -0.0265
 6725W        W24929  11.661   3.604   0.671 -0.2217  0.3299  0.1780
 6726W        W24930   1.757  17.112  13.791  0.1707  0.0468 -0.2404
 6727W        W24931   5.263   1.005  11.961 -0.0269 -0.1238 -0.1444
 6728W        W24932  11.302  17.639  13.016 -0.0840 -0.2648 -0.2383
 6729W        W24933   0.719  10.180   4.690  0.0516  0.2236 -0.2485
 6730W        W24934   1.670  15.100   0.543 -0.1145  0.1272  0.0569
 6731W        W24935   4.302   2.318  13.780  0.2176 -0.1407  0.0697
 6732W        W24936  10.774   1.152  10.545 -0.4925 -0.2700  0.1819
 6733W        W24937   4.072  17.616  12.740  0.1321 -0.0193 -0.0132
 6734W        W24938   6.334   9.223  12.027 -0.1349 -0.1506  0.1078
 6735W        W24939  10.090   3.306   0.637 -0.0329  0.1286  0.1666
 6736W        W24940  17.473  18.417  14.283 -0.0150  0.1831  0.3192
 6737W        W24941   4.257   4.456  13.319 -0.0352 -0.0151 -0.2374
 6738W        W24942   9.704   0.464  12.580 -0.1306 -0.2467  0.2134
 6739W        W24943  12.027   4.046   0.680  0.1607 -0.1436  0.2794
 6740W        W24944  10.641  13.917  12.292 -0.0273 -0.0993  0.2730
 6741W        W24945   6.309   1.351   1.962  0.0784 -0.0459 -0.1253
 6742W        W24946   6.331   7.702   1.833  0.0491  0.1551  0.0154
 6743W        W24947  14.516  18.108   2.454 -0.0511 -0.3078  0.1945
 6744W        W24948  18.556   5.276   4.411  0.2385  0.0645  0.1453
 6745W        W24949  15.097  12.361  11.628 -0.1876 -0.2582 -0.2099
 6746W        W24950   0.449  16.092   4.311 -0.1261  0.0282 -0.1403
 6747W        W24951  17.666   9.137  13.854  0.1486  0.4772  0.0997
 6748W        W24952   6.159  17.233  13.274  0.0177 -0.0985 -0.1006
 6749W        W24953   2.611   0.019  13.759  0.0451  0.0887 -0.0743
 6750W        W24954   8.869  13.135  11.674  0.1048 -0.1811  0.1288
 6751W        W24955   3.883   5.436   3.584  0.0043 -0.1427  0.0791
 6752W        W24956   0.188   5.876   1.643  0.0311  0.0722  0.1320
 6753W        W24957  15.588  13.926   0.441 -0.2489 -0.0472 -0.1537
 6754W        W24958   5.665   1.800  13.588  0.1225 -0.0142  0.1837
 6755W        W24959   0.994   6.253  14.398 -0.2237  0.2296 -0.0302
 6756W        W24960   6.793  18.555  11.933  0.2799 -0.0634  0.1227
 6757W        W24961  11.851  13.983   1.270  0.1998  0.0149  0.1197
 6758W        W24962   2.224   3.904   1.371  0.0371  0.0606 -0.1991
 6759W        W24963   3.257   5.048  14.691  0.0390  0.3021  0.0893
 6760W        W24964  17.122  14.077  14.824 -0.0966 -0.2650 -0.0596
 6761W        W24965   7.719  13.324   3.418 -0.1179 -0.0098  0.3811
 6762W        W24966  13.931   3.680  12.146 -0.1146  0.0863 -0.0060
 6763W        W24967   1.549  15.643  13.810  0.4587  0.2158  0.4008
 6764W        W24968  11.826  12.425   1.455  0.1017 -0.1286 -0.0044
 6765W        W24969   5.857  17.956   1.721  0.1007 -0.2533  0.4180
 6766W        W24970   2.055  12.627   0.408  0.2941 -0.3106  0.1611
 6767W        W24971  14.524  10.431   0.548 -0.0506  0.0044 -0.2260
 6768W        W24972  15.641   6.505   3.037  0.1050  0.1304  0.0054
 6769W        W24973  15.890   4.785   3.157  0.2197 -0.0169 -0.0807
 6770W        W24974  18.116  13.063  12.273  0.1136  0.0960 -0.2138
 6771W        W24975  10.714   5.390  13.913  0.0155 -0.0533  0.1183
 6772W        W24976   1.558   2.100  12.043 -0.1476  0.1668  0.1609
 6773W        W24977  17.953   7.768   1.184  0.2096 -0.0839 -0.3400
 6774W        W24978  14.858   8.488   2.195  0.0131  0.1744 -0.1369
 6775W        W24979   9.559  15.719  11.185  0.1103 -0.0634  0.0378
 6776W        W24980   5.831   3.919   1.808  0.1441 -0.2575  0.1353
 6777W        W24981  18.500  16.111  13.209  0.2894 -0.0203  0.1337
 6778W        W24982  17.951   1.685  10.347 -0.2158 -0.0345 -0.0455
 6779W        W24983   8.502   7.135   0.915 -0.0162  0.4304  0.3129
 6780W        W24984  14.111  11.812  13.563 -0.0212  0.0629 -0.0416
 6781W        W24985  15.123  15.153  11.865  0.1665 -0.0339 -0.0720
 6782W        W24986  16.787   1.922  11.123 -0.2043  0.0454  0.0768
 6783W        W24987   8.963  16.789  13.085 -0.1094 -0.3517 -0.2193
 6784W        W24988   7.735   6.001   2.547  0.0530 -0.0727 -0.1250
 6785W        W24989  11.579   0.909   4.116 -0.4359  0.2302  0.1596
 6786W        W24990   3.791   1.112   4.826  0.0834  0.3284 -0.2495
 6787W        W24991  17.123   6.172   2.197  0.0413  0.1426  0.1108
 6788W        W24992   6.438   1.449  13.905 -0.2521  0.2584 -0.0252
 6789W        W24993   0.816   1.758  11.821 -0.1391  0.0342 -0.0983
 6790W        W24994   9.964  17.787   3.465  0.1219 -0.1198  0.3154
 6791W        W24995   6.634   3.211  10.548  0.0834  0.2571 -0.1788
 6792W        W24996   5.791   0.894   0.828  0.1948 -0.1842  0.0820
 6793W        W24997  12.904  10.132  12.307  0.0996 -0.2080  0.0432
 6794W        W24998  10.576   3.792  12.527 -0.1933 -0.1294  0.3386
 6795W        W24999   1.107   6.197   3.369 -0.1100 -0.0033  0.0200
 6796W        W25000  11.889   8.327   2.159 -0.0375  0.0470  0.1256
 6797W        W25001   9.044  14.530  11.132  0.0622 -0.1309  0.0364
 6798W        W25002  17.284   9.506   1.061 -0.2194 -0.0683 -0.1001
 6799W        W25003  13.358   8.777   1.709 -0.1837  0.0941 -0.4276
 6800W        W25004  18.404   7.699   2.559  0.2444 -0.3579  0.1955
 6801W        W25005  14.338  13.575   0.974 -0.2662  0.0071 -0.0183
 6802W        W25006   2.423  12.692   0.827 -0.1667 -0.1441  0.1850
 6803W        W25007  14.154   8.567  13.885  0.1106 -0.0599 -0.0407
 6804W        W25008  12.341  11.138  11.965  0.2302 -0.0555  0.1775
 6805W        W25009   4.540  11.342   0.634  0.1513  0.4317 -0.0653
 6806W        W25010  14.568   9.673  11.770 -0.0639 -0.1374 -0.3369
 6807W        W25011  13.154   1.574  14.596 -0.0067 -0.0718  0.1101
 6808W        W25012  13.053   9.464  12.247  0.3027  0.0111 -0.1577
 6809W        W25013   0.043  17.090   4.763  0.1404  0.0472  0.1743
 6810W        W25014   8.189  12.823  12.420  0.0039  0.0425  0.1299
 6811W        W25015   1.436   9.923   2.805  0.1717 -0.0596  0.3607
 6812W        W25016  12.964   7.196  12.872  0.1370  0.2002  0.0183
 6813W        W25017   9.641  17.374  12.786  0.0478  0.3307 -0.0183
 6814W        W25018   9.866   0.699  13.942 -0.1560 -0.1643  0.1608
 6815W        W25019   5.305  15.540  14.578  0.2490 -0.0315  0.0469
 6816W        W25020  18.845   9.879  10.946  0.0722 -0.0275 -0.0029
 6817W        W25021   6.190   3.076   0.893 -0.0575 -0.0214 -0.1862
 6818W        W25022  15.276  17.971  14.728 -0.1078 -0.0284 -0.0552
 6819W        W25023  18.861   1.850  14.915 -0.0514 -0.1422  0.0649
 6820W        W25024  16.284   0.491   1.799  0.2882 -0.2233  0.1957
 6821W        W25025   7.888  11.666   3.348 -0.2944  0.1082 -0.0526
 6822W        W25026   1.041   3.054   2.676 -0.1495  0.1820  0.0843
 6823W        W25027  17.491   5.292   0.772 -0.3227 -0.0522  0.1903
 6824W        W25028  18.461   5.570   1.003 -0.0710  0.1028 -0.3399
 6825W        W25029   8.936   3.211   4.508 -0.2831 -0.1848  0.1816
 6826W        W25030  15.996  18.385  10.344 -0.0111 -0.0082 -0.0450
 6827W        W25031  18.803   5.967  13.050 -0.1466  0.1871  0.0549
 6828W        W25032  10.298   8.381   3.783 -0.3968  0.1468  0.1069
 6829W        W25033   3.722   8.627  13.844 -0.0385  0.0813 -0.2348
 6830W        W25034   0.422  14.591   4.253 -0.1589 -0.0885  0.0086
 6831W        W25035  17.352  11.732   4.767  0.0316 -0.1858 -0.1255
 6832W        W25036  13.977   2.722   2.779  0.1232 -0.3625  0.2309
 6833W        W25037  10.360   4.924   3.832 -0.2871 -0.1892  0.0241
 6834W        W25038  15.214   1.119   4.560 -0.3864 -0.0475 -0.0678
 6835W        W25039   3.265  12.085   0.304 -0.1852 -0.1249  0.1007
 6836W        W25040   9.641  17.480   3.129 -0.1069  0.0636  0.0257
 6837W        W25041   7.403  12.360   4.116 -0.2143 -0.4378  0.3142
 6838W        W25042  18.258   8.283   3.696 -0.3652  0.0159  0.2233
 6839W        W25043  12.946  15.786  12.516  0.0015 -0.0041  0.1486
 6840W        W25044   3.560   7.188  14.049 -0.3788  0.0693 -0.5146
 6841W        W25045  12.238  16.444  14.782  0.2511 -0.0970  0.0067
 6842W        W25046  18.007  14.063   2.760  0.0738  0.0592 -0.0947
 6843W        W25047   8.226   6.831   2.048 -0.2020 -0.0449  0.1944
 6844W        W25048  17.441  18.457  14.798  0.1684 -0.2739  0.2588
 6845W        W25049   6.888   5.152   4.452 -0.2076 -0.0468  0.4218
 6846W        W25050   9.493   1.554   0.939 -0.0487 -0.3793  0.0152
 6847W        W25051  10.364  17.706   3.823  0.0730  0.0418  0.0777
 6848W        W25052   8.554   3.553  11.363  0.0867  0.1139  0.1306
 6849W        W25053   8.088   0.598  13.644 -0.1601 -0.1013 -0.0324
 6850W        W25054   9.802   4.504  12.331  0.1899  0.2385  0.2472
 6851W        W25055   1.498   2.304   2.570 -0.0085 -0.0512 -0.1159
 6852W        W25056  13.063   5.703  12.434  0.2244 -0.4568  0.2734
 6853W        W25057   9.521   3.171   1.269 -0.5680 -0.2684 -0.0108
 6854W        W25058   4.321  16.716   1.307 -0.2903  0.1149 -0.1519
 6855W        W25059  15.865  12.310   3.251  0.1128 -0.0305 -0.1058
 6856W        W25060   4.244   1.283  12.253  0.0666  0.3384  0.0601
 6857W        W25061  16.359   4.334  11.858 -0.0597 -0.1976 -0.1617
 6858W        W25062  18.497  11.909   3.540 -0.0600 -0.1365  0.0738
 6859W        W25063   1.630   6.749  10.743  0.0578 -0.2401 -0.0375
 6860W        W25064   6.090   3.254  12.253 -0.2234 -0.0305 -0.1029
 6861W        W25065   4.555   2.572  11.494 -0.0584  0.1637  0.2455
 6862W        W25066  16.746   2.312  11.772  0.1756 -0.1051 -0.0515
 6863W        W25067   2.337  16.020   1.407 -0.0466  0.2618  0.2991
 6864W        W25068   8.308  12.678  11.050 -0.2541 -0.0353  0.2265
 6865W        W25069  13.673   7.188  12.303  0.1023 -0.2762 -0.0073
 6866W        W25070  18.581   2.218  12.754  0.1093  0.0259 -0.1678
 6867W        W25071   5.554   4.036   4.161 -0.0334 -0.4797 -0.0560
 6868W        W25072   7.503   3.546   2.310 -0.0323 -0.1910 -0.2985
 6869W        W25073   6.868  14.371   0.338 -0.0538 -0.3094 -0.3035
 6870W        W25074  10.911   9.433   0.281  0.2749  0.0019 -0.1765
 6871W        W25075  13.566  15.329  13.864  0.0899  0.1933  0.3535
 6872W        W25076   3.794  17.260   3.351  0.1526 -0.0984 -0.0475
 6873W        W25077   2.782   4.887   5.375 -0.3080 -0.0822 -0.1124
 6874W        W25078  12.892   2.064   2.134 -0.2693 -0.0955 -0.2864
 6875W        W25079  17.613   2.057  10.641  0.0878  0.0671 -0.0994
 6876W        W25080  11.174  11.704  11.456 -0.1979  0.0838  0.1894
 6877W        W25081  10.419   9.907  12.141  0.0590  0.2065 -0.2278
 6878W        W25082  14.514  15.541   3.395  0.2957 -0.1194 -0.2022
 6879W        W25083   9.265  13.583  14.387  0.2915  0.1874 -0.1686
 6880W        W25084   6.315   5.699   0.664  0.1461 -0.0871 -0.4299
 6881W        W25085  12.091   9.953   4.508  0.5037 -0.1432  0.1296
 6882W        W25086  13.607  14.778   1.476  0.0843 -0.2993 -0.0540
 6883W        W25087  10.923   5.133  13.554 -0.0179 -0.0223  0.0689
 6884W        W25088   6.488  15.743   1.005 -0.0423 -0.2486 -0.0108
 6885W        W25089  14.946   8.495   0.511  0.2161  0.0200  0.1540
 6886W        W25090  11.692   5.046   2.959 -0.0396 -0.1135  0.0569
 6887W        W25091   5.870   2.350  11.872 -0.1032 -0.2443  0.1428
 6888W        W25092   1.364  12.073   1.544 -0.0103  0.3732  0.0016
 6889W        W25093   3.719   3.946  12.187 -0.0195 -0.1039 -0.1863
 6890W        W25094  11.998   5.008   3.458 -0.3487  0.0889 -0.1089
 6891W        W25095  10.786   1.315  13.192  0.1154 -0.1335  0.1669
 6892W        W25096  16.214  17.045  10.600  0.1200 -0.0628 -0.0412
 6893W        W25097   4.094   6.872   4.962  0.0475 -0.0648  0.0950
 6894W        W25098   5.192  18.710  11.477 -0.0238  0.2514 -0.2605
 6895W        W25099  13.815   9.566  13.512 -0.3490 -0.0616  0.2972
 6896W        W25100   1.539   6.183  13.675  0.1062 -0.1636 -0.4159
 6897W        W25101   4.082   8.156  11.808 -0.3295 -0.1683 -0.0516
 6898W        W25102   7.299  12.597   0.019  0.1714  0.3173 -0.3639
 6899W        W25103  10.091  17.521  11.107  0.2994  0.3399 -0.1758
 6900W        W25104  10.702  15.831  14.837 -0.1588 -0.1469 -0.0022
 6901W        W25105  12.446   9.844  13.912 -0.0420 -0.1750  0.0228
 6902W        W25106   3.819   3.416   5.357  0.1219  0.2775 -0.0195
 6903W        W25107   1.191   0.575  11.601  0.1060 -0.1605 -0.2210
 6904W        W25108   6.317   6.982   3.029  0.1735 -0.1057 -0.2012
 6905W        W25109  10.651  13.089  11.390  0.1822 -0.1475  0.0425
 6906W        W25110   5.940   2.761   0.611  0.1785 -0.1068  0.0970
 6907W        W25111   7.375   2.296  11.491 -0.3793  0.0953 -0.1287
 6908W        W25112  11.464  17.403   1.917 -0.2244  0.1406 -0.0174
 6909W        W25113   6.710  14.045  13.580 -0.1219  0.0730 -0.0749
 6910W        W25114  18.205  17.038  12.395  0.1224 -0.1345  0.0793
 6911W        W25115  17.572   6.464   3.035  0.4471 -0.0582  0.1469
 6912W        W25116  15.134   4.246  12.339  0.2387  0.3497 -0.1532
 6913W        W25117   2.999   1.220  14.801  0.0364  0.0396 -0.3291
 6914W        W25118  11.432   0.183   2.720  0.1856  0.3287  0.1050
 6915W        W25119   3.410  18.417  12.733 -0.1470  0.1357 -0.1966
 6916W        W25120  17.198   3.732  14.097 -0.1387 -0.0777  0.1170
 6917W        W25121   0.679   5.265  12.554  0.1517  0.0081  0.2594
 6918W        W25122   5.174  16.037  14.550 -0.3770  0.2765  0.0960
 6919W        W25123   5.040  15.419   0.352 -0.1791 -0.2188 -0.1704
 6920W        W25124   0.542  10.778  12.666  0.2268 -0.1438 -0.0879
 6921W        W25125   7.253  13.801   4.121 -0.0369 -0.1012  0.2914
 6922W        W25126   3.222   9.009  11.487 -0.0675  0.2620  0.0400
 6923W        W25127  10.877   8.339  14.521  0.2752 -0.2049  0.2324
 6924W        W25128  14.267   3.136   5.222 -0.0095 -0.4071  0.3090
 6925W        W25129   8.329   2.946   3.254  0.3441 -0.0284  0.0286
 6926W        W25130  16.435  18.130  13.830  0.2397 -0.1589  0.1479
 6927W        W25131   7.881   9.027   0.514  0.1399  0.0029 -0.1627
 6928W        W25132  11.409   3.065   1.885  0.1990 -0.0148  0.1194
 6929W        W25133   5.422   8.659   2.123  0.0898  0.1544 -0.0355
 6930W        W25134  13.684  15.449   4.365 -0.1818 -0.2868  0.3863
 6931W        W25135   3.600  13.954   2.679  0.0183  0.2977  0.0811
 6932W        W25136   1.894  12.833  11.109  0.1496 -0.1578 -0.3335
 6933W        W25137  11.241   6.782   2.677 -0.0575 -0.3176 -0.0046
 6934W        W25138  18.163   4.735   4.166  0.0601  0.0780  0.2077
 6935W        W25139  16.336  12.647  13.005 -0.2285 -0.1615  0.1218
 6936W        W25140  15.426   7.077  10.864  0.0487 -0.0609 -0.0555
 6937W        W25141   5.408   8.104   3.729  0.2957  0.3806 -0.0466
 6938W        W25142   9.635   8.856  11.373  0.1723  0.4455  0.2821
 6939W        W25143   0.065   1.267   1.803 -0.0794 -0.0753  0.0255
 6940W        W25144  11.863   7.407  14.459  0.1157  0.1405 -0.1509
 6941W        W25145   2.129  16.648  10.077  0.2893  0.0825  0.1749
 6942W        W25146   4.194  18.271   3.497  0.0192 -0.2463 -0.1529
 6943W        W25147   5.252   7.656   2.278 -0.0611  0.0420  0.3317
 6944W        W25148   9.227  10.852   0.826 -0.0896  0.0366  0.0459
 6945W        W25149   8.737   0.944  10.608 -0.1514  0.3323  0.1554
 6946W        W25150   1.276   9.348   4.702  0.3217  0.2956  0.3077
 6947W        W25151   1.468  10.131  13.894  0.2330  0.0120 -0.1833
 6948W        W25152  14.435  10.524   1.377 -0.3879 -0.0040  0.0252
 6949W        W25153  13.431   4.543  14.932 -0.1153  0.2286  0.0480
 6950W        W25154  11.978   7.164  12.749  0.3334 -0.0157 -0.0927
 6951W        W25155  15.746  10.102  10.972 -0.1159  0.2067  0.1212
 6952W        W25156   3.417  15.696  14.852 -0.0040  0.4306 -0.0278
 6953W        W25157  16.336   6.274  12.299  0.0074  0.2335  0.1893
 6954W        W25158   0.002   3.576   0.968  0.0985 -0.1861  0.2512
 6955W        W25159   5.234   6.147  10.033 -0.2924 -0.0818  0.1362
 6956W        W25160  16.599   4.985   0.252  0.0026  0.1104 -0.2540
 6957W        W25161  11.562  12.569  12.957 -0.1527  0.1059 -0.1360
 6958W        W25162  15.691   7.272  14.035  0.2294  0.4352 -0.1341
 6959W        W25163  10.494  16.761  14.151 -0.1188  0.0693  0.0321
 6960W        W25164   4.560   4.101  10.916 -0.2994 -0.1161 -0.2892
 6961W        W25165   7.221   2.443  14.846 -0.3604 -0.1111 -0.4582
 6962W        W25166   1.790   8.321   4.155  0.4467 -0.3522  0.0935
 6963W        W25167   2.611  10.524   1.419 -0.2362 -0.1810  0.1168
 6964W        W25168  13.800  16.393  12.417 -0.1895  0.0687 -0.4528
 6965W        W25169   6.864   5.023   3.124 -0.0521  0.0297  0.2804
 6966W        W25170  11.589   4.472  12.047 -0.1746 -0.0089 -0.1407
 6967W        W25171  16.901  13.178  13.045  0.0533 -0.0041  0.2066
 6968W        W25172   4.139  13.085  14.951  0.0387  0.3700 -0.1423
 6969W        W25173  14.662   4.546  10.701  0.4192  0.0089  0.0409
 6970W        W25174  10.905  15.135  14.380 -0.0007  0.5364  0.3351
 6971W        W25175  12.406   8.372  10.702  0.3963  0.0170 -0.1265
 6972W        W25176   2.429   9.002   4.099  0.5709 -0.0853  0.0170
 6973W        W25177   4.590   0.953  11.224 -0.0018 -0.1602  0.0168
 6974W        W25178  10.378   5.977   0.481 -0.0824  0.2387  0.0159
 6975W        W25179  17.984   2.964   2.849  0.0806 -0.0848 -0.1831
 6976W        W25180   7.278  10.796   0.814  0.4337 -0.0516 -0.2199
 6977W        W25181   5.221   0.505   3.655  0.1271 -0.0208  0.0891
 6978W        W25182  15.386  15.243  14.956 -0.1887  0.4178  0.0117
 6979W        W25183  14.456  10.539   9.601 -0.1124 -0.1528 -0.0207
 6980W        W25184  15.453  15.346  11.516  0.0857 -0.2499 -0.2434
 6981W        W25185  14.410  13.824   2.528  0.3810  0.1462 -0.1504
 6982W        W25186   8.783   0.423  11.424  0.0815  0.0612 -0.0457
 6983W        W25187   4.435   2.437   0.756 -0.0389 -0.1793  0.0961
 6984W        W25188   9.811   5.804  12.147 -0.1312 -0.1688  0.0426
 6985W        W25189  15.059   8.719   4.312  0.1004 -0.2120  0.1650
 6986W        W25190   5.653   2.603   4.238 -0.0364  0.1945  0.0094
 6987W        W25191  11.351  10.106   5.817 -0.2817  0.1783  0.0683
 6988W        W25192  17.318   9.281   3.914  0.0886  0.1204 -0.0904
 6989W        W25193   2.214  13.841  12.214  0.3126  0.2545 -0.0772
 6990W        W25194   9.541  13.975   0.161 -0.1932 -0.0680 -0.0906
 6991W        W25195  13.723   6.275  14.044  0.1641 -0.1064 -0.0525
 6992W        W25196   4.350  17.696   4.164 -0.1101 -0.3632  0.1726
 6993W        W25197   4.670  10.347   4.507  0.1215  0.0558  0.0719
 6994W        W25198   1.950   3.515   3.867 -0.0248  0.0586  0.1099
 6995W        W25199   8.176   5.512   1.619 -0.0145  0.0194 -0.1409
 6996W        W25200   8.677   5.566   5.017  0.4259  0.3756 -0.0367
 6997W        W25201  14.106   0.020   0.392 -0.1034  0.0070  0.1352
 6998W        W25202  13.971  12.562   0.411  0.2597 -0.0858  0.0129
 6999W        W25203   2.669   4.997  10.799 -0.1208  0.0088 -0.2195
 7000W        W25204   2.316   2.143   2.103  0.2106  0.3980 -0.1741
 7001W        W25205  14.931  14.277   0.866  0.1394  0.0178  0.0624
 7002W        W25206  13.603  13.184   3.370 -0.0128  0.2298  0.2361
 7003W        W25207   9.877  16.684   0.639 -0.0527  0.1301 -0.2384
 7004W        W25208   0.110   1.589   0.916  0.1251  0.3138  0.3625
 7005W        W25209  16.005  10.341  14.626 -0.0925 -0.0305 -0.0248
 7006W        W25210   0.047   3.612  10.648  0.1807 -0.4052  0.1311
 7007W        W25211   7.526   8.272  14.409  0.0459 -0.0558 -0.3663
 7008W        W25212   8.138   1.171  12.831 -0.1624 -0.2245  0.3435
 7009W        W25213  14.998   1.870   1.748 -0.2957  0.1385  0.0985
 7010W        W25214  18.001   0.898  11.450  0.1809  0.2295  0.0435
 7011W        W25215  16.302  15.047   0.084  0.1864  0.2240 -0.0760
 7012W        W25216  10.560  11.032   1.156 -0.1232 -0.0587 -0.1091
 7013W        W25217   2.472   6.681  14.303  0.1263 -0.0189 -0.3086
 7014W        W25218  12.766  14.051  14.592 -0.0162 -0.3860 -0.0654
 7015W        W25219   8.548   9.083   9.903 -0.0939  0.4208  0.1190
 7016W        W25220   4.044   7.962  14.374 -0.0557  0.1570  0.2408
 7017W        W25221   5.185  16.675  12.733  0.0319  0.0595  0.2907
 7018W        W25222  18.326   0.541  12.213  0.0669 -0.6708  0.1063
 7019W        W25223   5.390  18.659   0.844 -0.0718  0.0054  0.0294
 7020W        W25224   6.771  11.468   0.056  0.0382  0.2977  0.0692
 7021W        W25225   5.531   2.924  12.726 -0.0485 -0.2135 -0.2561
 7022W        W25226  16.968   1.291   3.002  0.0071 -0.1307  0.0108
 7023W        W25227  10.829  17.667  13.216  0.1480  0.0634 -0.4183
 7024W        W25228   3.487   7.980   3.573 -0.1021 -0.0785  0.1971
 7025W        W25229  12.610  11.229   3.384  0.0842  0.0580  0.0489
 7026W        W25230  15.837  14.489   2.826 -0.1229  0.0209 -0.0560
 7027W        W25231  11.563   9.943   3.555 -0.3550 -0.1328 -0.3526
 7028W        W25232   5.926   7.490  10.728 -0.3005 -0.1783  0.0512
 7029W        W25233   6.199   5.121  13.542  0.0534 -0.0429 -0.0660
 7030W        W25234  14.682  15.197   2.015  0.0571  0.1868  0.3039
 7031W        W25235  12.621   6.537   9.666 -0.1148  0.1240  0.2270
 7032W        W25236  14.125   7.375  11.110  0.0377 -0.1829 -0.2335
 7033W        W25237  12.436   5.153   0.849  0.0541 -0.1617 -0.1320
 7034W        W25238   6.602   8.640   3.518  0.0284 -0.0963  0.1066
 7035W        W25239  16.799   5.558   1.559  0.0870 -0.2329 -0.2400
 7036W        W25240  15.464   7.328   3.947 -0.0858 -0.1876  0.0574
 7037W        W25241  12.391  14.887  14.563 -0.1160  0.0667 -0.0569
 7038W        W25242  12.378  16.520   3.199 -0.1090 -0.2933 -0.2681
 7039W        W25243   0.356  14.477  14.262 -0.3314 -0.1042  0.0457
 7040W        W25244  11.844  18.266   2.677  0.0647 -0.1019 -0.1252
 7041W        W25245  11.047   1.509  14.054  0.0308 -0.2371 -0.2480
 7042W        W25246  13.953   4.384   5.096  0.1857  0.2637  0.4283
 7043W        W25247  14.557   1.427  13.799  0.3173  0.0541  0.0214
 7044W        W25248  10.030  11.400  14.760 -0.2604 -0.0544  0.0489
 7045W        W25249   5.847   3.366  12.714  0.0486  0.1562 -0.1361
 7046W        W25250   9.079   9.407  12.624  0.2226  0.0741  0.1441
 7047W        W25251  17.699  12.527   9.648  0.3868 -0.0688  0.0401
 7048W        W25252  14.142   8.440   1.633  0.3699 -0.0496  0.0422
 7049W        W25253   2.055  13.492  11.363  0.0578 -0.4731 -0.0884
 7050W        W25254   5.931   4.966  13.936  0.0320 -0.1407  0.0257
 7051W        W25255  18.937  11.256  11.840 -0.0359  0.3569 -0.5340
 7052W        W25256  10.828   7.715   0.193  0.1918 -0.1144  0.0128
 7053W        W25257   5.758   0.347  12.281 -0.4566  0.1300  0.3795
 7054W        W25258   4.659  14.120   0.702 -0.3861  0.0759 -0.0076
 7055W        W25259   1.439  18.352   0.464  0.0874  0.2487  0.6001
 7056W        W25260  14.761   1.786   1.296 -0.0635  0.0228  0.3850
 7057W        W25261  14.136  11.265   3.700 -0.1684 -0.1609  0.1087
 7058W        W25262   6.619  12.017   0.207 -0.4619  0.0224  0.1978
 7059W        W25263   0.958  13.048   2.809 -0.1316  0.1250  0.1510
 7060W        W25264   6.173  17.101  14.926 -0.1452  0.0640 -0.0269
 7061W        W25265  11.514   7.835   0.732 -0.0851  0.1224  0.2685
 7062W        W25266  11.016  18.922  11.847 -0.3100 -0.0977  0.2617
 7063W        W25267  12.100   2.281   2.032  0.0698 -0.2632  0.0126
 7064W        W25268  16.793  13.631  13.765 -0.0075 -0.0669 -0.1185
 7065W        W25269  15.323  14.003  13.486  0.1813 -0.0505 -0.0440
 7066W        W25270   0.651   2.157  13.012  0.2929 -0.0365 -0.2061
 7067W        W25271  10.746  15.401  13.370 -0.1082  0.1734 -0.1160
 7068W        W25272  15.271  10.171   2.223 -0.0293 -0.1149 -0.0191
 7069W        W25273  16.454  11.901  11.854  0.1800  0.0083 -0.1444
 7070W        W25274   7.547  12.599  11.481  0.0655  0.1113  0.1510
 7071W        W25275  16.606  17.051   3.646 -0.0552 -0.2754  0.0122
 7072W        W25276  12.201   0.873  12.232 -0.0550 -0.1908 -0.0684
 7073W        W25277   4.721   6.060  14.093  0.0468  0.1545 -0.1125
 7074W        W25278  11.351   8.713  12.517 -0.3042 -0.3604 -0.1616
 7075W        W25279  16.959  11.348  14.570 -0.2511 -0.0121 -0.0391
 7076W        W25280  18.195  17.545  12.517 -0.4366  0.2557 -0.0268
 7077W        W25281   9.204  15.522  11.506  0.2222 -0.3622 -0.3081
 7078W        W25282  12.218  18.297  11.510 -0.1426 -0.2098 -0.0890
 7079W        W25283   7.364  17.309   2.187  0.2081  0.2323  0.1339
 7080W        W25284  13.569  17.693   0.346  0.0833  0.2151 -0.0612
 7081W        W25285  11.415  17.952   4.557 -0.1804 -0.2061  0.1549
 7082W        W25286   1.557  12.350  13.025 -0.0236 -0.1246 -0.1266
 7083W        W25287   5.383  10.289  11.094 -0.0161 -0.0900  0.1188
 7084W        W25288   4.686   2.420   2.611 -0.2407  0.2136  0.1181
 7085W        W25289  12.245  14.702  13.282  0.0754  0.2594  0.2108
 7086W        W25290  12.107   7.149   9.755 -0.1583  0.1307  0.2200
 7087W        W25291   0.086  10.520  12.648 -0.2145 -0.1560  0.1723
 7088W        W25292  12.027   8.090  10.508  0.1462 -0.0784  0.0575
 7089W        W25293  10.425   8.438  10.614  0.5742 -0.2181  0.2739
 7090W        W25294   6.177  16.253  14.548  0.1835 -0.2717 -0.0673
 7091W        W25295  12.952   5.574  12.943 -0.3364 -0.1668  0.0645
 7092W        W25296  17.935   4.326   9.527  0.1264  0.0307  0.2812
 7093W        W25297  11.611  18.886   2.214  0.1607  0.3621  0.0269
 7094W        W25298  14.862  11.421  13.160  0.1367  0.0099  0.0058
 7095W        W25299  17.014   2.411  11.349 -0.2464 -0.0620 -0.1520
 7096W        W25300  13.806   6.072   9.985 -0.1917 -0.3102 -0.2759
 7097W        W25301  11.458  17.337  11.304 -0.1305  0.3992 -0.1392
 7098W        W25302  11.612  10.530  14.061  0.0075  0.1731 -0.0892
 7099W        W25303  15.705   2.932  13.557 -0.1269  0.1859 -0.0534
 7100W        W25304  10.502  11.405  14.539 -0.4051 -0.4405 -0.0702
 7101W        W25305  10.498  12.275   3.265 -0.0898  0.0278 -0.2942
 7102W        W25306   9.633  11.085  14.079  0.2475  0.2699 -0.1763
 7103W        W25307  10.958   9.909  12.736 -0.4170  0.0736  0.1014
 7104W        W25308   6.713   7.086   0.354  0.1088 -0.1784  0.1392
 7105W        W25309   3.588  17.140   2.458  0.2599  0.2204  0.0330
 7106W        W25310   5.885   9.701   0.141 -0.0453 -0.1605  0.1008
 7107W        W25311   3.212  13.145  11.761 -0.0825 -0.1434 -0.0646
 7108W        W25312   9.319   6.107   2.118 -0.2308  0.0572  0.2561
 7109W        W25313   0.429  10.736  11.745  0.0768  0.0821  0.0531
 7110W        W25314  12.253   2.891   1.173 -0.1749  0.0717 -0.0303
 7111W        W25315  15.508  16.360  13.779  0.0845 -0.1817  0.2140
 7112W        W25316   2.175   2.482  10.509  0.0367 -0.2402 -0.3594
 7113W        W25317   9.154  13.457   4.041 -0.1439 -0.2670  0.0318
 7114W        W25318   6.934  10.902  14.929  0.0845 -0.3328  0.0541
 7115W        W25319  16.600   0.831  14.645  0.3212 -0.2305  0.2131
 7116W        W25320  13.496  18.212  12.777  0.0044 -0.2488  0.1176
 7117W        W25321   9.058   5.032   4.377  0.1840 -0.0521  0.3028
 7118W        W25322   9.528  12.889  12.191  0.5084  0.3959  0.0936
 7119W        W25323  12.300   4.305  12.863  0.0283  0.2594 -0.0511
 7120W        W25324  17.021   4.807  10.650  0.0887 -0.0193 -0.1085
 7121W        W25325  16.879  18.342   4.117  0.2443  0.0740 -0.1680
 7122W        W25326   6.096   0.959   3.759 -0.1840  0.1792 -0.4776
 7123W        W25327   8.124  14.068   0.683  0.1291 -0.0809  0.3817
 7124W        W25328  15.583  11.496   2.888 -0.0032 -0.1859  0.1625
 7125W        W25329  16.073   9.953   2.403 -0.1829 -0.0570 -0.0486
 7126W        W25330  16.437   1.079  10.891  0.2361  0.1645  0.0827
 7127W        W25331   7.138   5.387  12.597  0.2712 -0.3443 -0.1083
 7128W        W25332  12.295   7.163   2.002  0.2313  0.0000 -0.0675
 7129W        W25333   1.262   0.547   0.346  0.0159  0.1321 -0.1857
 7130W        W25334  13.202   3.067   1.364 -0.2179 -0.0318 -0.1024
 7131W        W25335   3.098   1.153  11.352 -0.0341 -0.1719  0.2477
 7132W        W25336   4.915  12.952   1.613  0.2154  0.0961 -0.2294
 7133W        W25337   0.278   6.019  12.750 -0.0730  0.1933 -0.2076
 7134W        W25338  16.895  10.540   1.616 -0.0997 -0.0642  0.1060
 7135W        W25339   2.635   8.703  10.115  0.1408 -0.0036  0.2585
 7136W        W25340  12.137  13.253  12.024 -0.0389 -0.1117 -0.0027
 7137W        W25341   4.142   5.755   3.824 -0.2203  0.3515  0.2458
 7138W        W25342  11.745  11.000  12.925  0.0430 -0.5077 -0.0286
 7139W        W25343  12.812   6.341  10.266  0.2675  0.1190  0.2729
 7140W        W25344   3.693  15.876  13.488 -0.0724 -0.1718  0.0010
 7141W        W25345   3.905  11.737  12.761  0.0534 -0.0516  0.2106
 7142W        W25346   1.589  16.746   1.446 -0.1501  0.0227 -0.2625
 7143W        W25347  14.122  14.596   2.304 -0.3369  0.0217  0.0046
 7144W        W25348  16.991   5.693   2.553 -0.1688  0.0359 -0.0312
 7145W        W25349   6.019  10.438   0.851 -0.0238  0.2890  0.2776
 7146W        W25350  16.679   9.031   3.750  0.0073 -0.0065 -0.1786
 7147W        W25351   6.499   1.866  12.571  0.0218 -0.1203 -0.0301
 7148W        W25352   8.208  12.265   1.919 -0.1454 -0.0986  0.1875
 7149W        W25353   4.536   0.004   0.074  0.0002  0.1294  0.3737
 7150W        W25354   1.705   0.284  13.441  0.3482  0.1500  0.1584
 7151W        W25355  10.529   1.656  14.146 -0.0512 -0.1895  0.4563
 7152W        W25356   3.920  16.756   4.083 -0.2057  0.2099  0.0282
 7153W        W25357   6.849   1.624   5.615 -0.0705 -0.0377  0.0142
 7154W        W25358  15.658  16.448  13.135 -0.0422 -0.2228 -0.0404
 7155W        W25359  13.584  12.811   0.735  0.0852  0.0214 -0.1468
 7156W        W25360   8.844  15.810   3.631  0.1334 -0.1367 -0.1067
 7157W        W25361  13.073   7.564  13.616 -0.3288 -0.5025  0.3338
 7158W        W25362   9.028   5.155   3.163  0.1572  0.0497  0.4323
 7159W        W25363   7.341  15.769  12.660 -0.4919  0.1926  0.3628
 7160W        W25364  17.533   0.408   3.699  0.3046  0.0958  0.0288
 7161W        W25365  13.385   5.340   2.454  0.1164  0.0709  0.1708
 7162W        W25366  10.910  13.075  10.131  0.3142  0.4322  0.1361
 7163W        W25367   3.072  12.649  14.804  0.3222  0.0070 -0.1638
 7164W        W25368  15.382  14.344   1.166  0.0432 -0.2847 -0.0560
 7165W        W25369  13.413   8.839  14.568  0.1098 -0.3328  0.0317
 7166W        W25370   1.458  14.538   4.051  0.0852 -0.1390  0.3661
 7167W        W25371  15.700   1.977  10.901 -0.0926  0.1552  0.1983
 7168W        W25372   1.101  16.645  12.344  0.1754  0.1794  0.1202
 7169W        W25373  16.567  12.273  11.484  0.1884  0.0512 -0.2212
 7170W        W25374   5.156   4.804  12.886 -0.1543 -0.1275  0.0469
 7171W        W25375   4.197   0.122   1.446 -0.0654  0.1034 -0.1410
 7172W        W25376   8.579  15.548   0.040 -0.0648 -0.3014  0.5799
 7173W        W25377  16.061   6.113  14.120 -0.3041  0.1939 -0.0096
 7174W        W25378  18.334   7.313   2.233  0.1418 -0.0748  0.1247
 7175W        W25379  14.082  14.354  12.254 -0.2705 -0.2299  0.2759
 7176W        W25380   0.375   8.234   5.289  0.0357  0.1333  0.1162
 7177W        W25381   1.193   3.988   3.066 -0.3284  0.0878  0.1223
 7178W        W25382   3.970  14.657  13.201  0.1660  0.0377  0.1508
 7179W        W25383  15.942  15.332  11.581  0.1198 -0.0037 -0.1774
 7180W        W25384  11.174   1.334  11.830  0.0575 -0.2222  0.3856
 7181W        W25385  12.689   2.621  14.141  0.2758 -0.0668  0.0997
 7182W        W25386  15.006  12.376   4.133 -0.0182  0.2548  0.4286
 7183W        W25387   0.597   7.809  11.692  0.1032  0.2199  0.1914
 7184W        W25388   4.899   5.628  13.838  0.2137 -0.0555 -0.2007
 7185W        W25389  18.394   9.116  13.158  0.0557  0.2366  0.4607
 7186W        W25390   7.291   7.049   2.347 -0.1727 -0.0611 -0.2272
 7187W        W25391  14.611  13.541  14.160  0.0096  0.3106 -0.0681
 7188W        W25392  12.228   1.323   3.193 -0.1369 -0.2113  0.1427
 7189W        W25393   0.469   3.920   4.272  0.1042 -0.3617  0.0224
 7190W        W25394   5.625  10.844   3.270 -0.0364 -0.1505 -0.3211
 7191W        W25395   7.097  17.686   1.896  0.1224 -0.0941 -0.4320
 7192W        W25396  17.442  10.455   0.625  0.2164  0.0401  0.0004
 7193W        W25397  15.069   5.952   4.747  0.4177  0.3760 -0.1037
 7194W        W25398  10.978   8.883   0.302 -0.1758  0.3323  0.1543
 7195W        W25399  16.181   6.233   4.255 -0.6320 -0.0902  0.3926
 7196W        W25400   5.318  16.610   3.876 -0.2295 -0.3206 -0.0034
 7197W        W25401   2.267  14.821   4.335 -0.1037 -0.2465 -0.2828
 7198W        W25402  10.946  12.550   0.175  0.0188 -0.0746 -0.0725
 7199W        W25403   6.978   8.099  10.799  0.4433  0.0938  0.1219
 7200W        W25404   6.102   6.463  12.274  0.0168  0.0594 -0.2730
 7201W        W25405   7.130  11.990  13.929 -0.1180  0.0180 -0.0626
 7202W        W25406  14.441  16.081  12.143  0.2039  0.0648  0.1020
 7203W        W25407   5.791  16.031   4.902  0.2088 -0.0164 -0.0527
 7204W        W25408   2.023  16.570   1.269  0.1630 -0.0781 -0.1017
 7205W        W25409  10.909  15.020  11.898  0.3732  0.2494  0.1842
 7206W        W25410  13.415  16.777  13.164 -0.4299  0.2310 -0.0074
 7207W        W25411  14.102   5.700  13.048 -0.2147  0.3234 -0.0416
 7208W        W25412   9.395  14.769  10.928 -0.1746  0.0273  0.0770
 7209W        W25413   9.456  16.552  10.785 -0.2130 -0.1101  0.2082
 7210W        W25414   9.008   1.832   2.894  0.4225  0.0211 -0.0371
 7211W        W25415   4.722   0.598   3.788 -0.0987  0.1202 -0.2995
 7212W        W25416   4.351  12.984  13.545 -0.2397  0.1400  0.2867
 7213W        W25417   9.995  18.028   2.688 -0.1749  0.2642  0.1049
 7214W        W25418  12.696  16.650   3.550  0.0160 -0.0511 -0.0806
 7215W        W25419  12.548  10.752  14.958 -0.0080 -0.1707 -0.1516
 7216W        W25420   1.016   0.380  15.006  0.0285  0.1155 -0.2026
 7217W        W25421   0.220   1.957   3.900 -0.1996  0.4003 -0.2784
 7218W        W25422   2.808  11.285  14.274  0.1077  0.2118  0.0991
 7219W        W25423  15.545   5.735  11.615  0.0993 -0.1130  0.0657
 7220W        W25424   0.731   3.385   3.909  0.2051 -0.1127 -0.0210
 7221W        W25425   1.302  17.043  10.612  0.1289 -0.0103 -0.0658
 7222W        W25426  12.927   1.755   3.417 -0.2588  0.0489 -0.0657
 7223W        W25427  11.141  15.998   2.163 -0.3665 -0.1608  0.2258
 7224W        W25428  18.021   5.581   3.552  0.0978  0.0633  0.3326
 7225W        W25429  18.613  17.283  12.605 -0.1102 -0.0207  0.0410
 7226W        W25430   2.163  16.221   0.186 -0.0860  0.2591 -0.2224
 7227W        W25431   6.425   6.815   4.062 -0.0366 -0.0506  0.2655
 7228W        W25432   4.926  17.036  12.360 -0.1694 -0.1027  0.1397
 7229W        W25433  14.976  16.586   9.288 -0.2853  0.2640  0.2146
 7230W        W25434  15.072   2.997   3.434  0.4321  0.1214  0.0227
 7231W        W25435  10.253   4.864   0.059  0.0439  0.2152 -0.0526
 7232W        W25436   3.931   7.666  12.722 -0.3317  0.1205  0.1474
 7233W        W25437   9.775   3.529  13.141 -0.4942  0.3170  0.0893
 7234W        W25438   9.536   2.677  12.229 -0.2619 -0.2248  0.2670
 7235W        W25439   6.171  10.250   3.797  0.0347  0.1726 -0.1059
 7236W        W25440  15.208   7.410   3.391 -0.1705 -0.0280 -0.4872
 7237W        W25441   2.387  18.762   0.355  0.4869 -0.1385 -0.1362
 7238W        W25442  11.162   7.422  13.335  0.2005  0.3154 -0.0803
 7239W        W25443  14.906  15.921   1.657  0.0490  0.0561  0.4403
 7240W        W25444   9.163   5.847  12.001  0.1562  0.2333 -0.1309
 7241W        W25445   3.275  15.817  14.356  0.1559 -0.1853 -0.3166
 7242W        W25446   3.969   8.205   1.339  0.2422 -0.1156  0.2956
 7243W        W25447   3.015   2.795  11.260  0.2447 -0.0272 -0.0059
 7244W        W25448   8.131   5.618  13.826 -0.4713  0.2416 -0.1156
 7245W        W25449  17.153  14.239   3.937 -0.2482 -0.2020  0.1801
 7246W        W25450   4.399  10.616   3.594  0.1719  0.1617  0.1258
 7247W        W25451  12.929   5.034  13.022  0.0310  0.1193 -0.1272
 7248W        W25452  17.136   2.879   0.431  0.1740  0.2156 -0.2669
 7249W        W25453   6.522   7.931   2.200  0.1904  0.3895 -0.2658
 7250W        W25454   7.681  15.299  12.533 -0.1863 -0.1085 -0.1636
 7251W        W25455   8.117  15.133   1.636  0.1715 -0.2150 -0.0799
 7252W        W25456   6.647   0.337   4.839 -0.0606  0.1022  0.1796
 7253W        W25457   6.410  10.728  11.865 -0.0749  0.0884  0.0244
 7254W        W25458  15.674  12.501   2.475 -0.3097 -0.1786 -0.5230
 7255W        W25459  17.233   3.033   2.301  0.0680 -0.0855  0.3016
 7256W        W25460   7.825  12.339  13.392 -0.0722  0.1824  0.2084
 7257W        W25461  11.050  10.317  11.100  0.2631  0.0759 -0.0031
 7258W        W25462   2.723  10.785   3.922  0.0428  0.4225 -0.1054
 7259W        W25463   1.118   3.388  12.703 -0.2546  0.0159  0.1485
 7260W        W25464  13.526  10.929  13.981 -0.1375 -0.1672 -0.0411
 7261W        W25465  16.021   4.001   0.233 -0.2355 -0.2632  0.0074
 7262W        W25466  11.172  13.830   4.989  0.2123 -0.1669  0.0707
 7263W        W25467   6.747  17.289  10.233 -0.1814 -0.0795  0.0342
 7264W        W25468   8.000  13.575  11.386  0.1228 -0.0753  0.1196
 7265W        W25469   3.425   8.856  14.311 -0.1379  0.1184  0.2179
 7266W        W25470  13.784  12.717  12.356  0.0541  0.1658 -0.1493
 7267W        W25471   5.184  16.913   1.477 -0.1393 -0.3157  0.2990
 7268W        W25472  14.051   9.219  10.592 -0.1581 -0.0557 -0.1471
 7269W        W25473   8.809  12.550   4.185 -0.1466 -0.1766  0.0297
 7270W        W25474   8.033   4.047  13.618  0.0540  0.2130 -0.1739
 7271W        W25475  16.854  17.481   2.865  0.3108  0.2054 -0.1825
 7272W        W25476   3.063   8.746  12.397  0.3877 -0.0252 -0.1414
 7273W        W25477   5.464  15.216  12.310 -0.1380  0.1292 -0.3199
 7274W        W25478   9.571  16.458  13.958 -0.1076 -0.2213  0.1651
 7275W        W25479   5.600  13.401  10.973  0.0749 -0.0925  0.0673
 7276W        W25480  17.832  18.457  10.992  0.2294 -0.0170 -0.1523
 7277W        W25481  10.358   3.617  10.794  0.2507  0.0435 -0.1023
 7278W        W25482   8.906   7.003  13.244  0.0153  0.0478 -0.0326
 7279W        W25483   6.590   5.349   2.775 -0.1498 -0.1852  0.1778
 7280W        W25484  16.895  11.369  13.356 -0.0407  0.0760 -0.3089
 7281W        W25485   6.424  17.354  11.393 -0.0088  0.2277 -0.1358
 7282W        W25486  15.738  16.300  11.075 -0.1873 -0.0869 -0.2258
 7283W        W25487   4.211   2.219  12.922 -0.0443  0.0342  0.0434
 7284W        W25488  11.153   0.232  10.344 -0.4270  0.2340 -0.1306
 7285W        W25489  18.289   5.783   1.428 -0.1226 -0.1712  0.1674
 7286W        W25490  16.334  13.245  10.380  0.2292 -0.3422  0.1321
 7287W        W25491   7.758   9.358   2.361  0.3584 -0.2418  0.1823
 7288W        W25492  12.422   6.259   3.588  0.0918  0.2075 -0.1098
 7289W        W25493  18.383  17.817   3.790  0.0680  0.0087 -0.0201
 7290W        W25494   8.337   0.369   1.648  0.0071 -0.0107  0.0746
 7291W        W25495   0.615   0.478   1.673  0.0874  0.0357  0.1244
 7292W        W25496   9.453   9.994   3.185  0.0098 -0.3947 -0.3012
 7293W        W25497  12.143   0.283   1.010 -0.0793  0.3496 -0.2613
 7294W        W25498   2.598   8.092  11.110  0.0025 -0.0171  0.1414
 7295W        W25499   3.001  18.740   1.934 -0.0140  0.2582 -0.0653
 7296W        W25500   1.335   4.555  14.953 -0.0915  0.2088  0.1615
 7297W        W25501   4.978  13.253   4.051 -0.0294 -0.1340  0.0009
 7298W        W25502  18.240  12.757  11.097 -0.0367  0.0422  0.1438
 7299W        W25503  16.045  18.479   3.252  0.1086  0.0645  0.0844
 7300W        W25504  12.256   8.519  11.788  0.0097  0.1221  0.0893
 7301W        W25505  16.562  18.099  12.931  0.0529 -0.2139  0.1781
 7302W        W25506   1.837   3.914   4.251 -0.1509  0.2865 -0.3444
 7303W        W25507  11.242  17.458   4.472 -0.1271  0.1337 -0.3330
 7304W        W25508  18.918  16.019   9.865 -0.0147 -0.1562  0.1461
 7305W        W25509  10.166  14.612   3.164 -0.0981 -0.1660 -0.2802
 7306W        W25510  15.996   0.134  11.437  0.1823  0.1737  0.0038
 7307W        W25511   9.447  17.234   2.677  0.3256 -0.1767 -0.3047
 7308W        W25512   6.560  18.248  13.505  0.3057  0.1777 -0.2105
 7309W        W25513  14.976  13.949   3.349  0.3137  0.1484  0.2656
 7310W        W25514   3.268   4.298   0.453  0.1618 -0.1075  0.3043
 7311W        W25515  16.198  16.269   3.006  0.2151  0.0459 -0.0187
 7312W        W25516   4.219   5.318  14.985  0.0480  0.2751 -0.1978
 7313W        W25517   7.635   7.957  14.857  0.0259 -0.1999 -0.1565
 7314W        W25518   2.773  15.216   0.334  0.1848 -0.1341 -0.1810
 7315W        W25519   2.042   2.977  10.232  0.0040  0.0303  0.2750
 7316W        W25520   6.934   7.176   1.272 -0.2472  0.0177 -0.1465
 7317W        W25521   8.996   8.946   1.410 -0.0689 -0.2319 -0.1055
 7318W        W25522   3.169   6.581   2.912  0.0844 -0.0078  0.2583
 7319W        W25523   7.000  18.251  13.846 -0.2187  0.1981  0.2711
 7320W        W25524   3.744   0.269  12.190 -0.0339 -0.3801  0.1608
 7321W        W25525  16.957  10.200   3.028 -0.1301 -0.0483 -0.1327
 7322W        W25526   4.334   5.755   4.628  0.1055 -0.2158  0.0676
 7323W        W25527   5.320   9.091   5.260  0.1677 -0.0569 -0.3988
 7324W        W25528  11.323   9.631  10.651 -0.0079 -0.0417 -0.2125
 7325W        W25529   8.298  10.406  13.764  0.0527  0.2508  0.0032
 7326W        W25530   1.872  15.777   1.857  0.4508 -0.0999 -0.3459
 7327W        W25531  15.563  17.022  11.529  0.0231  0.2408 -0.2795
 7328W        W25532   4.041   0.883  11.985  0.1247  0.0188  0.0076
 7329W        W25533   1.420   4.469   0.538 -0.1349 -0.0274 -0.0752
 7330W        W25534   1.912  17.419   5.244  0.0499  0.3566 -0.3447
 7331W        W25535   5.989   6.139  13.404  0.0410  0.0365 -0.2903
 7332W        W25536  13.183  11.362   2.260  0.0538 -0.1236 -0.1822
 7333W        W25537   0.747  13.754   4.020  0.1543  0.0014  0.1763
 7334W        W25538   5.513   2.288  14.077 -0.2656  0.1333  0.2503
 7335W        W25539  13.281   6.707  12.168 -0.1440 -0.0750  0.0255
 7336W        W25540   3.380   8.272  13.654  0.3406  0.1455 -0.0932
 7337W        W25541   4.170  11.498  13.162 -0.0862 -0.1584 -0.1005
 7338W        W25542  13.013  11.585   5.067 -0.0210 -0.3052 -0.1137
 7339W        W25543  10.705   1.048  11.902  0.3138  0.0990 -0.0633
 7340W        W25544  16.027  17.134  11.352 -0.0340  0.3146  0.1586
 7341W        W25545   6.986  12.565   3.788  0.1972 -0.2028  0.1797
 7342W        W25546  13.443  12.409  13.219 -0.0871 -0.4455 -0.4170
 7343W        W25547   7.459   7.923   2.810  0.0952  0.0863 -0.2266
 7344W        W25548   2.359  14.657   3.341 -0.3997  0.1907 -0.0200
 7345W        W25549   7.679   2.384  12.343  0.0443 -0.1747  0.0973
 7346W        W25550  10.551   1.559   2.771  0.0269 -0.1361 -0.1778
 7347W        W25551  16.956   8.150  14.069  0.0118 -0.0959 -0.2377
 7348W        W25552   5.993   0.346  11.310  0.0040  0.2335  0.0541
 7349W        W25553   7.187  12.486  12.474 -0.2518  0.0044 -0.1899
 7350W        W25554  10.220  16.681   0.265  0.2270  0.1625  0.1074
 7351W        W25555   8.935   8.690  13.197 -0.1069  0.1905  0.1289
 7352W        W25556   6.667  12.486  11.779 -0.3892  0.2666  0.2309
 7353W        W25557   4.772   6.406   4.241 -0.1641 -0.0219  0.0196
 7354W        W25558   0.593   3.541  14.883  0.1571  0.0083 -0.0779
 7355W        W25559  18.912  16.076   1.466  0.0271  0.0115 -0.2270
 7356W        W25560  10.255   6.575  10.927  0.1401 -0.0390  0.2934
 7357W        W25561  17.393  16.359   3.691 -0.1782  0.1081 -0.1375
 7358W        W25562  11.763   7.765  12.738  0.1356  0.3569 -0.1708
 7359W        W25563   2.072  13.725   1.336  0.0730 -0.0005  0.0559
 7360W        W25564   3.268   3.302   4.564  0.0036  0.0606 -0.0253
 7361W        W25565   7.164   8.502   1.118  0.1639 -0.1493  0.0837
 7362W        W25566   9.324  11.854   2.871 -0.1342  0.2137 -0.1545
 7363W        W25567   3.421   4.837  12.879 -0.0244 -0.0472  0.2643
 7364W        W25568   2.224   4.742  13.463  0.4460  0.4634 -0.2636
 7365W        W25569   8.734   3.333  13.181  0.1282 -0.0340  0.2413
 7366W        W25570   6.056   4.651  13.541 -0.0483  0.2594 -0.1669
 7367W        W25571  17.289   8.979  13.421  0.2459  0.1703  0.1405
 7368W        W25572   0.546  10.946   0.382 -0.0821  0.1664 -0.3509
 7369W        W25573   8.941   1.381  11.643 -0.1248  0.2653  0.0834
 7370W        W25574   1.281  12.260  14.558  0.2840 -0.1769 -0.1165
 7371W        W25575  10.717  10.148  13.626  0.0066  0.1662  0.1557
 7372W        W25576   8.416  11.974   1.510  0.1493  0.1587 -0.3241
 7373W        W25577   0.210  15.334   1.685  0.0131  0.0031  0.0652
 7374W        W25578  14.900   8.284   4.441  0.2157  0.3624 -0.0881
 7375W        W25579   6.767  17.752  11.384  0.0578  0.0946 -0.1616
 7376W        W25580  16.202  14.827  12.321 -0.1383  0.2349  0.0700
 7377W        W25581  18.289   5.128   0.738 -0.2993 -0.1786  0.1371
 7378W        W25582   7.765  17.527   3.445  0.1820  0.0520  0.1423
 7379W        W25583  16.507  17.355  14.927  0.2572  0.0341  0.1760
 7380W        W25584   1.089   1.850  12.240  0.2133 -0.0936 -0.0786
 7381W        W25585  10.696  17.122  13.337 -0.1882 -0.2326  0.0254
 7382W        W25586  14.017   0.067  10.181  0.1411  0.0940 -0.2430
 7383W        W25587   4.503   6.770   3.536  0.3330 -0.0525 -0.0123
 7384W        W25588   1.382   7.833   0.540 -0.2842  0.3827  0.0071
 7385W        W25589  18.951  11.852  13.014 -0.2615 -0.2973 -0.0609
 7386W        W25590  10.794  16.872   4.045 -0.3082  0.1982 -0.1000
 7387W        W25591  15.066  13.552  14.461  0.2012 -0.0024 -0.0414
 7388W        W25592   1.885   5.771   3.406 -0.1857 -0.0020  0.0955
 7389W        W25593   0.665  13.471   3.545 -0.2451 -0.2507  0.0749
 7390W        W25594  16.323   4.509   0.942 -0.0770 -0.0980  0.1801
 7391W        W25595   7.783   2.526  10.994  0.0584 -0.2269  0.3120
 7392W        W25596   3.195   1.141  11.881  0.0421 -0.2212  0.1354
 7393W        W25597   6.280   2.455  13.666 -0.0960 -0.1677  0.0326
 7394W        W25598   6.034   2.565   1.538  0.0163  0.0291 -0.0266
 7395W        W25599   6.834   1.951  14.490  0.2134 -0.0172  0.0359
 7396W        W25600  12.294  14.178   2.966 -0.0246 -0.1307  0.3013
 7397W        W25601  18.279  12.469  11.560  0.3116 -0.1104  0.0279
 7398W        W25602  13.929  10.732  13.809  0.0550 -0.0837 -0.0536
 7399W        W25603  13.605   5.452  13.202 -0.0295  0.0526  0.0812
 7400W        W25604   5.739  18.818   0.145  0.2601  0.0392  0.1740
 7401W        W25605   8.392  14.651   2.247 -0.3663 -0.0482  0.2247
 7402W        W25606   6.385   5.852   0.109 -0.3200  0.0387 -0.1828
 7403W        W25607   3.954  12.380  11.041 -0.3512  0.3319  0.1290
 7404W        W25608   4.532  17.562   2.892 -0.0634 -0.1007 -0.2995
 7405W        W25609   7.216  18.480  13.053 -0.0697 -0.0767  0.2715
 7406W        W25610   0.524   7.083   4.637 -0.0450  0.0105 -0.0518
 7407W        W25611   0.104   3.158   1.930 -0.2397  0.0471  0.3084
 7408W        W25612   1.651   4.302   0.929 -0.1185 -0.3148 -0.0176
 7409W        W25613  13.517  10.332  12.875 -0.2268 -0.0542  0.2476
 7410W        W25614   7.442   4.125  12.261  0.0936  0.2579 -0.1449
 7411W        W25615   5.431   1.543  15.013 -0.2532  0.0999  0.0328
 7412W        W25616   4.505   8.732   4.386 -0.0275 -0.2509  0.0330
 7413W        W25617  17.660   8.456  10.048  0.1534 -0.3463  0.1179
 7414W        W25618  17.976  18.855  13.975 -0.1323 -0.0900 -0.0306
 7415W        W25619  10.471   4.179   2.731 -0.4097  0.1755 -0.0769
 7416W        W25620   0.611   9.600  14.747 -0.4085 -0.0693 -0.1792
 7417W        W25621  15.002  16.575  14.922 -0.1263 -0.3531  0.1363
 7418W        W25622   8.514   3.032  14.974  0.0600  0.0948  0.0247
 7419W        W25623   7.498   3.551  14.262 -0.0386  0.3171 -0.0448
 7420W        W25624  18.044   8.296  10.275  0.2684 -0.0593 -0.2107
 7421W        W25625   3.590  14.259  10.540  0.0648 -0.0915  0.1145
 7422W        W25626   2.276   9.739  14.793  0.1571 -0.2335  0.0919
 7423W        W25627   8.399  14.461  10.770 -0.0881 -0.2229 -0.0564
 7424W        W25628   6.248   3.371  10.816 -0.0339 -0.1321  0.3309
 7425W        W25629  16.759   1.127  12.858 -0.1847  0.0285  0.3551
 7426W        W25630   3.008  13.420   1.584  0.0609  0.2282 -0.0955
 7427W        W25631  12.232   7.676  11.632  0.2476  0.0708  0.0874
 7428W        W25632   1.705  15.438   4.904 -0.0244 -0.1826  0.2670
 7429W        W25633  10.706   0.860  14.880  0.4321 -0.2525  0.3096
 7430W        W25634   9.434  11.088   4.324  0.1478  0.0520 -0.0135
 7431W        W25635  10.992  12.706   2.081 -0.0090  0.1854 -0.2654
 7432W        W25636   0.042   2.614   1.349 -0.2247 -0.0579 -0.2103
 7433W        W25637  14.921   8.384  13.679 -0.1901  0.1073 -0.2540
 7434W        W25638   2.572   5.391  13.426 -0.2258  0.2351  0.1545
 7435W        W25639  17.510   2.649   0.945 -0.2310 -0.3276  0.1829
 7436W        W25640  18.760  16.738   2.062 -0.1727  0.4426 -0.2974
 7437W        W25641   3.172  12.611  11.641  0.0477 -0.1777 -0.1396
 7438W        W25642   8.595   1.656  11.909 -0.1965  0.2693 -0.0298
 7439W        W25643   1.568   0.289  10.512 -0.0025  0.1743  0.1632
 7440W        W25644   1.018  18.232   3.309  0.0007 -0.2446  0.3102
 7441W        W25645   0.020  16.842  14.411 -0.2841  0.0140  0.1733
 7442W        W25646  14.710   3.242  10.897  0.2534 -0.1718  0.1017
 7443W        W25647  11.183  17.702   4.023 -0.0922  0.4300 -0.1228
 7444W        W25648  13.644  13.296   4.142 -0.0499  0.3161  0.0091
 7445W        W25649  11.688  15.308  13.362 -0.0987  0.0418  0.2373
 7446W        W25650  17.008   7.829   2.890 -0.2981 -0.1401  0.0834
 7447W        W25651   6.852   8.110  12.271 -0.3315  0.2192  0.0923
 7448W        W25652  11.106   5.108  13.067  0.0228 -0.2133  0.0581
 7449W        W25653  17.025   1.549   1.159 -0.3368 -0.0255  0.0877
 7450W        W25654  16.959   4.980   3.308 -0.2593  0.0258 -0.2960
 7451W        W25655   0.958  17.559  12.742 -0.1685  0.2310 -0.1165
 7452W        W25656  11.102   8.331  12.633 -0.3042  0.1852  0.1965
 7453W        W25657   1.480   0.739  13.876 -0.1761 -0.0696 -0.0809
 7454W        W25658   3.375  12.955   2.281 -0.0788 -0.3649 -0.0535
 7455W        W25659   5.361  11.602  10.684 -0.0812 -0.1342 -0.0481
 7456W        W25660   6.571  15.080  13.569  0.0390  0.0050  0.0971
 7457W        W25661  17.130   6.162   0.927  0.1628  0.3054  0.0980
 7458W        W25662  11.372  16.014   2.618 -0.2762 -0.1055  0.1753
 7459W        W25663   1.073   5.735   4.987 -0.1859  0.1613 -0.0335
 7460W        W25664  10.766   8.141  14.961 -0.3203  0.0627 -0.0751
 7461W        W25665   3.909  16.307  13.590 -0.1564 -0.0620  0.2522
 7462W        W25666  11.905   2.750   1.990 -0.1644 -0.1195  0.0192
 7463W        W25667   1.306  15.617  12.189  0.1327 -0.2053  0.2014
 7464W        W25668   6.225  13.779   4.218 -0.1024 -0.3707  0.1265
 7465W        W25669  15.726   2.300   0.272  0.0821 -0.5306  0.0221
 7466W        W25670  14.865   3.881  12.526  0.1168  0.1469 -0.2851
 7467W        W25671   2.274  14.995  13.969  0.0585  0.1525 -0.0966
 7468W        W25672   8.275  14.566   0.699  0.0745  0.2007  0.2677
 7469W        W25673   4.996  11.661   2.349  0.1834  0.3071 -0.0781
 7470W        W25674   8.482  11.718   9.842 -0.1526 -0.2317  0.0315
 7471W        W25675  15.819  10.777  11.466  0.0778 -0.4296 -0.0286
 7472W        W25676  15.399   7.207  13.598  0.0658  0.0374 -0.1776
 7473W        W25677   7.213  14.685   1.525 -0.0203 -0.0646 -0.1424
 7474W        W25678  15.361  17.651  10.004 -0.1981  0.2714 -0.1468
 7475W        W25679  10.038   0.608   9.706 -0.3768 -0.0183  0.2677
 7476W        W25680  14.240  17.397   1.657 -0.1674  0.2464  0.1166
 7477W        W25681   3.222   9.839   3.246 -0.4522  0.0107  0.1444
 7478W        W25682  11.475   4.350   1.809  0.1669 -0.0996 -0.2722
 7479W        W25683   6.540   0.562   3.479  0.2922  0.0946  0.1908
 7480W        W25684  17.843   6.211  11.626  0.3494 -0.4827 -0.0125
 7481W        W25685  12.931   8.955  13.707  0.1325 -0.1856 -0.0654
 7482W        W25686   9.642   6.681   5.513 -0.3198  0.1363  0.0624
 7483W        W25687   4.775  12.043  12.060 -0.0830 -0.3029 -0.0892
 7484W        W25688  13.462   0.400  12.444  0.3587 -0.1479  0.1354
 7485W        W25689   1.147  17.512  14.243  0.0254 -0.1796  0.1267
 7486W        W25690  10.540  15.323   1.121 -0.2818  0.2236 -0.1420
 7487W        W25691  18.647  11.583   3.866 -0.1425 -0.2258 -0.0573
 7488W        W25692  15.286   1.092  14.656  0.0230  0.0312 -0.0915
 7489W        W25693   5.663  12.293   2.491 -0.2884  0.1063  0.1534
 7490W        W25694  10.890  18.267   2.503  0.1327 -0.2940 -0.0264
 7491W        W25695   2.263   5.362  13.946  0.0139  0.0617 -0.1458
 7492W        W25696  13.421   7.399  12.817  0.3586  0.2716  0.1768
 7493W        W25697  15.629   0.477  15.025  0.1498 -0.0871  0.0166
 7494W        W25698  16.100  11.923   1.553 -0.0484 -0.1870 -0.2712
 7495W        W25699  15.936   9.162   0.071 -0.0384 -0.4152 -0.0082
 7496W        W25700   3.119   1.719   2.185 -0.1583  0.0419  0.0996
 7497W        W25701   5.700   6.256   2.049  0.0073  0.2748  0.0145
 7498W        W25702  15.756  13.977  12.032  0.0892 -0.0042 -0.1887
 7499W        W25703   8.748   1.772  13.595 -0.0302  0.1969  0.1300
 7500W        W25704  14.645  15.081   3.475  0.1842 -0.0043 -0.3249
 7501W        W25705  17.018   4.151  12.620 -0.2854 -0.1182 -0.2967
 7502W        W25706   8.613  16.536  12.578 -0.0745  0.0425 -0.0206
 7503W        W25707   7.741   7.306   5.281  0.0411 -0.1088  0.0297
 7504W        W25708  11.317   3.061   3.312 -0.0235  0.1789  0.0309
 7505W        W25709  16.621   6.138   1.135 -0.4284 -0.0590  0.0685
 7506W        W25710  10.628   8.910  10.589 -0.3111  0.1344  0.0094
 7507W        W25711  14.719  17.370   0.298  0.1993  0.4295 -0.0304
 7508W        W25712  18.370   9.953  13.697 -0.1484 -0.3008  0.1094
 7509W        W25713  13.409   0.809   1.883 -0.0889 -0.0310 -0.2410
 7510W        W25714   6.994   3.874   1.061  0.0779 -0.0482 -0.1606
 7511W        W25715  15.905  10.570   2.768 -0.0343  0.2721 -0.0664
 7512W        W25716   1.412  17.347   0.172 -0.1117  0.2418  0.1914
 7513W        W25717  17.238  17.551  14.096 -0.0339 -0.0395  0.0738
 7514W        W25718  15.995  13.002  10.643 -0.2110  0.1682 -0.2024
 7515W        W25719  16.339   0.738  11.831 -0.0198  0.1627 -0.2109
 7516W        W25720   8.677   0.809   0.758  0.0748  0.1449  0.0632
 7517W        W25721   2.733   0.256   4.396 -0.0558  0.1083  0.4440
 7518W        W25722  11.969   6.590   3.814 -0.1122 -0.0266 -0.2072
 7519W        W25723   1.078  13.035  12.899 -0.0144  0.2321 -0.1810
 7520W        W25724   6.490   4.378  14.720 -0.1234  0.0954  0.0894
 7521W        W25725  12.253   2.151   2.917 -0.3267  0.2447 -0.4768
 7522W        W25726   2.389   2.609  12.630 -0.0857 -0.1069 -0.3641
 7523W        W25727   2.552  18.413  14.795  0.0817  0.0339 -0.5847
 7524W        W25728   3.928   2.196   0.064 -0.0317 -0.1426  0.0197
 7525W        W25729   5.693   2.949   9.715  0.0715 -0.1364  0.3572
 7526W        W25730   7.056   8.702   4.273  0.0716 -0.4042 -0.2202
 7527W        W25731  14.580  11.903  13.427 -0.1656 -0.0656 -0.3385
 7528W        W25732  14.876  13.801  13.825  0.3401  0.2330 -0.1667
 7529W        W25733  16.525   7.007  14.114 -0.0408  0.0318  0.2213
 7530W        W25734  14.784   9.881   2.404 -0.2086  0.0343 -0.1830
 7531W        W25735   1.383   4.913   1.524  0.1829 -0.0421  0.0017
 7532W        W25736  13.337  12.454   2.777 -0.1496 -0.1832  0.1963
 7533W        W25737   0.247  18.441  13.653 -0.4110  0.1415  0.3202
 7534W        W25738   4.493  17.460   1.980  0.0415  0.0534  0.0527
 7535W        W25739   9.274   4.608   3.076  0.1124 -0.2114  0.1225
 7536W        W25740   0.127   0.777  14.514  0.0463  0.0685 -0.0460
 7537W        W25741  16.676  13.395  11.062 -0.0444  0.0681  0.0244
 7538W        W25742  12.699   2.874   1.634  0.0284  0.2029  0.2462
 7539W        W25743  13.818   0.161  15.012  0.0121 -0.0078  0.0437
 7540W        W25744  14.954  11.785   2.422 -0.0629  0.0909  0.2089
 7541W        W25745   8.599   9.632  12.225  0.1906  0.1862 -0.1295
 7542W        W25746  15.253   8.711  12.761  0.1302 -0.1356 -0.2023
 7543W        W25747   6.987   1.867   4.184  0.1494  0.0504 -0.1939
 7544W        W25748   5.020  18.428   3.338 -0.1283  0.0054 -0.0266
 7545W        W25749   2.106  12.903   1.399  0.0610  0.1324  0.0289
 7546W        W25750   9.124  12.049  13.832 -0.2297 -0.0190  0.0619
 7547W        W25751   7.785  12.976   2.093 -0.0084  0.1330 -0.2025
 7548W        W25752  17.192   4.520   3.110 -0.2487 -0.1001 -0.1645
 7549W        W25753   1.296   9.896  11.104  0.1849 -0.1839 -0.1668
 7550W        W25754   0.398  15.205  11.059 -0.3265 -0.1632  0.2426
 7551W        W25755  10.332  15.438   4.749 -0.0863 -0.0831 -0.1156
 7552W        W25756  13.968   2.145   2.143 -0.0040  0.0824 -0.3948
 7553W        W25757   0.895   8.692  11.866  0.0234  0.0897 -0.0223
 7554W        W25758   8.672   6.708  11.921  0.3656 -0.0319  0.0474
 7555W        W25759  18.909  16.455   0.266  0.0839 -0.0684  0.0318
 7556W        W25760   3.396  17.300   3.606 -0.1264  0.0529  0.0024
 7557W        W25761   6.921   9.922  13.174 -0.3240  0.2331  0.0239
 7558W        W25762  15.535  10.346  12.836 -0.2292  0.0732 -0.1033
 7559W        W25763   4.798  16.199   1.997 -0.2640 -0.2624 -0.2668
 7560W        W25764   3.992  14.822   3.032 -0.1618 -0.0177  0.0466
 7561W        W25765  17.513   5.867   0.099 -0.0247  0.3465 -0.0672
 7562W        W25766  15.709  11.590  13.693 -0.1810 -0.0865 -0.3238
 7563W        W25767   3.290  13.782  14.737  0.2111  0.0067 -0.0404
 7564W        W25768   9.361   2.262   1.564  0.1351  0.0002 -0.3750
 7565W        W25769  10.646  17.371   4.032 -0.0086 -0.0352 -0.0475
 7566W        W25770   9.827   7.412  12.078  0.3608  0.2228 -0.3804
 7567W        W25771   8.350  10.453   2.174 -0.0791  0.2111  0.0291
 7568W        W25772   8.230   9.825  11.049 -0.0522 -0.0396 -0.2624
 7569W        W25773   3.347   5.625   2.992 -0.2398  0.0926  0.1256
 7570W        W25774  18.031  16.023   4.132 -0.0983 -0.1057  0.2450
 7571W        W25775   1.844   4.363  13.563 -0.2784 -0.2484 -0.1493
 7572W        W25776   0.986   4.420   4.568 -0.2679  0.0481 -0.0784
 7573W        W25777   2.856  18.948  14.216  0.0960  0.2213 -0.1562
 7574W        W25778  15.987   9.890  14.403 -0.2758  0.0466 -0.1745
 7575W        W25779  11.824  12.759  14.683 -0.3115 -0.1425 -0.3205
 7576W        W25780   8.233   2.422  10.322 -0.2442  0.0054  0.1139
 7577W        W25781  12.302  12.730   3.088 -0.0169  0.2553  0.2558
 7578W        W25782  10.445  15.652  12.769  0.0939 -0.0185 -0.4290
 7579W        W25783   6.780   6.042   3.480 -0.0785 -0.2061  0.1206
 7580W        W25784  13.268   3.057  11.753  0.2452  0.2220  0.0823
 7581W        W25785  17.532   0.307   4.182  0.1934  0.3462  0.2044
 7582W        W25786  10.129   8.346   1.948  0.0378  0.0828  0.0661
 7583W        W25787   5.794   9.182  13.719  0.2066 -0.0475  0.1401
 7584W        W25788  12.509  12.356   9.753  0.0503 -0.2788  0.0136
 7585W        W25789  17.652   2.489  14.709 -0.1226 -0.0934  0.2706
 7586W        W25790   6.229   6.594   2.154  0.2391  0.1706  0.2028
 7587W        W25791   1.514  15.070  14.756 -0.3184  0.0395 -0.0335
 7588W        W25792   1.705  12.832  13.392 -0.3334  0.1916 -0.2907
 7589W        W25793  12.607   0.360  11.136  0.1062  0.1346  0.0656
 7590W        W25794   3.912  17.085  11.438  0.1608 -0.2539  0.0136
 7591W        W25795  16.660  13.326  14.541 -0.0309 -0.4011 -0.2888
 7592W        W25796   0.408  14.916  11.465  0.4748 -0.1099 -0.0792
 7593W        W25797   1.873   4.952   2.770 -0.4265 -0.0630  0.1757
 7594W        W25798   0.957  14.689   1.716  0.1745 -0.2997 -0.0274
 7595W        W25799   9.052  11.499   2.578 -0.2699 -0.0785  0.0918
 7596W        W25800   2.051   7.688  14.514  0.0762  0.0297  0.4408
 7597W        W25801  15.028  10.728  12.045  0.0438 -0.0660  0.0895
 7598W        W25802   0.607   3.151  12.735 -0.1116 -0.1674 -0.1967
 7599W        W25803   8.102   1.091   4.197  0.1906 -0.1465  0.0286
 7600W        W25804   5.629  10.524   1.678  0.3050  0.0516 -0.0711
 7601W        W25805   0.482  17.564  11.480  0.1280 -0.0026  0.4145
 7602W        W25806   2.772   4.759  12.151  0.1152  0.1862  0.1526
 7603W        W25807  12.473   9.494  11.738  0.0032  0.0007  0.0915
 7604W        W25808   9.954   4.351   0.174  0.0601 -0.0659  0.1372
 7605W        W25809   8.831  12.684  10.929  0.1559  0.1286 -0.1679
 7606W        W25810   7.876   7.626   2.144 -0.0140  0.2042  0.1020
 7607W        W25811   7.307  12.862  12.872  0.4170  0.0565  0.0140
 7608W        W25812  10.709  13.099   5.377 -0.1764 -0.2434  0.1605
 7609W        W25813   7.025  16.549   4.021  0.0942  0.0780 -0.1098
 7610W        W25814   6.621   5.049   5.300 -0.1197 -0.3474 -0.1476
 7611W        W25815  17.398  12.936  12.040  0.1904  0.1014 -0.3290
 7612W        W25816  15.742  17.427   9.570  0.0237  0.1369  0.2626
 7613W        W25817  14.649   9.639   1.487  0.1481  0.2113 -0.0067
 7614W        W25818  18.517  12.324  13.940  0.0427  0.4103  0.3871
 7615W        W25819   5.924  16.869   0.240 -0.0904  0.0820  0.0281
 7616W        W25820   8.753  12.956   4.645 -0.2194 -0.3731  0.0155
 7617W        W25821  14.325  11.732   0.230  0.0692  0.1155  0.0180
 7618W        W25822   0.991  10.530  12.578 -0.1219  0.1564 -0.2974
 7619W        W25823   6.533   9.543   3.261 -0.3110  0.2673 -0.1408
 7620W        W25824   9.157  18.903   2.946  0.2682  0.0729 -0.0107
 7621W        W25825   4.147   7.710   4.011  0.1763  0.1216  0.1671
 7622W        W25826  11.626   1.717  14.191 -0.0239  0.3173 -0.0923
 7623W        W25827   9.885  18.895  12.801 -0.0475  0.1145 -0.2349
 7624W        W25828   9.447  10.726  15.020  0.1564 -0.2300  0.0163
 7625W        W25829  18.273   7.966   4.447 -0.2308 -0.1255 -0.1056
 7626W        W25830   0.857   6.671   1.051  0.1388  0.2493 -0.1170
 7627W        W25831   0.029   4.181   5.373 -0.0796 -0.0521 -0.1005
 7628W        W25832   3.157  13.884   0.188 -0.0385  0.2116  0.2185
 7629W        W25833  18.545  18.808   1.712  0.0623  0.0313 -0.0016
 7630W        W25834  10.245   2.672   3.392  0.0357 -0.2368  0.0160
 7631W        W25835   5.022  17.598   2.085 -0.1068 -0.1052  0.0704
 7632W        W25836   1.358  11.642  13.446  0.0689  0.1126 -0.0128
 7633W        W25837   8.650   8.525   2.883  0.2623 -0.0318  0.0187
 7634W        W25838  13.710   6.952   2.258 -0.0683 -0.2987  0.2920
 7635W        W25839  12.573  12.540   0.578 -0.0103  0.0979  0.0226
 7636W        W25840   3.252   6.081   4.186  0.0848  0.1842  0.1126
 7637W        W25841   3.250   6.786  14.742  0.0265 -0.1481  0.0422
 7638W        W25842   7.977   6.186   0.007 -0.0466 -0.2705  0.0287
 7639W        W25843   1.134   5.575  12.633 -0.0939  0.0656  0.0407
 7640W        W25844   1.754  12.910   2.753  0.1043 -0.3587 -0.1950
 7641W        W25845   7.989   5.392   0.596  0.0666  0.0335  0.1822
 7642W        W25846   8.049   6.156  14.509 -0.2722  0.1763  0.2057
 7643W        W25847  10.014   0.400   2.362  0.1981  0.0748 -0.0239
 7644W        W25848   0.670   6.735  14.006  0.1862  0.0452 -0.0480
 7645W        W25849   2.216   6.796   1.949  0.0446  0.0466 -0.1063
 7646W        W25850  15.558  11.894  14.387 -0.2188 -0.1743 -0.0839
 7647W        W25851  13.148   4.825  14.463 -0.1570 -0.1295 -0.0124
 7648W        W25852  18.646   5.232  13.747 -0.1591 -0.1278 -0.1895
 7649W        W25853   4.784  12.112   2.775 -0.1192 -0.0003 -0.4189
 7650W        W25854   0.287  13.809  12.503  0.3738  0.2120 -0.1161
 7651W        W25855   4.705  15.299   3.265  0.5589 -0.1725  0.2153
 7652W        W25856  18.135  15.474  13.878  0.1456  0.5029  0.1956
 7653W        W25857   8.405   8.958  11.152 -0.0241  0.3003  0.1927
 7654W        W25858  12.532   0.525   0.083 -0.1065 -0.0132 -0.1235
 7655W        W25859  17.530   8.959   1.070  0.0575 -0.1118  0.0869
 7656W        W25860   6.129  13.027   3.919  0.3293  0.0255 -0.0021
 7657W        W25861  15.990   7.153  14.926  0.2574 -0.1612 -0.1771
 7658W        W25862  13.313   9.276   2.804 -0.3346  0.1812 -0.1711
 7659W        W25863  16.795   1.445  10.735  0.2634 -0.1410  0.0098
 7660W        W25864  16.775   5.573  14.369 -0.2853 -0.1772  0.0316
 7661W        W25865   9.159   0.597   3.243  0.2059 -0.3521 -0.0260
 7662W        W25866   7.263   5.803   3.513 -0.1286 -0.0309 -0.0200
 7663W        W25867  10.177   0.405  10.486  0.1226  0.1709 -0.1214
 7664W        W25868   3.066  11.947   4.356  0.0070 -0.2151 -0.1303
 7665W        W25869  16.850  15.967  14.752  0.0037  0.4016  0.0171
 7666W        W25870  15.952  13.243  13.606  0.2420 -0.3732  0.1493
 7667W        W25871   2.328  12.665   3.423  0.1493 -0.0548  0.0013
 7668W        W25872   6.763  17.072  10.746  0.1818  0.2548  0.1595
 7669W        W25873  16.527  10.866   4.154 -0.1289 -0.0312 -0.1866
 7670W        W25874   5.645  17.449   4.037 -0.2427  0.0265 -0.0848
 7671W        W25875  15.849  17.104  12.641  0.1326  0.1429  0.0401
 7672W        W25876   6.107  12.197  11.656 -0.2729  0.0278 -0.0154
 7673W        W25877  11.363   6.265  13.192  0.1090  0.0869  0.2020
 7674W        W25878   4.777   9.515  11.304 -0.1595  0.0168  0.1858
 7675W        W25879  17.970   2.392   0.672  0.2397 -0.1711  0.0787
 7676W        W25880  18.061  13.257  13.810 -0.0177 -0.1421  0.0578
 7677W        W25881   4.688   1.013  13.024  0.2712  0.1244 -0.2174
 7678W        W25882   0.920   5.718  13.663  0.0994  0.4086  0.1889
 7679W        W25883  15.480  14.758   1.959  0.0257 -0.1985  0.2126
 7680W        W25884  14.590  14.477   1.923 -0.0062 -0.0224  0.1635
 7681W        W25885   6.474   5.471  13.953 -0.0316  0.4192 -0.0919
 7682W        W25886   4.195   4.684   0.519  0.1550 -0.1540 -0.2537
 7683W        W25887   0.245   6.768   4.403  0.0086 -0.0442  0.2354
 7684W        W25888  12.760   3.568   3.755 -0.0047  0.0035  0.2409
 7685W        W25889  16.583  16.234   2.486 -0.1829 -0.3280 -0.1142
 7686W        W25890  16.757   2.902  14.617 -0.0526 -0.0850 -0.1636
 7687W        W25891  16.767  13.443  10.176 -0.1592 -0.1253 -0.0908
 7688W        W25892   0.515  14.787   1.482 -0.0824 -0.4054  0.0911
 7689W        W25893  13.771   6.038   2.704 -0.1217 -0.1576  0.1781
 7690W        W25894  17.571  11.496   2.055 -0.1855  0.0211  0.1050
 7691W        W25895  17.368  18.222  11.158 -0.0983  0.1609 -0.0624
 7692W        W25896  14.325  17.219  14.973  0.2343 -0.0437 -0.1147
 7693W        W25897  13.303  11.536   2.757  0.2583  0.2979  0.3497
 7694W        W25898   8.521   1.744  11.058  0.3764  0.2208  0.1181
 7695W        W25899  16.783   5.877   0.726 -0.0405 -0.0319  0.0384
 7696W        W25900   9.213   7.716  10.618 -0.0073  0.4214 -0.1727
 7697W        W25901   6.058  11.835   1.570  0.0983  0.0281  0.1706
 7698W        W25902  10.691  13.055   2.358  0.0107 -0.0528  0.0716
 7699W        W25903   9.334  11.137   2.793 -0.0092  0.0680 -0.7495
 7700W        W25904   0.317   7.233   2.244 -0.2615 -0.2195 -0.2854
 7701W        W25905   3.371   4.542   0.011 -0.2301  0.0206 -0.1971
 7702W        W25906  18.148  10.336   1.268  0.1422 -0.0884 -0.2395
 7703W        W25907  11.544  18.743  14.083  0.2461 -0.3942  0.3592
 7704W        W25908   8.555   2.734   1.963 -0.1982  0.1228  0.2368
 7705W        W25909  16.569  16.111   3.789  0.1203 -0.1158  0.2940
 7706W        W25910   2.022  17.014   4.286  0.0699  0.1325 -0.0920
 7707W        W25911   8.591  15.615  12.817  0.0311  0.1762  0.2466
 7708W        W25912   3.915  18.725   4.692 -0.0631  0.0499  0.1436
 7709W        W25913  12.014   9.532  14.080 -0.1710 -0.1932  0.0399
 7710W        W25914  14.171   5.552  12.209  0.0322 -0.0014  0.1359
 7711W        W25915  16.944   8.582  13.769  0.1482  0.0461 -0.2692
 7712W        W25916  11.227   0.946  13.300 -0.0398  0.2366 -0.0131
 7713W        W25917  12.008   2.125  12.221  0.1979  0.2169  0.5763
 7714W        W25918  13.439   2.082  14.617  0.2251 -0.2255 -0.0412
 7715W        W25919  13.663  16.814  14.278  0.0125 -0.0248  0.2348
 7716W        W25920   7.996   2.152   1.172 -0.4227 -0.0289  0.2785
 7717W        W25921   8.037  16.371   0.691  0.1601  0.1987  0.0659
 7718W        W25922  13.653   4.636   3.616  0.1668  0.1871  0.1584
 7719W        W25923  16.934  12.780  11.773  0.1510 -0.2865 -0.0404
 7720W        W25924   1.799  12.658  11.900  0.1742  0.1214  0.2104
 7721W        W25925  11.539   1.395   1.801  0.1247 -0.0012 -0.1815
 7722W        W25926   4.983  11.602  13.733 -0.0172 -0.1759  0.0532
 7723W        W25927   0.941   9.172   3.109  0.1089 -0.6136  0.2204
 7724W        W25928   0.606   1.994   4.245  0.2377  0.2009  0.3320
 7725W        W25929   0.483  15.952   1.467  0.1561  0.1230 -0.0663
 7726W        W25930  10.641   4.898  10.613 -0.3077  0.0950 -0.0866
 7727W        W25931  16.008  18.672  12.235  0.1164  0.3745 -0.0679
 7728W        W25932  16.682   0.133   0.496 -0.0569  0.1298 -0.0099
 7729W        W25933  13.540  12.380   1.000  0.0676 -0.2950 -0.3486
 7730W        W25934   1.716   4.877   0.679  0.0623 -0.0276 -0.0599
 7731W        W25935  13.547   7.709   2.522  0.2913  0.2615  0.0396
 7732W        W25936  18.218   1.724  14.265 -0.0027  0.2908 -0.0436
 7733W        W25937   9.525  12.172  14.698  0.1354 -0.1010  0.1243
 7734W        W25938  10.912   4.403   2.028  0.1192  0.5645 -0.2332
 7735W        W25939   8.290   1.800   2.296  0.0340  0.4904 -0.0677
 7736W        W25940  15.257  18.661  13.133  0.1122  0.4139 -0.1798
 7737W        W25941  13.335   9.115  11.249 -0.0208  0.2150  0.2683
 7738W        W25942   8.882  12.327   0.812  0.2206 -0.1079  0.0413
 7739W        W25943   7.591   0.179   0.405  0.0624  0.0604  0.0284
 7740W        W25944  15.830   2.083   0.694 -0.0764  0.1336  0.0436
 7741W        W25945  11.411   6.274  10.477 -0.4966 -0.0523  0.0358
 7742W        W25946  18.840   1.467   3.140  0.1942  0.2280  0.2015
 7743W        W25947   7.574   1.505   0.335 -0.1283 -0.0497  0.3217
 7744W        W25948   5.313   3.264   2.497  0.2217  0.5684 -0.4238
 7745W        W25949  12.234  15.577   1.289 -0.0657 -0.2216 -0.0716
 7746W        W25950   5.847   3.336   4.541 -0.0230 -0.1989  0.0620
 7747W        W25951   4.003  15.555  13.204 -0.0143 -0.1137 -0.2652
 7748W        W25952   8.554  12.446   1.320  0.0781  0.2866  0.1699
 7749W        W25953  14.930   3.595   2.358  0.0454  0.0872 -0.1418
 7750W        W25954  13.429  13.954   2.627 -0.3183  0.0326 -0.1862
 7751W        W25955  15.213   0.994  12.148  0.1069  0.1019 -0.2429
 7752W        W25956   3.684   4.208  14.923 -0.1358  0.6389 -0.0708
 7753W        W25957   4.483  16.414  13.309 -0.1121  0.0539  0.0642
 7754W        W25958  18.410   3.729   2.506 -0.1060 -0.1383  0.2107
 7755W        W25959   8.994  17.405   4.463 -0.2249  0.0157 -0.0923
 7756W        W25960   9.762  17.576  12.327 -0.2555  0.1072  0.1108
 7757W        W25961  12.072   2.465  14.154  0.1907 -0.0148 -0.0097
 7758W        W25962   5.311   0.688   1.019 -0.4023 -0.5033  0.0736
 7759W        W25963   6.392  11.714  11.559 -0.0368 -0.0628  0.1862
 7760W        W25964   0.425  13.201  14.153 -0.2887 -0.1699 -0.1119
 7761W        W25965  17.923  11.072   2.111 -0.0765 -0.3480 -0.2378
 7762W        W25966   9.593  18.698   0.455  0.0756  0.0377  0.2969
 7763W        W25967   1.228  18.705  12.507 -0.0618  0.3008 -0.2043
 7764W        W25968  18.949  12.569  10.711  0.0366  0.0273  0.2254
 7765W        W25969   1.460   0.084   0.336  0.4293  0.0244 -0.0164
 7766W        W25970  13.918  17.330  10.695 -0.0357  0.0956 -0.0352
 7767W        W25971  13.225  15.324   3.074 -0.1688  0.2166  0.0013
 7768W        W25972  14.511  16.414   0.247 -0.0976  0.0434  0.0505
 7769W        W25973  12.088   5.252   4.443 -0.1105  0.0605  0.1531
 7770W        W25974  14.327  16.694   2.061 -0.1122  0.0861 -0.1409
 7771W        W25975  10.892  14.649  12.924 -0.0486  0.0487  0.1122
 7772W        W25976   5.751   1.616  11.972  0.0142 -0.3114  0.1907
 7773W        W25977   6.246  17.670   0.009  0.0008  0.0746  0.0797
 7774W        W25978   1.594   7.968  12.049 -0.1733  0.3218 -0.0746
 7775W        W25979   0.910  16.289  12.602 -0.2628 -0.0870  0.1155
 7776W        W25980   5.531  14.130   3.525  0.3136 -0.2778 -0.0474
 7777W        W25981   7.573   7.596  12.396  0.0063 -0.0848 -0.0983
 7778W        W25982   5.215  17.409   3.802 -0.0457 -0.1855 -0.2454
 7779W        W25983  16.123   2.375   1.684 -0.0570 -0.0632  0.1601
 7780W        W25984  11.545   5.836  14.617  0.3399 -0.0554  0.0168
 7781W        W25985  17.856   5.032   1.993  0.0726 -0.1541  0.0523
 7782W        W25986   6.951   5.683   1.424 -0.3426 -0.2082  0.0611
 7783W        W25987  13.928   1.975  14.250  0.0304  0.1148  0.1857
 7784W        W25988   7.729   9.254   3.271  0.2158  0.0678  0.0714
 7785W        W25989  13.386  13.890   1.204  0.3082  0.1265 -0.0933
 7786W        W25990   4.104  15.934   1.322  0.0490  0.0179 -0.1732
 7787W        W25991   5.119  18.089   1.905  0.3666  0.0731  0.0654
 7788W        W25992   1.423   2.734  13.342 -0.2299  0.0079  0.0017
 7789W        W25993   6.876  14.481   1.198 -0.0853  0.0160  0.0171
 7790W        W25994  17.876  11.279   1.154  0.1685 -0.0287  0.1110
 7791W        W25995   1.306   8.547   4.130 -0.2918 -0.1816  0.0877
 7792W        W25996   3.327   5.463  12.204  0.1554 -0.1923 -0.0360
 7793W        W25997   0.746  12.184  12.543 -0.0701  0.1538 -0.1716
 7794W        W25998   4.734  12.691  14.554 -0.1567 -0.0601 -0.1336
 7795W        W25999   1.620   6.312   2.102  0.0263 -0.2554  0.1609
 7796W        W26000   6.300   3.352  10.256  0.0917  0.3898  0.1999
 7797W        W26001   3.130   1.476   2.694 -0.0390 -0.2181 -0.0314
 7798W        W26002  13.637  10.649   3.209  0.3839 -0.1288 -0.0329
 7799W        W26003   2.260  16.576   4.068  0.2081  0.2271 -0.0046
 7800W        W26004   5.793  11.844   2.638 -0.0096  0.2516  0.0782
 7801W        W26005   6.569   2.321  12.292  0.1245  0.4164  0.0585
 7802W        W26006   1.583  15.421  12.586 -0.0313  0.4378  0.3138
 7803W        W26007  11.589   0.398  12.502 -0.1672  0.2972  0.2727
 7804W        W26008  11.257   9.894   0.607  0.0013  0.1080 -0.0119
 7805W        W26009   4.260  17.215   0.680 -0.0396  0.0167 -0.3638
 7806W        W26010   5.184   4.918   1.074  0.1599  0.3005 -0.1571
 7807W        W26011   3.179   7.532  14.114  0.2049  0.0032  0.2849
 7808W        W26012   5.940  18.528   2.884  0.0378 -0.2929  0.1428
 7809W        W26013   5.438  11.914   2.208  0.0683 -0.0669 -0.0609
 7810W        W26014  18.663  18.140  12.697  0.0284 -0.0259  0.1705
 7811W        W26015   1.304   3.994   0.872 -0.0616 -0.3558  0.0262
 7812W        W26016   3.848   0.021   1.777  0.1970  0.1088  0.1669
 7813W        W26017  17.333  13.391  11.621  0.0195 -0.1347  0.2989
 7814W        W26018   2.774  18.069   5.289 -0.0253  0.1770  0.0227
 7815W        W26019   4.307   7.503  13.408  0.2678 -0.3482  0.0632
 7816W        W26020  18.515   8.919  10.686  0.1740  0.0671 -0.1112
 7817W        W26021  16.779  18.259   0.862  0.1029 -0.0942 -0.0163
 7818W        W26022  17.170   0.793  12.092 -0.0122  0.0521  0.1241
 7819W        W26023   5.091   5.235   4.857 -0.1237 -0.2311 -0.1413
 7820W        W26024   3.244   9.254   3.192 -0.0244 -0.2421  0.1013
 7821W        W26025   2.855   1.698   4.123  0.0367 -0.1416  0.0481
 7822W        W26026   2.521   4.594   0.504 -0.1865  0.0070 -0.2380
 7823W        W26027  12.767   2.089   3.036 -0.0862 -0.0889  0.0681
 7824W        W26028   5.276   8.624   3.107  0.1892  0.0156 -0.1354
 7825W        W26029  10.989   2.423   2.822 -0.0677  0.4640 -0.2703
 7826W        W26030  16.278  17.770   1.095  0.1932  0.2182 -0.1525
 7827W        W26031  15.695   9.499   4.046 -0.1124  0.1777  0.2205
 7828W        W26032  11.788  10.995   0.055  0.0355 -0.1793  0.0060
 7829W        W26033   6.403   9.599   3.752 -0.0097  0.3256 -0.1175
 7830W        W26034  11.967   5.726  12.149 -0.2394  0.3635  0.2076
 7831W        W26035   6.594   4.029   0.621 -0.2941  0.1163 -0.1158
 7832W        W26036   3.334  12.890   0.717 -0.2337  0.2702  0.0312
 7833W        W26037  12.047  18.327  13.141 -0.3484 -0.2679  0.0286
 7834W        W26038  10.132   0.580   4.235  0.0666 -0.1224 -0.1893
 7835W        W26039  14.343  16.572   4.021 -0.0675 -0.1243  0.0695
 7836W        W26040  11.774  18.888  13.514  0.2817  0.3425 -0.0218
 7837W        W26041  17.376   7.464  11.610  0.0202 -0.0588  0.0365
 7838W        W26042   0.125  15.816   1.947  0.4424 -0.1982 -0.0572
 7839W        W26043  14.298  13.850  14.438  0.1455  0.2664 -0.1449
 7840W        W26044  10.064  14.569  11.009 -0.1433  0.0562 -0.1288
 7841W        W26045   9.352  15.037   1.571  0.1231 -0.0356  0.1062
 7842W        W26046  11.098   8.971   2.143  0.2446 -0.3458  0.1593
 7843W        W26047  13.196  17.923  11.889 -0.0249 -0.2484 -0.0463
 7844W        W26048   9.425   3.201  13.491 -0.1735  0.1595 -0.2592
 7845W        W26049  18.532  13.423  10.385  0.0831 -0.3687  0.1581
 7846W        W26050  18.313   5.817  13.033 -0.0090  0.1768 -0.1356
 7847W        W26051  11.433  18.806  12.051  0.0066 -0.1118  0.1676
 7848W        W26052  13.477  11.721  14.471 -0.0119 -0.1417 -0.3274
 7849W        W26053  18.192  17.798  11.064  0.3097 -0.1130  0.0340
 7850W        W26054   9.181   6.800   3.733 -0.3055 -0.1152 -0.2804
 7851W        W26055  18.566  15.395  11.292  0.1915 -0.5530  0.2613
 7852W        W26056   1.825  12.470  14.361 -0.0935  0.1217  0.1977
 7853W        W26057   5.352  16.692   0.155 -0.1230 -0.1451 -0.2302
 7854W        W26058   6.236  13.432  12.749  0.0675 -0.0521 -0.1045
 7855W        W26059   7.624   3.274  12.378 -0.0162 -0.0061  0.3101
 7856W        W26060   3.583   1.568   4.730  0.0516  0.0030  0.0068
 7857W        W26061  11.013  15.293  14.877  0.2411  0.0136 -0.3172
 7858W        W26062   1.653  11.025  11.244 -0.0182 -0.1391 -0.0297
 7859W        W26063  12.781  13.683   0.477  0.0708 -0.1804  0.2162
 7860W        W26064   3.112   0.709   1.248  0.6415  0.3447 -0.0251
 7861W        W26065   2.815   5.502  10.746  0.3530 -0.0015 -0.2053
 7862W        W26066   5.426   2.799  14.044  0.0172  0.1257 -0.0902
 7863W        W26067  18.474  14.538  14.208 -0.0834 -0.0854 -0.1172
 7864W        W26068  11.695  12.738  12.516  0.2125  0.3242  0.0137
 7865W        W26069  15.061  12.561   1.885 -0.0053 -0.0959  0.2248
 7866W        W26070  17.916   3.327   1.944  0.0963  0.0720 -0.1141
 7867W        W26071   3.392  18.596  14.813  0.1019  0.1837  0.4840
 7868W        W26072   4.475  11.964   0.137 -0.1233 -0.1206  0.1635
 7869W        W26073   1.172   4.221   3.741 -0.0012  0.0739  0.0431
 7870W        W26074  15.078   0.824   4.194  0.0009  0.0243 -0.1568
 7871W        W26075  17.332  10.625   4.264 -0.1479 -0.0386  0.1372
 7872W        W26076   4.712  18.577  11.474 -0.0019 -0.2532  0.1967
 7873W        W26077  18.534   4.214  12.714 -0.1888 -0.0135 -0.1549
 7874W        W26078  13.175  11.314  12.808 -0.1819  0.0878  0.4365
 7875W        W26079  16.692  11.810   4.440 -0.1318 -0.1166  0.0644
 7876W        W26080   5.067  14.033   3.413 -0.0740 -0.0559  0.1280
 7877W        W26081   3.145  15.575   3.169 -0.2249 -0.3228  0.0614
 7878W        W26082   4.623  14.589   0.384  0.3328  0.6474 -0.1498
 7879W        W26083  11.035  14.916   1.132  0.1367  0.2779 -0.1620
 7880W        W26084   7.937   2.346   0.657  0.0630  0.1562  0.0867
 7881W        W26085  11.796  12.085   2.145 -0.1335  0.0446 -0.3224
 7882W        W26086  10.792   6.234   4.275  0.0579 -0.1379  0.1569
 7883W        W26087   5.031   1.367   4.529 -0.4401 -0.0695 -0.1015
 7884W        W26088  17.824  13.434   1.510  0.3150 -0.0909  0.0833
 7885W        W26089  15.231  10.029   5.178 -0.0882 -0.1469 -0.0277
 7886W        W26090   7.032  14.884  11.809  0.1883  0.0702 -0.0507
 7887W        W26091   0.732   8.347  11.598  0.0907  0.0191 -0.1285
 7888W        W26092   3.269   8.857  11.940  0.3049 -0.1141  0.0266
 7889W        W26093  13.527  10.760   4.001 -0.0628  0.0116  0.2336
 7890W        W26094  15.907   2.932  10.712  0.1762 -0.0488  0.2718
 7891W        W26095   2.041  12.892  14.167 -0.0172 -0.1908 -0.1499
 7892W        W26096  10.231   6.270  13.100  0.1736 -0.3809  0.1799
 7893W        W26097   5.755  18.922   4.365  0.2722  0.1828 -0.0761
 7894W        W26098   3.102  17.226   0.948 -0.1969 -0.1273  0.0013
 7895W        W26099  13.599  15.291   1.579 -0.1783 -0.3083 -0.0416
 7896W        W26100   0.028  16.002   2.561 -0.2204  0.2045  0.0355
 7897W        W26101   4.349  10.377  14.272 -0.0555  0.1237 -0.1967
 7898W        W26102   3.879  12.661   2.081 -0.4603  0.0222 -0.1451
 7899W        W26103   8.458   8.385   0.233 -0.1163 -0.0781 -0.0289
 7900W        W26104  15.019  18.215  12.966  0.0634  0.1433 -0.1114
 7901W        W26105  10.863   6.578  11.320  0.1843  0.0568  0.1683
 7902W        W26106  14.271   8.267  12.543  0.0418  0.1386 -0.2285
 7903W        W26107   7.163   3.481  10.916  0.2780  0.0677 -0.1551
 7904W        W26108   6.973  14.043   1.960  0.0425  0.3393 -0.2096
 7905W        W26109   7.989   6.098  13.989  0.5184 -0.0745  0.1618
 7906W        W26110   4.130   2.765   1.024 -0.0498 -0.0419 -0.2989
 7907W        W26111   2.864  12.920   4.405  0.0272 -0.0826  0.1538
 7908W        W26112  14.777   6.872   2.684 -0.1587 -0.1657  0.0806
 7909W        W26113   2.843  10.159   2.078 -0.3154 -0.1177  0.2085
 7910W        W26114   3.886  16.943  12.756  0.1342  0.0008  0.0507
 7911W        W26115   5.331  11.439   0.813  0.0130 -0.1271  0.1107
 7912W        W26116   9.168   0.287   1.207  0.1980 -0.0163  0.0872
 7913W        W26117  13.712   7.475   1.495  0.1685  0.0211  0.1370
 7914W        W26118  15.056   8.080  13.292 -0.0389  0.0070  0.1064
 7915W        W26119  11.352  17.518   0.266  0.2511 -0.0221  0.1536
 7916W        W26120  12.807  11.693   2.150 -0.3670 -0.2533  0.2249
 7917W        W26121  10.680  10.709   1.595  0.2826 -0.0835 -0.1953
 7918W        W26122  17.044   6.285   0.441  0.0466  0.0388 -0.4110
 7919W        W26123  17.460   9.370  12.946  0.1306  0.0472 -0.0903
 7920W        W26124   0.779  18.865  13.302  0.2316  0.1510  0.1511
 7921W        W26125   9.143   9.916  10.717 -0.0601  0.0709 -0.1765
 7922W        W26126  10.915  15.863  13.038  0.1189  0.1322  0.3583
 7923W        W26127  10.206  11.344   3.570 -0.0885 -0.0124 -0.2055
 7924W        W26128  11.438   5.361  14.366 -0.0709  0.0457  0.0375
 7925W        W26129   6.411   4.593  12.975  0.0168  0.3267 -0.0507
 7926W        W26130  12.907   4.135   3.578  0.0964 -0.1573  0.0867
 7927W        W26131   7.045  18.141  11.576  0.1316  0.1195 -0.1242
 7928W        W26132  11.835   3.036  14.401  0.0772  0.2131 -0.2797
 7929W        W26133  13.164   4.337  12.532 -0.1744 -0.2717 -0.3154
 7930W        W26134   6.462  13.117   1.736 -0.2085  0.2484  0.1122
 7931W        W26135  17.180   9.025  12.544 -0.1263 -0.1118  0.0215
 7932W        W26136   4.492   8.819  12.117 -0.0378  0.3389  0.0600
 7933W        W26137   4.551  10.760  10.917  0.1174 -0.2075 -0.0924
 7934W        W26138  15.758  13.913  14.164  0.3459 -0.3957  0.1529
 7935W        W26139   3.063  15.188   4.448  0.1876  0.1775 -0.0403
 7936W        W26140  11.965  14.463  10.437 -0.1535 -0.2313  0.0787
 7937W        W26141   4.340  15.448   1.443  0.1767  0.3759  0.2129
 7938W        W26142   1.799  15.106  13.766  0.1873 -0.0858 -0.1356
 7939W        W26143  18.069   8.606  10.722  0.0932  0.1119  0.5327
 7940W        W26144  17.935   0.356  13.900  0.0465 -0.0315 -0.0595
 7941W        W26145   2.531  13.451   0.779 -0.1401  0.0223 -0.1232
 7942W        W26146  13.053  15.553   3.890 -0.2444  0.1368  0.3011
 7943W        W26147   3.759   8.873  11.135 -0.0860 -0.0020 -0.0138
 7944W        W26148  14.636  12.072  11.511  0.0154  0.1106 -0.2147
 7945W        W26149  14.462  10.431  13.009 -0.0736 -0.1698  0.4301
 7946W        W26150   0.428   6.844   3.938  0.0589  0.2008 -0.0432
 7947W        W26151  15.912  12.482  12.792  0.1660 -0.1546 -0.0809
 7948W        W26152   2.277  17.514  12.461 -0.1688  0.2612  0.0871
 7949W        W26153  14.042   7.055  11.612  0.0975 -0.0374  0.0335
 7950W        W26154  12.494   6.859   3.930 -0.2017 -0.1954 -0.2304
 7951W        W26155  18.412   9.328  11.265 -0.1201 -0.3406  0.1110
 7952W        W26156  18.325  14.848  12.412 -0.0371 -0.2938 -0.0294
 7953W        W26157   5.512   5.480   1.955 -0.0291 -0.0776  0.0721
 7954W        W26158  17.899   8.796   0.762 -0.1781 -0.0416  0.2390
 7955W        W26159   9.148  16.045   2.058  0.2744 -0.1084  0.1633
 7956W        W26160  14.595   0.813   3.674  0.2157 -0.2945 -0.3863
 7957W        W26161  18.523   6.186  12.697  0.0735  0.0563  0.3771
 7958W        W26162  10.601   6.369  13.905  0.2375 -0.2357 -0.4025
 7959W        W26163  17.929  10.839  10.444  0.2727  0.0580  0.0614
 7960W        W26164  13.105  10.703  14.330  0.1874  0.0548 -0.0777
 7961W        W26165   3.628  17.352   1.015 -0.2262 -0.1853 -0.1447
 7962W        W26166  15.512   8.412   3.165 -0.1672 -0.0454 -0.0991
 7963W        W26167   5.935   8.950   2.870 -0.0969  0.1869  0.0103
 7964W        W26168   4.790   9.800  13.753 -0.3461  0.1904 -0.0699
 7965W        W26169  12.533  18.879  12.369 -0.1653 -0.0473  0.0673
 7966W        W26170  15.440   5.925   0.850 -0.4235 -0.0522  0.0227
 7967W        W26171   9.010   5.021  11.888  0.0119 -0.0703  0.2742
 7968W        W26172   7.432   7.085   4.938  0.0283 -0.4461  0.1199
 7969W        W26173   3.036   2.919   3.399 -0.1002  0.0278  0.2186
 7970W        W26174  14.397   7.467  13.839 -0.1580  0.2105  0.1455
 7971W        W26175   0.999   3.722  11.755  0.0028  0.1575  0.0957
 7972W        W26176   6.375   5.539  11.745 -0.0905  0.0010  0.1416
 7973W        W26177  13.846   6.952  10.638  0.0068 -0.1945 -0.0660
 7974W        W26178   5.179   4.814   4.587  0.2436  0.1366 -0.2365
 7975W        W26179   2.194  16.592   3.531  0.1506  0.4746 -0.4509
 7976W        W26180   6.731   4.848   4.047  0.0051 -0.0098  0.0215
 7977W        W26181   0.730   0.183  12.340  0.3239  0.1987 -0.1874
 7978W        W26182   1.318  12.113   0.480  0.1028 -0.0093  0.0832
 7979W        W26183  13.517   1.296  10.355  0.2170 -0.0203 -0.2003
 7980W        W26184   7.971   6.408   0.423 -0.0539  0.2304 -0.2066
 7981W        W26185   9.698   6.971   2.264  0.2954 -0.2576  0.0441
 7982W        W26186   5.600  13.240   2.335 -0.0146 -0.0940 -0.1062
 7983W        W26187  10.975   7.058  12.788 -0.1506  0.0266  0.1930
 7984W        W26188   1.627  13.830  12.096 -0.0882 -0.0136 -0.5535
 7985W        W26189   5.016  15.714  14.962  0.3342  0.2642  0.2051
 7986W        W26190  18.140   3.789  12.608  0.4368  0.0469 -0.0210
 7987W        W26191  17.460   2.822   2.736  0.0017 -0.0244 -0.1847
 7988W        W26192  11.742   0.503   0.746 -0.0228  0.0993  0.2523
 7989W        W26193   0.106  11.824  11.814  0.0483 -0.0451 -0.2691
 7990W        W26194   9.773   6.016  13.457  0.0169 -0.0254 -0.0261
 7991W        W26195   0.993  14.091   1.772  0.3311  0.0957 -0.3573
 7992W        W26196   2.580   0.687  13.497 -0.1639 -0.1312  0.3653
 7993W        W26197   0.756   1.864   1.508  0.1491 -0.0268  0.1143
 7994W        W26198   2.053   3.625   2.238 -0.0497 -0.3409  0.1375
 7995W        W26199  13.830   2.695  13.917 -0.0600 -0.1608 -0.3417
 7996W        W26200   7.105  10.525   2.820 -0.1006  0.0633 -0.2129
 7997W        W26201  14.476   3.445  13.737 -0.3052 -0.2551  0.1423
 7998W        W26202   3.671   9.650   3.088 -0.2415 -0.0066 -0.1270
 7999W        W26203   9.365   3.359   2.982 -0.1560 -0.0276 -0.2744
 8000W        W26204  18.948  12.979   1.837  0.2713 -0.1596 -0.3250
 8001W        W26205   2.441   9.884   3.878  0.0546  0.0831 -0.0540
 8002W        W26206   7.458   1.110  11.429 -0.0028 -0.3282  0.0357
 8003W        W26207   3.286   1.897  13.957  0.1739  0.2027  0.3961
 8004W        W26208  15.990   0.332  11.970  0.1989 -0.0907 -0.0822
 8005W        W26209  17.602  18.193   1.545 -0.1779  0.1280  0.1925
 8006W        W26210  12.453   8.739  14.724  0.1810  0.2290  0.2122
 8007W        W26211  12.810   3.735  11.133 -0.2932 -0.1011 -0.0402
 8008W        W26212   3.162  10.607  12.585  0.3527 -0.0317 -0.0520
 8009W        W26213   9.468   3.469  14.045 -0.4035 -0.2172  0.1329
 8010W        W26214   4.035   8.134  12.540  0.0245  0.0370  0.0399
 8011W        W26215   1.355   4.354   1.329 -0.1700 -0.1889 -0.0660
 8012W        W26216   9.713  12.921   0.060  0.0630  0.1989  0.2311
 8013W        W26217   5.155   1.456   1.468  0.4335 -0.1011  0.1241
 8014W        W26218  18.222   4.895   0.069  0.1619 -0.2946 -0.2628
 8015W        W26219   8.271   4.147   3.257  0.1494 -0.1609  0.0648
 8016W        W26220  13.387   5.773   2.861  0.2053 -0.2346  0.1984
 8017W        W26221   9.286  18.526  11.203 -0.1530 -0.0278 -0.2503
 8018W        W26222   5.193   6.063  14.761 -0.3222 -0.1126 -0.2986
 8019W        W26223   5.423  14.301   1.371  0.1923 -0.1526 -0.3478
 8020W        W26224   6.701  12.879   2.753 -0.1698  0.2191  0.0821
 8021W        W26225   8.564  15.257   1.969 -0.1371  0.0064  0.0570
 8022W        W26226   1.556  14.545  14.919  0.0868 -0.1811  0.3272
 8023W        W26227  10.085   5.311  11.288 -0.1153  0.0922  0.1547
 8024W        W26228   2.095  14.618   0.428  0.0342 -0.2031 -0.2415
 8025W        W26229   2.462   7.133   2.776  0.2996  0.0777  0.0869
 8026W        W26230  17.253   4.614   2.598 -0.3033 -0.1413 -0.2116
 8027W        W26231  18.943  17.750   1.675 -0.1743  0.1550 -0.0153
 8028W        W26232  17.907  14.615   1.237  0.1253 -0.0748  0.1239
 8029W        W26233  14.450  10.498   3.591  0.0402 -0.2382  0.0107
 8030W        W26234   7.529  14.551   0.295 -0.0777 -0.0650  0.0287
 8031W        W26235  12.525   2.665   4.062  0.0938  0.1933 -0.0793
 8032W        W26236  14.774  10.372  11.833 -0.2611  0.1648 -0.1140
 8033W        W26237  18.837   3.888   2.640 -0.0790  0.0587  0.0137
 8034W        W26238   1.083  11.786  10.924  0.2216  0.0762 -0.2003
 8035W        W26239  12.522  10.477  12.091 -0.1685 -0.1033 -0.0395
 8036W        W26240  11.925   3.586  13.542 -0.3155 -0.1428  0.1163
 8037W        W26241  14.364   5.220   4.213  0.1527  0.0142 -0.2922
 8038W        W26242  15.432   2.014   2.725  0.0143  0.0380  0.2120
 8039W        W26243   4.014   2.517  14.173  0.2313 -0.0607 -0.1805
 8040W        W26244   0.976  11.731  12.700 -0.2942 -0.2136 -0.1998
 8041W        W26245  15.012   8.110   3.869  0.0200 -0.0972 -0.1405
 8042W        W26246   9.431  16.255   4.574  0.1670 -0.4154 -0.0308
 8043W        W26247   0.835  17.826  11.201 -0.5037  0.1880 -0.1344
 8044W        W26248  13.459   2.930   2.812  0.3374 -0.0167 -0.2890
 8045W        W26249  17.328   8.359   0.143  0.0087 -0.2373 -0.1863
 8046W        W26250   7.030   6.721  12.333  0.1054 -0.0510  0.3076
 8047W        W26251   2.962   2.962   5.012  0.0262 -0.2010 -0.1703
 8048W        W26252   4.469  13.892   4.510  0.0634 -0.0158  0.0717
 8049W        W26253  17.017  10.543   3.474 -0.0633  0.1220  0.1599
 8050W        W26254   6.396  13.294   4.309 -0.0128 -0.1317 -0.0520
 8051W        W26255   0.766  16.505  11.708  0.0140 -0.0477 -0.1807
 8052W        W26256   7.856  13.992  12.674 -0.2365  0.1423 -0.4308
 8053W        W26257  15.841  10.933  14.761 -0.0010  0.5022 -0.1637
 8054W        W26258   3.682  16.641   3.529  0.0933 -0.2160 -0.6312
 8055W        W26259   2.154   6.656   0.030  0.0885  0.3729 -0.4450
 8056W        W26260   9.557   4.284   3.565  0.0937  0.0330  0.0207
 8057W        W26261  14.753   2.126  14.309 -0.2094 -0.0300 -0.1188
 8058W        W26262  16.813   9.901  14.251 -0.2580 -0.2223 -0.1602
 8059W        W26263   6.896   1.190   1.832  0.2117  0.0442 -0.1237
 8060W        W26264   0.555   2.767   4.380  0.0372  0.2165 -0.0920
 8061W        W26265   3.601  18.002   2.928 -0.1130 -0.1435  0.2362
 8062W        W26266  11.414  18.453  12.787  0.3438 -0.0850 -0.0835
 8063W        W26267   2.141   4.318   1.040 -0.3448 -0.1265  0.1176
 8064W        W26268  10.619   2.150   0.842  0.2372  0.1861 -0.2109
 8065W        W26269  12.353   7.862   4.198 -0.0235 -0.0975 -0.3416
 8066W        W26270  11.540  16.473  10.652 -0.0826 -0.0019  0.1103
 8067W        W26271  14.785   0.330   3.379 -0.2149 -0.1997  0.0890
 8068W        W26272   0.945  11.391  13.115  0.1368  0.1823  0.0137
 8069W        W26273   2.280  15.140   0.598  0.2253 -0.0510 -0.2943
 8070W        W26274  15.002  15.447   1.741 -0.1729 -0.0865 -0.0644
 8071W        W26275  11.776  10.609   1.367  0.0347 -0.1343  0.1657
 8072W        W26276  12.393   2.797   2.057  0.0805 -0.2896  0.1518
 8073W        W26277   2.505  11.365   1.101  0.0340 -0.0764  0.1590
 8074W        W26278  13.199  13.193   3.037 -0.0309  0.0097 -0.1093
 8075W        W26279  13.199  11.763  13.966  0.1610  0.0521  0.1193
 8076W        W26280  12.515  11.757   1.462  0.1846 -0.3101 -0.3558
 8077W        W26281  12.525   5.680  13.236 -0.1569  0.0028 -0.0586
 8078W        W26282   5.024   6.344  12.075 -0.1902 -0.1117 -0.0217
 8079W        W26283  14.104   1.248  11.884  0.3152 -0.0748 -0.0193
 8080W        W26284  17.110   7.613   0.461  0.2573 -0.1113  0.1742
 8081W        W26285  18.025   8.976   1.225  0.3847  0.1540 -0.1008
 8082W        W26286   3.655   1.655   2.558  0.0075  0.0194  0.4423
 8083W        W26287  18.483   2.694  12.577 -0.0778  0.1639 -0.2167
 8084W        W26288  10.529  13.175  14.770  0.0609  0.0870  0.0302
 8085W        W26289   9.553  17.896  13.326  0.1518 -0.0755 -0.1659
 8086W        W26290   4.217   0.804  12.971  0.0084  0.2109  0.2076
 8087W        W26291  16.093  16.019   2.498 -0.0232  0.3041  0.3114
 8088W        W26292   0.813  10.364   3.456 -0.2293 -0.0527 -0.2801
 8089W        W26293   3.971   4.764  11.198  0.1301 -0.2082  0.0366
 8090W        W26294   4.760  15.119   2.242 -0.1408 -0.3094  0.1098
 8091W        W26295   3.986   0.551  10.161  0.1126 -0.0413  0.0305
 8092W        W26296  14.673  13.288   1.206 -0.1818  0.4721 -0.0292
 8093W        W26297   4.174   6.398  10.897 -0.3396 -0.1138 -0.0086
 8094W        W26298  14.153   5.411   0.445 -0.1099 -0.0410  0.1265
 8095W        W26299   3.930   9.827  13.977 -0.1631 -0.1317  0.0516
 8096W        W26300   3.161   8.238  12.564 -0.0666  0.1198 -0.2084
 8097W        W26301   3.071  16.792  10.381 -0.2882  0.0575 -0.2183
 8098W        W26302  16.447   6.751  12.159 -0.1508 -0.2070  0.1433
 8099W        W26303   6.433  14.865  14.647 -0.0650 -0.4229 -0.3075
 8100W        W26304  17.820   7.432   3.825 -0.0993  0.3009  0.3157
 8101W        W26305  17.558   9.969  13.976 -0.0139 -0.1417 -0.1564
 8102W        W26306  18.836   1.722   1.364  0.0604  0.0330 -0.0396
 8103W        W26307  18.210   9.899  14.628  0.1699 -0.1319 -0.2414
 8104W        W26308  10.795   5.391   1.751 -0.0964  0.0846  0.0705
 8105W        W26309   1.399  14.509   2.933  0.0470  0.3197 -0.0267
 8106W        W26310   7.210   5.647  13.494 -0.0809  0.0066  0.3310
 8107W        W26311   7.106   2.109  13.233  0.4018 -0.0921  0.0799
 8108W        W26312  15.635  16.251  12.636 -0.0211  0.3367 -0.1142
 8109W        W26313  15.455   0.889   3.891 -0.0552  0.0219 -0.0644
 8110W        W26314  16.106   8.194  14.112  0.0131  0.0890 -0.4838
 8111W        W26315   6.229   2.262  11.375 -0.1218  0.0243  0.0444
 8112W        W26316  16.551   4.848  11.038 -0.0104  0.1842  0.0139
 8113W        W26317  15.642   1.710   2.357 -0.0762  0.1623 -0.1147
 8114W        W26318   4.642   0.941   4.327 -0.1617 -0.0798  0.2235
 8115W        W26319   5.720  14.599  10.708 -0.1605  0.0597  0.4536
 8116W        W26320   1.138   9.939   3.613  0.0031  0.0632 -0.0734
 8117W        W26321  10.828   8.012  10.475 -0.1695  0.1397  0.0250
 8118W        W26322   6.665  10.666  12.762  0.2847 -0.3170  0.3776
 8119W        W26323   5.265   5.379   3.682  0.0710  0.0075 -0.0418
 8120W        W26324   5.962  13.990   4.582 -0.1753  0.0608 -0.4874
 8121W        W26325  17.102   5.647  13.364 -0.1254 -0.3497 -0.0233
 8122W        W26326   0.350  17.395   1.762 -0.0275 -0.0058  0.1398
 8123W        W26327   1.675  17.206   1.711  0.0589  0.1603  0.4185
 8124W        W26328  18.101  17.598  10.491 -0.1749 -0.2311 -0.0777
 8125W        W26329  11.288  16.308  13.260  0.1016 -0.1060  0.0169
 8126W        W26330  16.454   4.178   4.039  0.0313 -0.2251 -0.2624
 8127W        W26331  13.494   7.137   0.492  0.0155  0.1266 -0.3520
 8128W        W26332   4.021  10.777  14.396 -0.3155  0.2531  0.0002
 8129W        W26333   0.708   8.880   0.927 -0.0010  0.1000 -0.0975
 8130W        W26334  13.908  16.307   4.251  0.0729  0.0259 -0.3443
 8131W        W26335  13.949  17.621  13.130  0.1005 -0.2618  0.2071
 8132W        W26336   9.707  17.993   3.084 -0.0477  0.0720 -0.0430
 8133W        W26337  16.664  12.933  12.195 -0.2158  0.4239  0.1287
 8134W        W26338   4.718  12.943   4.551  0.0895 -0.1064  0.0690
 8135W        W26339  14.109   8.292   0.684 -0.0697 -0.2790 -0.1192
 8136W        W26340   8.049  16.176  10.765  0.2913  0.0129  0.0501
 8137W        W26341   3.071  11.637   3.971 -0.1739  0.1183 -0.2253
 8138W        W26342  15.526  14.859  12.987  0.2447 -0.0344 -0.0772
 8139W        W26343  17.043  17.437   1.962  0.3842  0.0328 -0.3418
 8140W        W26344  10.069   3.845  12.631 -0.1536 -0.1032  0.1876
 8141W        W26345  18.476   1.842  10.326 -0.0466 -0.0998 -0.1018
 8142W        W26346  15.007   2.548  12.510 -0.3536 -0.1570  0.0892
 8143W        W26347   5.698   0.123   4.867 -0.0639  0.1168  0.1190
 8144W        W26348   6.235   8.475   0.943  0.0621 -0.0901 -0.0325
 8145W        W26349  15.707  14.922  12.415  0.2326 -0.0028 -0.2231
 8146W        W26350   3.210  16.978   2.115  0.0183 -0.0843 -0.3943
 8147W        W26351   4.047  11.834  11.423  0.0337 -0.0994 -0.1281
 8148W        W26352  17.475  13.040   9.694  0.1074  0.1609 -0.1744
 8149W        W26353   5.312   6.753  14.159  0.3547 -0.0561 -0.1430
 8150W        W26354   4.795   4.206  11.332 -0.2348 -0.2959  0.1076
 8151W        W26355   0.055  18.739   3.911 -0.2164  0.0189  0.0507
 8152W        W26356  10.057   4.180  13.607 -0.1585  0.1709 -0.0148
 8153W        W26357  16.396  16.473  13.385  0.0718 -0.1652 -0.1456
 8154W        W26358   0.199  18.905  12.632 -0.3560  0.0512  0.0303
 8155W        W26359   9.266   3.907  14.563 -0.4612  0.0050  0.0811
 8156W        W26360  16.286   2.237  10.350  0.2295  0.1450 -0.1589
 8157W        W26361   4.805   8.075  11.436  0.1941 -0.4207  0.0868
 8158W        W26362   4.908   1.417   3.954 -0.0320 -0.0466 -0.3334
 8159W        W26363  16.360  15.859   9.928 -0.0319 -0.2777 -0.0959
 8160W        W26364   3.713   4.401  11.421  0.1859 -0.5111 -0.0361
 8161W        W26365   2.611   7.662  10.759 -0.3178  0.0510 -0.0149
 8162W        W26366  15.036   3.122  14.577  0.1555 -0.1102  0.5076
 8163W        W26367  15.597  14.587   3.306 -0.1843  0.1328  0.1381
 8164W        W26368  10.998   3.153   4.678  0.0904  0.1734 -0.1872
 8165W        W26369   1.195   4.979   0.241 -0.2795 -0.0190  0.0971
 8166W        W26370  14.837  12.423   0.229 -0.1571  0.1097 -0.0040
 8167W        W26371   6.929   5.396  11.819  0.5103  0.0292 -0.1068
 8168W        W26372  11.938   5.658  12.645  0.0189 -0.2760 -0.0921
 8169W        W26373  14.765  14.798   2.315  0.0399 -0.1244 -0.0635
 8170W        W26374   3.237  16.247  12.523 -0.2865 -0.0375 -0.1212
 8171W        W26375  14.386  11.197   4.221 -0.1555  0.1788  0.0270
 8172W        W26376  14.893   6.456   2.441  0.2640 -0.2045 -0.1669
 8173W        W26377  11.973   9.758  11.556  0.0739  0.0291 -0.1471
 8174W        W26378  14.822   0.722   2.283  0.1650  0.1152  0.1679
 8175W        W26379   1.647  13.279  11.118  0.0155  0.0661  0.0964
 8176W        W26380   8.993  11.582  13.386 -0.1417  0.1245  0.1136
 8177W        W26381  15.499  11.487  11.492 -0.0343 -0.3058 -0.0966
 8178W        W26382  11.833   4.601   2.683  0.3111 -0.1114  0.0806
 8179W        W26383  12.095   0.507  14.712  0.0295  0.1146  0.3336
 8180W        W26384   3.290   8.950   0.897 -0.0629  0.2142  0.0358
 8181W        W26385   9.470  17.204  10.682 -0.0336 -0.3308  0.1943
 8182W        W26386   3.490   1.053  14.024 -0.3931  0.0192 -0.2189
 8183W        W26387   6.739  10.309   0.522 -0.2234  0.2405 -0.1267
 8184W        W26388   3.259  14.409  14.187 -0.4215 -0.0307 -0.0613
 8185W        W26389  12.284   2.880  13.916 -0.0954  0.3198  0.0723
 8186W        W26390  18.782   1.566   0.445 -0.4218 -0.0700 -0.1930
 8187W        W26391   6.709  13.988   4.158  0.2178  0.2222  0.1536
 8188W        W26392   5.083   8.542  13.041  0.2616 -0.0272  0.0346
 8189W        W26393  11.982  13.634   2.879  0.2966 -0.0212  0.0627
 8190W        W26394  16.697  15.161   2.609  0.0955 -0.1230 -0.0299
 8191W        W26395  14.113  12.358   1.298  0.0436 -0.3061 -0.1104
 8192W        W26396  11.756   7.344   0.689 -0.0008  0.0349  0.1549
 8193W        W26397   6.795  18.697  13.713 -0.2125  0.2998  0.3802
 8194W        W26398   1.022   8.530  12.434 -0.1096 -0.1303  0.1790
 8195W        W26399  16.871   1.999   4.176 -0.1260  0.1966 -0.2097
 8196W        W26400   7.322   8.152   5.532 -0.0019 -0.0248 -0.2276
 8197W        W26401   3.606  12.958  12.361 -0.2508 -0.0957 -0.0879
 8198W        W26402   6.855  10.488   9.874 -0.0915  0.0734 -0.0925
 8199W        W26403   2.348  15.897  11.202 -0.0784 -0.0852  0.1576
 8200W        W26404  11.573   1.866   0.040 -0.0100 -0.1840  0.0694
 8201W        W26405  16.738  10.657   2.858 -0.1051 -0.1653  0.0094
 8202W        W26406   7.863   0.853  11.496  0.1032 -0.3017 -0.1291
 8203W        W26407   3.439   3.662  11.620 -0.0644  0.0741  0.1034
 8204W        W26408  15.729   3.383  10.471  0.3163  0.3100 -0.2317
 8205W        W26409  12.397  12.305  11.491  0.1488  0.0085  0.0390
 8206W        W26410   0.836  12.447  13.484  0.1396  0.0288 -0.0451
 8207W        W26411   1.838   1.929  11.649 -0.1541  0.1089 -0.2587
 8208W        W26412   6.501   5.912   2.639 -0.0576  0.1697  0.0561
 8209W        W26413   3.106   5.159   4.603  0.2570 -0.0643  0.0306
 8210W        W26414   7.489  17.482   0.668  0.2024  0.3048  0.1922
 8211W        W26415  15.233  18.185   2.084 -0.2678  0.4652 -0.0534
 8212W        W26416   4.905   0.648  12.527  0.3675  0.2200  0.0059
 8213W        W26417   1.679   2.208   2.046  0.0679  0.2347  0.0914
 8214W        W26418   4.388   0.826  12.421  0.1879  0.1358  0.0724
 8215W        W26419   6.406   5.056   4.341  0.1001 -0.1316  0.1345
 8216W        W26420   7.989   0.263   2.070 -0.1598  0.2837  0.0405
 8217W        W26421   4.880  10.265   3.354  0.1102 -0.0646 -0.0914
 8218W        W26422   4.918   9.990  10.180  0.2030  0.0185 -0.0844
 8219W        W26423   5.372  11.781   0.392  0.1924 -0.2755 -0.0698
 8220W        W26424   9.741   8.256  13.676  0.0560  0.0127  0.1045
 8221W        W26425   1.914  12.870  14.699 -0.0185 -0.0188 -0.1080
 8222W        W26426   9.662  14.790  12.222  0.2565  0.1524  0.1806
 8223W        W26427   6.022   9.772   3.419 -0.1273 -0.0877  0.0247
 8224W        W26428  12.456  12.213   0.161  0.1441 -0.0553 -0.1852
 8225W        W26429   9.702  13.306  13.840  0.1139  0.3451 -0.3435
 8226W        W26430   7.494  10.625   4.299 -0.2250 -0.0301 -0.0162
 8227W        W26431   8.106   0.302  13.165  0.0742  0.0862  0.0467
 8228W        W26432  10.637   5.641   2.235  0.1190  0.0106 -0.0120
 8229W        W26433   9.261   3.460  14.829  0.0816  0.3067  0.0668
 8230W        W26434   2.703   0.692  14.974 -0.1475 -0.2743 -0.0891
 8231W        W26435   1.483  11.694  11.974 -0.0886  0.3267 -0.1256
 8232W        W26436   9.844   9.063   2.645 -0.3178 -0.2303 -0.2206
 8233W        W26437  16.574  10.099   4.643  0.1561  0.2177  0.0659
 8234W        W26438   8.071  15.170   4.145 -0.2752  0.1286 -0.0414
 8235W        W26439  12.017   9.944   3.891  0.2629 -0.1096  0.2985
 8236W        W26440   8.360   9.783  13.877  0.0386 -0.4464 -0.1006
 8237W        W26441   6.834  16.249  13.941 -0.1121  0.1125  0.1814
 8238W        W26442   1.505  17.648  13.754  0.0479 -0.0044 -0.0867
 8239W        W26443  12.685  17.980  14.000  0.1617 -0.3367  0.0834
 8240W        W26444   6.831   2.504  13.738 -0.1656 -0.1612 -0.1428
 8241W        W26445  16.824  10.531   4.423 -0.0627  0.0264 -0.1060
 8242W        W26446  16.265   7.522   3.704 -0.1239  0.1048  0.0298
 8243W        W26447   3.027   6.490   4.050 -0.1358 -0.0795 -0.1424
 8244W        W26448  16.121   3.233   1.487 -0.4378 -0.1616 -0.0242
 8245W        W26449   6.468  16.438   4.810  0.0840  0.0678  0.3365
 8246W        W26450   8.652  17.371   0.021  0.0156  0.1985  0.1156
 8247W        W26451   3.955   3.252   1.180 -0.0325  0.0597 -0.1102
 8248W        W26452  10.499   2.609  11.650 -0.1057 -0.0885  0.0283
 8249W        W26453   9.227  14.779   3.322  0.2301  0.2406  0.2830
 8250W        W26454  13.396   4.199   3.637  0.0851 -0.0137 -0.1436
 8251W        W26455  14.254   4.116  11.885  0.0693 -0.3572 -0.2826
 8252W        W26456   3.555   3.073   1.486 -0.1017 -0.1218  0.1035
 8253W        W26457   7.776   4.815  13.746 -0.0956  0.0370 -0.1002
 8254W        W26458  14.172  10.840  12.417  0.0556 -0.2726  0.0300
 8255W        W26459  13.594  18.910  13.798  0.1133 -0.0814  0.1928
 8256W        W26460   7.067   7.866  10.361  0.3539 -0.0329  0.0853
 8257W        W26461   7.274   9.829  12.231  0.1144 -0.2431  0.4034
 8258W        W26462   4.396  11.523   3.648  0.1050  0.3065  0.2011
 8259W        W26463  10.201  13.927   1.487  0.0872 -0.0917  0.2622
 8260W        W26464   7.141   9.966   9.801 -0.1105 -0.0597 -0.1099
 8261W        W26465   4.700  11.504   1.959 -0.0498  0.1583 -0.0394
 8262W        W26466  12.937   5.705   2.564 -0.0564  0.2004 -0.0275
 8263W        W26467   7.154  16.060   2.108  0.0817 -0.0285  0.2091
 8264W        W26468   4.213  14.809   1.426  0.0266  0.1542  0.0810
 8265W        W26469  11.667   7.782  11.356 -0.1466  0.1400 -0.1149
 8266W        W26470   0.172   0.617   4.628 -0.2353 -0.1723  0.0220
 8267W        W26471   3.511   6.769   4.740  0.0884  0.3758 -0.2263
 8268W        W26472  13.869   7.991   2.832 -0.0235  0.1163 -0.0400
 8269W        W26473   3.989   0.926   3.571  0.1302  0.0288  0.1553
 8270W        W26474   9.678  13.485   3.778 -0.3316 -0.2351  0.0317
 8271W        W26475   6.508   4.841  14.829 -0.4292 -0.2406 -0.2263
 8272W        W26476  18.107   1.275   0.903 -0.0712  0.4578  0.0206
 8273W        W26477   3.619   6.262  12.659  0.1078  0.0093 -0.0604
 8274W        W26478  15.383   7.790   2.583  0.0580  0.0889 -0.3189
 8275W        W26479   3.988  15.665   0.910  0.0191  0.0430  0.2407
 8276W        W26480   1.161  17.410  10.251 -0.0986  0.0861 -0.3231
 8277W        W26481   6.344  10.273  11.676 -0.2665 -0.0058  0.1694
 8278W        W26482   2.030   1.253   3.209 -0.0227 -0.2352  0.2707
 8279W        W26483  11.070   7.437  10.992 -0.4281  0.3893  0.0634
 8280W        W26484  11.723   5.614   3.178  0.2321  0.0657 -0.0342
 8281W        W26485  15.679   6.915   5.396  0.1209 -0.1359  0.4743
 8282W        W26486   1.132   0.318   2.838  0.2439  0.1488 -0.0012
 8283W        W26487  13.961  16.287  14.077  0.1337 -0.0450  0.1017
 8284W        W26488   2.012   8.099  14.054 -0.1427  0.0281 -0.0509
 8285W        W26489  14.380   3.633   1.318  0.3962 -0.0640 -0.1440
 8286W        W26490   5.470   7.629   3.998 -0.1462 -0.0956 -0.0523
 8287W        W26491   0.964  17.952  11.757 -0.1710  0.0904  0.3082
 8288W        W26492   0.582  10.072  14.470  0.2343 -0.0848  0.0455
 8289W        W26493  13.505   0.874   3.437  0.0411  0.1840 -0.1920
 8290W        W26494  10.467   3.113  11.539  0.4009  0.2552  0.1329
 8291W        W26495   8.577   7.904  14.936 -0.1081 -0.0753  0.1962
 8292W        W26496   5.825   6.458  12.666 -0.0493  0.2129 -0.0618
 8293W        W26497  13.602   0.370  10.355  0.3424  0.3487 -0.0771
 8294W        W26498   2.428   5.726   3.483 -0.0899  0.1953  0.1940
 8295W        W26499   4.491   6.330   3.791 -0.0524 -0.2970 -0.1323
 8296W        W26500   8.886  14.210   3.080  0.1646 -0.3347  0.2441
 8297W        W26501   6.320  14.253   1.481  0.0616  0.3039 -0.0453
 8298W        W26502   6.931   4.908   4.940 -0.1650  0.0000  0.0511
 8299W        W26503  17.304  18.955  12.665  0.1747 -0.0109 -0.3213
 8300W        W26504   7.674   5.576   3.384 -0.0790 -0.0600  0.0841
 8301W        W26505   7.489  14.421   3.041 -0.0081 -0.0125 -0.0526
 8302W        W26506  16.976   4.640  14.582  0.2641  0.1221  0.1347
 8303W        W26507   7.562  14.458   2.487  0.1497  0.3926 -0.1969
 8304W        W26508  16.718   6.764  12.999 -0.1109 -0.0620 -0.4045
 8305W        W26509  18.601   4.955   3.892  0.3207 -0.0390 -0.0819
 8306W        W26510  17.097   8.303   4.080  0.1005  0.2262 -0.2403
 8307W        W26511  14.435  14.001  12.501 -0.0235 -0.0486 -0.0296
 8308W        W26512   2.895  18.926   0.547 -0.1102 -0.0004 -0.0558
 8309W        W26513   6.308   7.894   0.844 -0.1250 -0.0106 -0.0005
 8310W        W26514  10.005   9.131  10.938  0.0159 -0.2754 -0.1689
 8311W        W26515   0.468   2.240  11.069 -0.0081  0.0379  0.0607
 8312W        W26516  13.601  10.314  10.262 -0.0753  0.0978  0.2428
 8313W        W26517   7.854  17.173   0.548  0.1421  0.0942  0.2948
 8314W        W26518   1.134   9.506  11.421 -0.1884  0.2925  0.3819
 8315W        W26519  11.960   0.901   3.383 -0.0425 -0.0503  0.0684
 8316W        W26520   0.959   6.324  11.472  0.2003  0.3561  0.0258
 8317W        W26521   5.107   5.101  13.994 -0.0992  0.0392  0.1463
 8318W        W26522   2.733  17.541   0.492 -0.1625  0.0937 -0.0410
 8319W        W26523  12.989   9.772  13.947 -0.3700  0.2290 -0.3204
 8320W        W26524   9.256   4.719  14.830  0.1401  0.2628  0.2313
 8321W        W26525  18.696   2.049  11.380  0.0209 -0.3708 -0.2721
 8322W        W26526  13.925  11.330   1.623 -0.1136 -0.1140  0.3268
 8323W        W26527   7.452   1.656  11.501 -0.0161 -0.0101  0.1788
 8324W        W26528  16.514  10.689  12.739 -0.1482 -0.2101 -0.0830
 8325W        W26529  10.215  13.122   0.081 -0.0496  0.1241 -0.0737
 8326W        W26530  17.648   9.323   4.320 -0.0195 -0.0591  0.3249
 8327W        W26531   7.517  10.775   3.405 -0.4096 -0.1134  0.3154
 8328W        W26532  17.411  13.813   4.066  0.2571 -0.0767 -0.1842
 8329W        W26533   2.755   2.179   1.892  0.0741  0.0095 -0.4195
 8330W        W26534   3.771   2.896  14.489 -0.0753 -0.1758  0.0205
 8331W        W26535  10.187   9.427  13.367 -0.0564  0.2134 -0.0476
 8332W        W26536   5.894   4.412  11.722 -0.3560  0.3017  0.4347
 8333W        W26537  11.857  16.519  12.946 -0.0331  0.3944  0.0251
 8334W        W26538   1.151   9.428   4.125  0.0582 -0.1204  0.3947
 8335W        W26539   2.472  16.162   3.304  0.4198 -0.0213 -0.4529
 8336W        W26540  14.927  11.369  11.244  0.0094 -0.2307  0.2755
 8337W        W26541  16.085  14.865  11.854 -0.0857  0.0134  0.0203
 8338W        W26542   5.774   1.040   2.640 -0.3519 -0.1699  0.0424
 8339W        W26543  13.331   1.205  14.212  0.1846  0.3570  0.0260
 8340W        W26544   9.133   9.867   0.916  0.2926 -0.4664 -0.1608
 8341W        W26545   6.336   9.236   4.650 -0.0157  0.1756 -0.0190
 8342W        W26546   9.983   9.214   1.140  0.0609  0.0238 -0.0478
 8343W        W26547   6.670   5.471  13.386  0.1942 -0.3593  0.0212
 8344W        W26548  18.682   5.730  11.365  0.0715 -0.1264 -0.2301
 8345W        W26549  15.928  16.989  11.816 -0.0193 -0.1392  0.2012
 8346W        W26550   1.679   5.448  11.137 -0.0219 -0.1212 -0.0769
 8347W        W26551  17.656   1.473  13.655  0.0521 -0.2111  0.0609
 8348W        W26552   6.750  15.301  13.005 -0.0694 -0.1789  0.1215
 8349W        W26553  18.558  13.634   1.003  0.0210  0.1333 -0.1324
 8350W        W26554  17.165   9.493   4.381 -0.1859  0.1452  0.3117
 8351W        W26555   0.758   5.890   2.477  0.0091 -0.0146  0.2399
 8352W        W26556  16.705   7.804  11.039 -0.0434  0.3973  0.0915
 8353W        W26557  10.634   8.618  11.105 -0.1502  0.0894  0.3459
 8354W        W26558   4.685   1.180   0.664 -0.1251 -0.0924  0.1280
 8355W        W26559   5.934   5.423   0.873  0.2182  0.0955  0.0919
 8356W        W26560  15.039   9.848  12.062 -0.4426 -0.1537 -0.2339
 8357W        W26561  16.515   1.539  11.155  0.3407  0.1805 -0.1240
 8358W        W26562  18.376  13.570   4.131  0.3663  0.3352  0.0868
 8359W        W26563   3.886   5.495   0.390 -0.3514 -0.1135 -0.1478
 8360W        W26564  17.824  14.824  14.829  0.1539 -0.0546 -0.4272
 8361W        W26565  18.443   0.624  12.732  0.4451  0.4096 -0.0655
 8362W        W26566   8.404  14.170   2.911 -0.1001  0.0393  0.0025
 8363W        W26567  13.579   7.575  11.885  0.1592 -0.2306  0.0954
 8364W        W26568   9.478  14.361   2.975  0.1627 -0.2108 -0.0563
 8365W        W26569   0.959   0.509   1.329  0.2034 -0.0738  0.3652
 8366W        W26570   4.452  12.748  11.697 -0.0376  0.2438  0.1404
 8367W        W26571  16.897  17.938  14.096  0.0716 -0.1005  0.3448
 8368W        W26572   2.330   1.565  11.826  0.1209  0.1288 -0.1319
 8369W        W26573   7.114   4.517   3.323 -0.0395 -0.4135 -0.1384
 8370W        W26574   6.348  16.137   2.475  0.1874  0.2692 -0.1830
 8371W        W26575   2.110   4.527   3.009 -0.3040 -0.1609  0.3001
 8372W        W26576  10.849   3.122  15.013 -0.0332 -0.2491  0.2114
 8373W        W26577   1.786  18.780   3.420  0.2247  0.2940  0.2007
 8374W        W26578   2.067  18.401  13.742  0.1854  0.0622 -0.1839
 8375W        W26579  15.562  14.469   0.599  0.0846  0.0555  0.1565
 8376W        W26580   2.102  17.299   1.074  0.0972  0.0419  0.0637
 8377W        W26581   3.179  10.257  12.192  0.1718 -0.2159  0.1807
 8378W        W26582  17.724   4.931   2.663  0.3704 -0.1282  0.1148
 8379W        W26583   5.900   1.264   3.408  0.1960 -0.0420 -0.1470
 8380W        W26584   5.287   5.296  12.158  0.0685 -0.2550 -0.0352
 8381W        W26585   8.877   0.374   2.834  0.0787  0.0106 -0.1603
 8382W        W26586  13.619  11.390  14.131  0.3769  0.2580 -0.0086
 8383W        W26587  15.145   5.567  13.403  0.0132 -0.3087  0.2080
 8384W        W26588   4.824  12.921  10.941  0.0024 -0.3000 -0.0882
 8385W        W26589   7.692   7.249   0.460 -0.1477  0.0699  0.0850
 8386W        W26590  14.585  13.700  11.421  0.0402  0.1286 -0.0286
 8387W        W26591   9.418  10.537   4.200 -0.0807 -0.2197  0.3925
 8388W        W26592  15.252  16.795  13.089  0.1357  0.2206  0.0978
 8389W        W26593   3.689   6.552   2.885  0.3991 -0.3521 -0.1252
 8390W        W26594   8.690  10.626  12.898  0.0032  0.3936 -0.0671
 8391W        W26595  11.179  16.931   1.033  0.2407  0.2553  0.0434
 8392W        W26596  12.005   5.381   1.309  0.2247  0.1125  0.1466
 8393W        W26597   7.321  18.690   1.489  0.1652  0.2386 -0.0657
 8394W        W26598   9.768  14.509   5.122  0.2388 -0.0449  0.2813
 8395W        W26599   1.372  16.923   2.626 -0.0497  0.3268  0.2504
 8396W        W26600   7.842   3.548   2.728 -0.1658  0.5708  0.0970
 8397W        W26601   6.845   2.645   3.881  0.0816 -0.0311  0.2701
 8398W        W26602  18.917  10.775  10.875  0.1703 -0.0896 -0.1470
 8399W        W26603  14.518  11.776  10.619 -0.1450  0.0642 -0.0542
 8400W        W26604  13.624   8.880   2.944 -0.1750  0.0696  0.3017
 8401W        W26605  14.034  11.683   9.800  0.2610  0.0498 -0.2386
 8402W        W26606   9.767   4.333  10.867 -0.0064  0.0305  0.0644
 8403W        W26607   3.566  11.356  13.157  0.0626 -0.0498 -0.3875
 8404W        W26608  11.818   7.648  14.880 -0.1038 -0.2105  0.1681
 8405W        W26609  11.510   7.814  14.479  0.1143 -0.1203 -0.1277
 8406W        W26610  14.481  15.156  12.342 -0.3280  0.1769  0.0874
 8407W        W26611   2.422  12.199  11.755 -0.2170  0.0755 -0.0985
 8408W        W26612  10.777  12.650  11.577  0.1009 -0.3175 -0.2282
 8409W        W26613   2.566  11.824   3.971  0.4499  0.0083  0.0882
 8410W        W26614  10.619   2.388  10.291  0.1490 -0.1772  0.0873
 8411W        W26615  15.083  13.276  12.984  0.1679 -0.0345 -0.2174
 8412W        W26616   3.134   3.010   2.886 -0.0755 -0.0057 -0.1439
 8413W        W26617   8.226  13.811   3.227 -0.3995  0.0576  0.3516
 8414W        W26618  11.023  11.069   1.922 -0.1979 -0.1005  0.0238
 8415W        W26619  13.081  10.810   1.915 -0.0848  0.0100 -0.0454
 8416W        W26620  13.296  16.456   1.415  0.1070 -0.1282  0.0653
 8417W        W26621  16.677   2.491   1.573  0.1458  0.1197  0.7956
 8418W        W26622  14.643   8.830   0.864  0.0008  0.0814 -0.1574
 8419W        W26623  14.703   9.102   1.722  0.1153 -0.0300  0.4888
 8420W        W26624  16.044  17.325   3.839 -0.1708  0.1850 -0.0814
 8421W        W26625  15.816   2.007  14.888 -0.0781 -0.0976  0.0698
 8422W        W26626   3.765   3.256   3.989  0.1933 -0.2243  0.3516
 8423W        W26627   7.473   9.777   2.337  0.1075  0.1794  0.2025
 8424W        W26628  11.545  16.291   0.707  0.1576 -0.0640  0.1722
 8425W        W26629   2.811  18.460   1.568 -0.1761 -0.0639 -0.0561
 8426W        W26630   3.352  11.321  14.308 -0.1891 -0.1899  0.2838
 8427W        W26631  12.317  18.227  10.801 -0.0138  0.1904 -0.0657
 8428W        W26632   0.569   9.902   3.693 -0.0345  0.0992  0.0006
 8429W        W26633   8.669   6.299  12.534 -0.3541 -0.0684 -0.0075
 8430W        W26634   9.804   7.243  13.297 -0.0933  0.0713 -0.0046
 8431W        W26635  14.060  13.193   4.640 -0.0009 -0.3132 -0.1872
 8432W        W26636  13.032  18.390  12.579 -0.0695  0.2368 -0.1175
 8433W        W26637  10.150  11.509  14.136 -0.0923  0.3158 -0.0544
 8434W        W26638   2.609  14.951   2.674  0.0241  0.4861 -0.1113
 8435W        W26639  17.785  13.177  11.822  0.1603  0.1634  0.1394
 8436W        W26640  12.476  10.464   2.470  0.2222  0.0203  0.3084
 8437W        W26641   8.687   6.952   3.828  0.1254 -0.0003 -0.0471
 8438W        W26642   7.186   3.607   0.357 -0.1559  0.1762 -0.1322
 8439W        W26643   4.800  18.421   0.015  0.0238  0.0617 -0.1646
 8440W        W26644  13.761  18.630  11.888  0.0261  0.1430  0.1135
 8441W        W26645   6.404   6.685  14.615  0.0898 -0.1286  0.2730
 8442W        W26646   9.464   5.409  10.042 -0.0231 -0.1558  0.1637
 8443W        W26647   1.389   7.256   2.353  0.1962  0.2577  0.0316
 8444W        W26648  17.941   4.229   4.437 -0.1941  0.2381 -0.2332
 8445W        W26649   8.216   2.653  10.822  0.0213 -0.0235 -0.2910
 8446W        W26650   9.757   3.774   9.557  0.3040  0.5600 -0.2204
 8447W        W26651  18.014   2.151  14.949  0.2786  0.0257 -0.0392
 8448W        W26652  16.927  10.160  13.280  0.2943  0.1190  0.0930
 8449W        W26653   5.114  12.311   1.284 -0.1649  0.3310 -0.1493
 8450W        W26654  13.053  14.764   0.705 -0.0587  0.2516 -0.0155
 8451W        W26655   5.484   2.087  15.012 -0.0851  0.3969 -0.3111
 8452W        W26656   4.096   7.762  13.904 -0.1632 -0.0620  0.2951
 8453W        W26657   9.679  10.210   2.099  0.3523  0.2281  0.0889
 8454W        W26658  17.758   2.742   9.496  0.0707 -0.0452  0.1021
 8455W        W26659  13.257  18.610   2.727  0.1229  0.0757 -0.0634
 8456W        W26660   5.010   6.807  11.259 -0.0271 -0.1512  0.0642
 8457W        W26661  18.312  16.442   3.582  0.0321 -0.0723  0.1340
 8458W        W26662   3.030  16.509  13.833 -0.2241 -0.3439  0.2229
 8459W        W26663  15.562  17.424   4.268 -0.3856 -0.0681 -0.0554
 8460W        W26664   6.428   6.723  14.037 -0.0427 -0.0406 -0.0475
 8461W        W26665   0.895   3.778   2.504  0.0631  0.1693  0.1714
 8462W        W26666   4.459  18.637   1.344  0.1350 -0.2586  0.1695
 8463W        W26667  13.598  16.375  12.896 -0.2146 -0.0697  0.1587
 8464W        W26668  11.042  17.232  13.962  0.0281  0.3515  0.0280
 8465W        W26669  14.995   7.501   4.589  0.2701  0.2841 -0.1549
 8466W        W26670  12.651   4.526  13.196 -0.4444 -0.2879 -0.2586
 8467W        W26671   0.685  13.523  10.432 -0.3084  0.1588  0.0199
 8468W        W26672   9.122   9.734  13.016  0.1666  0.0415  0.0596
 8469W        W26673  14.930  15.038   2.682  0.1174 -0.0762 -0.0776
 8470W        W26674  11.123   5.685   2.531  0.2957  0.0621 -0.0678
 8471W        W26675  10.197   7.242  12.945  0.1207 -0.0603 -0.2736
 8472W        W26676   6.177   0.642   1.371  0.1179 -0.0380  0.4324
 8473W        W26677  15.124   8.780   3.431  0.1587  0.0935 -0.0292
 8474W        W26678  10.947  13.803   9.691  0.0787 -0.1282  0.1704
 8475W        W26679   1.827  11.861  11.341  0.1085  0.0839  0.0599
 8476W        W26680   8.226   3.334  10.009 -0.3105 -0.0770  0.1661
 8477W        W26681  17.803  11.424   4.079 -0.4496 -0.1848 -0.0840
 8478W        W26682  11.841   0.197  12.930 -0.0654  0.3173 -0.2171
 8479W        W26683   2.275   5.749  13.203  0.2732  0.1031  0.0756
 8480W        W26684   2.142   6.413   4.436 -0.0860  0.2072 -0.0111
 8481W        W26685   7.928   3.666  12.802  0.3463 -0.0358 -0.2039
 8482W        W26686  17.164   3.818  13.632  0.0254 -0.6599  0.4883
 8483W        W26687   6.886  15.523  13.526  0.3391 -0.1698 -0.2902
 8484W        W26688   5.010   8.138   1.073  0.0065 -0.1524 -0.0454
 8485W        W26689   9.224  12.246   3.144  0.0875  0.2513  0.1690
 8486W        W26690   0.898  12.918  11.369  0.3226  0.5289  0.0550
 8487W        W26691   6.942   2.385  14.220 -0.1849 -0.1329  0.1443
 8488W        W26692  10.798  10.044   2.899 -0.2180 -0.0519  0.0130
 8489W        W26693   6.949  12.223  12.070  0.1268  0.1027  0.3241
 8490W        W26694   4.529   5.610  14.836  0.1550  0.1427  0.1089
 8491W        W26695   1.451   8.299  13.110  0.0345  0.0795 -0.0789
 8492W        W26696  14.489   0.314  13.911  0.0905  0.1997  0.1506
 8493W        W26697   7.527   0.224  11.616  0.0749 -0.1070 -0.0041
 8494W        W26698   4.818   1.831   4.263 -0.0118  0.2064 -0.1630
 8495W        W26699   2.901  16.919  13.539 -0.1238  0.1072 -0.3484
 8496W        W26700  13.909  17.527  11.644  0.4391 -0.4100  0.1304
 8497W        W26701   8.441  10.076   2.539 -0.0736  0.1046 -0.2202
 8498W        W26702   7.023   7.967   3.085 -0.0333 -0.4408 -0.1756
 8499W        W26703  16.780   8.194  11.963  0.0638 -0.1190  0.1878
 8500W        W26704   3.596  13.799  12.241 -0.0925  0.2564  0.1088
 8501W        W26705   6.865  11.565  12.346  0.2185  0.0114 -0.0873
 8502W        W26706   7.123  10.820  12.857  0.2531  0.0384  0.2018
 8503W        W26707   5.964   7.078  14.788  0.1597 -0.0342 -0.3323
 8504W        W26708  12.357   9.843   0.334  0.0237  0.0282 -0.1160
 8505W        W26709  13.933  10.496   4.318  0.2597  0.0048  0.0074
 8506W        W26710   7.783  18.512   3.397 -0.1325 -0.0358 -0.2733
 8507W        W26711   1.470  16.089  13.595  0.1286 -0.3605  0.1351
 8508W        W26712  14.758   3.430  12.153  0.2616  0.3845  0.2426
 8509W        W26713   9.447  10.073  11.101  0.2371 -0.1919 -0.0333
 8510W        W26714   2.063  16.489  13.305 -0.2029  0.2479  0.3258
 8511W        W26715  13.047  12.985   3.938  0.0491 -0.0541  0.2450
 8512W        W26716   5.760   7.716   1.166 -0.0824 -0.1418 -0.0743
 8513W        W26717   5.965   7.621  13.020 -0.2431 -0.2821  0.1426
 8514W        W26718   4.704   4.486   3.819  0.0573  0.1695 -0.1099
 8515W        W26719   3.951   3.369   2.723  0.1040 -0.1621  0.1137
 8516W        W26720  12.500   4.377   4.158 -0.7333 -0.1528  0.0903
 8517W        W26721   0.452   7.727  13.559  0.1563  0.2306 -0.1617
 8518W        W26722   4.095  14.134  12.566  0.1041  0.2129  0.1551
 8519W        W26723   6.936  14.623   3.585 -0.0349  0.0503 -0.3526
 8520W        W26724  17.600   9.993   0.602  0.1457 -0.2168 -0.1190
 8521W        W26725   0.847  12.951  13.400  0.2170  0.1804  0.3528
 8522W        W26726  12.339   8.125  14.809 -0.4335 -0.0725 -0.2670
 8523W        W26727  15.621   1.290   4.132 -0.2192 -0.0151  0.2969
 8524W        W26728  17.777   1.197   0.006  0.0678 -0.0194  0.3000
 8525W        W26729  11.310   8.449   2.895 -0.2329 -0.0198  0.2277
 8526W        W26730   9.968  13.233  14.691  0.3534  0.2388 -0.0089
 8527W        W26731   4.815  18.379  11.963 -0.0857  0.0556  0.0939
 8528W        W26732  18.183   5.202   3.909  0.0420  0.1490 -0.0861
 8529W        W26733  12.124  10.848   2.592  0.1892  0.2174  0.1293
 8530W        W26734  14.560  10.120   3.926 -0.0553 -0.1328 -0.5327
 8531W        W26735   9.054  18.944   2.010 -0.3302  0.0836 -0.0228
 8532W        W26736  11.355  16.658  13.677  0.0180  0.0654  0.0478
 8533W        W26737   0.802   1.056   1.024 -0.0303 -0.1815  0.1375
 8534W        W26738  18.610  18.058  11.896  0.0364 -0.3219  0.1586
 8535W        W26739   8.069  15.703  14.954  0.0838  0.1412 -0.0504
 8536W        W26740   6.847   1.072  14.058 -0.2356 -0.1594  0.1517
 8537W        W26741  17.464  10.723  11.190  0.2796 -0.0663 -0.0440
 8538W        W26742  17.489  15.863   0.558 -0.0904  0.4082  0.2358
 8539W        W26743   3.644  13.769   5.552  0.0202  0.4363 -0.2717
 8540W        W26744  18.291  13.453  12.597 -0.1360  0.1062 -0.0337
 8541W        W26745   2.924  11.121   1.822  0.1357  0.1894 -0.1862
 8542W        W26746  15.596   1.200   0.743  0.1698 -0.4036 -0.2062
 8543W        W26747   0.234  18.604   1.239 -0.1686 -0.1253  0.2726
 8544W        W26748  16.981   0.601   5.516 -0.1080  0.0386 -0.0009
 8545W        W26749   0.269   9.837   2.239 -0.0936 -0.2341  0.0467
 8546W        W26750  10.310   9.698   4.241  0.4876 -0.2581  0.2287
 8547W        W26751   7.229   6.513   1.652 -0.1220 -0.1120  0.2002
 8548W        W26752  15.391   8.923   2.985  0.0291 -0.0299  0.1993
 8549W        W26753  13.984   8.805   4.399  0.1540 -0.3003  0.2182
 8550W        W26754   7.314   2.089   2.068  0.2411 -0.0476  0.0757
 8551W        W26755   5.587  15.934  13.658  0.1686 -0.1077 -0.3079
 8552W        W26756  17.366   4.890   2.023 -0.0841  0.0923  0.1731
 8553W        W26757  13.735  15.510  12.938  0.0616  0.0269  0.3186
 8554W        W26758  16.257  10.475  14.148 -0.4930  0.1618  0.1709
 8555W        W26759  16.103   8.826   2.210  0.0277 -0.1964 -0.1288
 8556W        W26760   5.281  17.971  12.265  0.2117 -0.1058 -0.1870
 8557W        W26761   9.623  12.754  14.625 -0.2420 -0.0735  0.0649
 8558W        W26762   0.467   1.705   1.881  0.1885  0.2404 -0.0635
 8559W        W26763   3.168  16.755   1.658 -0.1236  0.0556  0.1403
 8560W        W26764   6.343  13.861  11.159  0.0894  0.0075  0.1395
 8561W        W26765   9.844   6.647  11.294  0.2536 -0.0007 -0.1933
 8562W        W26766  17.033   0.143   2.364  0.1971 -0.2184 -0.2242
 8563W        W26767   3.819   3.281   3.462  0.2465  0.0043 -0.1170
 8564W        W26768  18.936   2.542   4.186 -0.2295 -0.1890 -0.0585
 8565W        W26769  12.321   4.321   1.566  0.2681 -0.2525 -0.1817
 8566W        W26770  18.275   6.317  13.864 -0.0860  0.0910 -0.0176
 8567W        W26771   8.826   5.303  12.726 -0.0223 -0.1337 -0.1191
 8568W        W26772   4.835   7.000   0.587 -0.1689  0.0056  0.1638
 8569W        W26773   8.449   7.849  12.173 -0.0125  0.2317 -0.3685
 8570W        W26774  14.971   7.409  12.524  0.1668 -0.0161  0.1591
 8571W        W26775   2.568   0.694  11.944  0.2679 -0.0761  0.1294
 8572W        W26776   9.652   7.225  12.769 -0.3899  0.0291  0.2020
 8573W        W26777   2.651   6.430   0.258  0.4067 -0.0193 -0.0483
 8574W        W26778  15.844   5.411  12.122 -0.2683  0.1293  0.1117
 8575W        W26779   0.889   0.754   3.509  0.0180 -0.3052  0.1317
 8576W        W26780   3.957  17.272  12.402  0.1886 -0.0002  0.2050
 8577W        W26781   3.458   1.047   1.760  0.0914  0.1260  0.3717
 8578W        W26782   5.590  14.094   0.963 -0.0716 -0.0301 -0.2883
 8579W        W26783   7.001   1.622   1.155 -0.0594  0.1410  0.1045
 8580W        W26784   2.604  17.550  12.836 -0.0090  0.3811  0.1096
 8581W        W26785   0.038   6.408  12.559  0.1176  0.2490  0.1288
 8582W        W26786   1.481  14.209  13.566 -0.0582 -0.0686 -0.0220
 8583W        W26787   6.001  12.255  10.793 -0.0652 -0.1166  0.2476
 8584W        W26788  13.457   3.083   2.282 -0.2629  0.0808 -0.0390
 8585W        W26789   1.865   3.479   3.387 -0.0508 -0.1915  0.0188
 8586W        W26790  13.236  13.833   2.080  0.0177 -0.1779  0.1832
 8587W        W26791  12.254   5.254  10.947  0.2003 -0.1609  0.0369
 8588W        W26792   7.440  14.339   3.609 -0.0772 -0.0273  0.1082
 8589W        W26793   7.654  16.151   3.569 -0.0825 -0.3771 -0.2569
 8590W        W26794  18.484   8.083   3.212 -0.1059 -0.4160 -0.0760
 8591W        W26795  18.825  14.086  12.673  0.1061 -0.1029 -0.1384
 8592W        W26796  15.987   9.658  11.024  0.1366  0.1195 -0.0544
 8593W        W26797   4.495  18.537   3.055  0.1553  0.1475 -0.0587
 8594W        W26798   6.887   3.077   2.873  0.0281  0.4173  0.0918
 8595W        W26799   3.421  17.472  11.459 -0.0938  0.0574 -0.0395
 8596W        W26800  13.588   8.988   2.442  0.0466 -0.1406  0.0585
 8597W        W26801   1.741  13.865  13.791  0.1128  0.3402  0.1308
 8598W        W26802   7.491  17.062  12.150  0.0417 -0.1374 -0.1346
 8599W        W26803  11.727   2.645  12.455  0.3075  0.3018  0.2660
 8600W        W26804  10.135   9.856  11.238  0.0381  0.1789  0.2886
 8601W        W26805  13.263  14.118  11.039  0.0955 -0.1459  0.0095
 8602W        W26806   5.349  13.078   1.894 -0.0430 -0.1192  0.0448
 8603W        W26807   5.081   3.741   2.600 -0.2517 -0.0346 -0.2217
 8604W        W26808   5.233  18.341  13.064 -0.1589 -0.0105 -0.2328
 8605W        W26809  18.635  15.563  12.294  0.0557  0.2358  0.0995
 8606W        W26810   6.250   5.411  14.462  0.0366 -0.2890 -0.0659
 8607W        W26811  13.636   0.235   1.277  0.1938  0.3739  0.2111
 8608W        W26812  14.551  11.099  13.013 -0.1272  0.0826  0.3088
 8609W        W26813   3.791  10.809  10.239 -0.0211 -0.0565  0.1250
 8610W        W26814  14.872   2.939   0.451  0.0298 -0.0619  0.1352
 8611W        W26815   2.901   4.570  13.140 -0.0742  0.1423  0.1333
 8612W        W26816  15.778  18.004   3.484 -0.0121 -0.1841 -0.5154
 8613W        W26817  14.820   3.010  12.408  0.2174  0.2467  0.0964
 8614W        W26818   3.170  15.286   0.596  0.3125  0.2611 -0.1528
 8615W        W26819  11.686  17.850  14.242 -0.0964 -0.2750 -0.1421
 8616W        W26820   5.509   7.758  12.175 -0.2532  0.0263 -0.0967
 8617W        W26821   6.498  10.177  13.459  0.1158 -0.0749  0.1251
 8618W        W26822   3.136  11.623  14.014 -0.0156 -0.2680 -0.1263
 8619W        W26823  17.766  17.682  11.775  0.1409  0.0516  0.1177
 8620W        W26824   5.971  16.949   3.158 -0.0581  0.1792  0.0101
 8621W        W26825   0.590  17.157  12.921  0.0334  0.0561 -0.0420
 8622W        W26826  12.331   7.615  10.622  0.0432 -0.0369 -0.0824
 8623W        W26827   7.223   3.085   3.390  0.0571  0.3159  0.0488
 8624W        W26828   9.127   5.941   1.678 -0.0221 -0.0487 -0.0287
 8625W        W26829   6.536  17.833  14.589 -0.4845 -0.3275  0.1595
 8626W        W26830  17.572  11.912   2.571 -0.0934 -0.2538 -0.1152
 8627W        W26831   7.168  14.503   0.738  0.0580  0.3533 -0.1199
 8628W        W26832  14.830  17.399  13.492  0.0139  0.3554 -0.4136
 8629W        W26833   8.664   8.857  12.062  0.2766  0.2128 -0.2230
 8630W        W26834   7.650   0.085  13.034 -0.0311  0.0199  0.4397
 8631W        W26835   4.540  14.177   1.790 -0.0207 -0.0992  0.1234
 8632W        W26836   2.779  16.528  12.556  0.1321 -0.3646  0.0851
 8633W        W26837   6.503  18.910   3.449 -0.2375  0.3029  0.1017
 8634W        W26838   5.578  17.745   3.536 -0.1085  0.0422 -0.1561
 8635W        W26839  16.735  17.155  14.068  0.3597  0.1532  0.0132
 8636W        W26840   2.774   7.814   0.560  0.0257  0.0390 -0.2250
 8637W        W26841   4.171   6.789  12.137  0.2029 -0.0281  0.2243
 8638W        W26842   7.661  17.965   0.495  0.3501 -0.2302 -0.0731
 8639W        W26843   3.634   7.793   1.968 -0.2367 -0.0726 -0.0822
 8640W        W26844  16.809  17.762   1.153 -0.0367 -0.0280 -0.0626
 8641W        W26845   6.675   7.955   0.367 -0.1694  0.3325 -0.1480
 8642W        W26846   3.290   0.443   1.708  0.1197 -0.1981  0.0235
 8643W        W26847  12.196  10.677   3.047  0.2150 -0.3524 -0.0064
 8644W        W26848   1.158   2.943   1.248  0.1860  0.0587 -0.1880
 8645W        W26849   9.330  10.446   1.763 -0.1440  0.0869 -0.1011
 8646W        W26850  17.600   2.516   4.615  0.0164 -0.1692  0.0206
 8647W        W26851  18.057   5.257  11.858 -0.1000 -0.2499  0.0807
 8648W        W26852   9.306   2.338   0.686 -0.0955  0.1988 -0.0401
 8649W        W26853   6.663   2.632  11.488 -0.1058  0.4066  0.1722
 8650W        W26854  16.633  12.346   0.920 -0.0675 -0.1860  0.0498
 8651W        W26855  16.755   0.046  13.155 -0.1179 -0.1428 -0.0952
 8652W        W26856  18.526   3.981  11.259  0.1637 -0.0886  0.0268
 8653W        W26857   9.259  18.409   0.167 -0.0153  0.1531 -0.4205
 8654W        W26858  12.876   7.720   1.364 -0.1301  0.2686 -0.2522
 8655W        W26859  14.346  17.683  11.930 -0.2171 -0.3537  0.3183
 8656W        W26860  18.379   2.324  10.200  0.1979  0.1127 -0.0917
 8657W        W26861  11.854   9.321  13.217  0.3516 -0.1879  0.1062
 8658W        W26862   8.466   9.163  12.532  0.0108  0.0304  0.0168
 8659W        W26863   8.785  15.109   4.575  0.0912  0.0324  0.3116
 8660W        W26864   8.922  14.771   2.925  0.0296  0.2239  0.1108
 8661W        W26865  13.159  18.223   4.325  0.0136 -0.1633  0.1859
 8662W        W26866  17.706  16.242   5.013 -0.2528  0.1526 -0.1034
 8663W        W26867  15.007   9.884  13.466 -0.1840  0.1464 -0.0956
 8664W        W26868  18.126   1.998  12.609  0.0053  0.0589  0.1957
 8665W        W26869  14.937   3.607  13.700 -0.0186 -0.1093 -0.1394
 8666W        W26870   2.641   3.281   1.138 -0.1504  0.1398  0.0616
 8667W        W26871  11.857   6.645   1.352 -0.3814  0.0922  0.1174
 8668W        W26872   8.876   3.085  11.819  0.3082  0.1048  0.0665
 8669W        W26873   4.100   5.274  11.344  0.0857 -0.0223  0.1040
 8670W        W26874   3.642   8.362  12.251 -0.1818  0.1943 -0.1266
 8671W        W26875   4.523  10.805   2.315 -0.0307  0.0855  0.1716
 8672W        W26876  18.576   7.955   3.937 -0.1466  0.1608 -0.0605
 8673W        W26877   9.813  14.982   5.389  0.1576 -0.1147 -0.0052
 8674W        W26878  11.714   0.502   2.030  0.1906 -0.1800  0.3610
 8675W        W26879   8.276   2.509  14.122 -0.0261  0.0337 -0.3128
 8676W        W26880   7.237   3.817  13.971 -0.3280  0.1387 -0.1883
 8677W        W26881   7.667  15.366  10.887 -0.2178  0.2669  0.0670
 8678W        W26882  12.329   2.880   0.651 -0.0098 -0.3198 -0.2225
 8679W        W26883   1.127  17.887   1.896  0.1254  0.0757 -0.0671
 8680W        W26884   6.399   5.474  10.032 -0.1526  0.2780  0.1071
 8681W        W26885   2.379   9.770   0.242 -0.1194  0.0914  0.0137
 8682W        W26886  17.508   8.812  11.957  0.0197 -0.0824 -0.0427
 8683W        W26887   5.071   5.563   2.348  0.0028 -0.0278 -0.2395
 8684W        W26888  17.170   7.729  11.964  0.2403 -0.2119  0.2005
 8685W        W26889   7.690  14.780   2.202  0.1821 -0.0654 -0.4954
 8686W        W26890  14.471  13.659   2.084  0.0730  0.0966  0.1670
 8687W        W26891  15.614   8.686  12.143 -0.0691  0.0247  0.2116
 8688W        W26892  15.282   2.636  13.563  0.1852  0.2578  0.1122
 8689W        W26893   4.704   3.460   4.907  0.0854 -0.5153 -0.0081
 8690W        W26894   1.152  16.362  13.956  0.0662  0.0117 -0.0778
 8691W        W26895  17.495  17.279   2.160 -0.4718  0.1003 -0.0019
 8692W        W26896  17.404  11.771   3.896  0.0941  0.0093  0.1663
 8693W        W26897  16.491  13.190  11.823 -0.0366  0.0631 -0.1741
 8694W        W26898  16.216   0.921   5.042 -0.0732 -0.4045 -0.0736
 8695W        W26899  16.305   6.646  11.336  0.3453 -0.2300  0.2477
 8696W        W26900   8.048  18.575  10.743  0.1971 -0.2693 -0.2893
 8697W        W26901   9.055  10.223   2.826 -0.3091  0.2438  0.1817
 8698W        W26902   9.961  14.791  14.362 -0.1104  0.0679  0.0603
 8699W        W26903   0.368   4.954  12.851 -0.1685  0.0622 -0.0845
 8700W        W26904  15.983  11.619   2.420  0.0857 -0.1300 -0.0255
 8701W        W26905   1.988   0.355  10.718 -0.3410 -0.1339 -0.1549
 8702W        W26906  10.712  18.029  10.540  0.0948  0.2236 -0.0757
 8703W        W26907   0.572  16.127  13.874 -0.0573 -0.1890  0.2714
 8704W        W26908  13.799   6.691   0.382 -0.0778  0.2473 -0.0544
 8705W        W26909   7.177   4.094  11.283 -0.1719 -0.0018 -0.2859
 8706W        W26910   5.508   2.282  12.258 -0.1960  0.2318  0.1068
 8707W        W26911   6.467   3.702   2.637 -0.1274  0.1061 -0.0013
 8708W        W26912   8.482  11.502   3.398 -0.2194  0.0984  0.0475
 8709W        W26913   6.455   6.276   4.630  0.2780  0.1724 -0.0986
 8710W        W26914  16.983  18.604  15.005  0.2296  0.1833  0.3387
 8711W        W26915   7.338   9.015  11.965 -0.1658  0.2218 -0.2186
 8712W        W26916  14.360  14.301   3.898  0.0382  0.0748  0.1241
 8713W        W26917   9.147   4.928   0.242  0.2000 -0.0878  0.0868
 8714W        W26918  17.938  14.913  11.894 -0.1294 -0.2235  0.2354
 8715W        W26919   0.196   5.460  12.647 -0.1923 -0.1432 -0.3114
 8716W        W26920  16.003   4.143   5.534 -0.1770  0.0494  0.1223
 8717W        W26921   8.616   6.057  12.067 -0.0073  0.1015  0.0368
 8718W        W26922   5.165  13.189  14.019 -0.1112  0.0884  0.0800
 8719W        W26923  17.450   2.959   4.479  0.1778  0.1383 -0.0759
 8720W        W26924   0.718   3.958   0.486 -0.3610 -0.0185  0.3879
 8721W        W26925   6.765   5.708  11.419 -0.0429  0.2860  0.0756
 8722W        W26926   9.442  13.466   3.308 -0.1366  0.0221 -0.2184
 8723W        W26927   1.809  15.259   3.222  0.0341 -0.1390  0.0219
 8724W        W26928  12.943   6.757   3.594  0.3358  0.1022 -0.5987
 8725W        W26929   0.368  11.253   1.765 -0.1881  0.0185  0.0660
 8726W        W26930  14.902   3.246   3.995 -0.0014 -0.0393 -0.1247
 8727W        W26931   1.933  15.793  13.454  0.1684  0.3265  0.0949
 8728W        W26932   5.200   1.365  14.231  0.0324  0.2035  0.0531
 8729W        W26933  13.676  15.395  15.027  0.0752 -0.2627  0.0709
 8730W        W26934   1.813   7.365  14.973  0.1175  0.0451  0.3398
 8731W        W26935  10.564  14.394   2.917  0.2824  0.1275 -0.1359
 8732W        W26936   5.130  14.887   9.918 -0.0477  0.0309 -0.2118
 8733W        W26937  16.166  15.426   3.636  0.0121 -0.2297 -0.0332
 8734W        W26938  15.319   5.635  10.730  0.0734 -0.0067 -0.2465
 8735W        W26939   0.521   4.400   1.184  0.0819 -0.0234  0.2271
 8736W        W26940   5.342   9.769  10.348 -0.0608 -0.0060 -0.2561
 8737W        W26941  12.563   0.560  12.442 -0.1525  0.0916 -0.0443
 8738W        W26942  13.825  12.062   0.195 -0.1351 -0.2154  0.3032
 8739W        W26943   1.167  12.368   0.019 -0.2798  0.2423  0.0997
 8740W        W26944   4.986   6.189   3.002  0.0529  0.0728  0.0500
 8741W        W26945   2.429   3.211  11.150  0.1102 -0.3141  0.1328
 8742W        W26946   5.292   1.873   1.797 -0.1079  0.0511 -0.1373
 8743W        W26947   1.456  12.236  11.922 -0.0430 -0.1690 -0.0297
 8744W        W26948   9.070  12.624   1.324 -0.3331  0.1293  0.2702
 8745W        W26949   7.993   9.205   2.814 -0.1455 -0.1980  0.2990
 8746W        W26950   9.190  14.989  11.351 -0.2007  0.0449 -0.0114
 8747W        W26951  15.717   2.033   1.342 -0.2774  0.1467  0.1684
 8748W        W26952  18.634  16.369  12.699 -0.0834  0.0845 -0.0762
 8749W        W26953   5.941   7.802  10.291  0.1218 -0.2334 -0.0250
 8750W        W26954  16.430  13.728  12.812  0.1178 -0.4784 -0.1471
 8751W        W26955   0.313  18.205  14.142 -0.0045 -0.0618  0.0317
 8752W        W26956  12.645  11.451   5.354  0.1052  0.3136  0.3000
 8753W        W26957   8.705  18.374   3.317  0.3178 -0.0635  0.3283
 8754W        W26958   9.960  13.676  11.353 -0.3593 -0.0167 -0.1158
 8755W        W26959  17.601   8.859   0.258 -0.0887  0.2155  0.1224
 8756W        W26960   3.449   9.735  11.306  0.1928 -0.1712  0.1905
 8757W        W26961   4.837  10.245   0.422  0.0924  0.1714 -0.2917
 8758W        W26962   0.003   0.608  13.028 -0.0583 -0.1720  0.0154
 8759W        W26963  10.912  13.484   2.548 -0.1485 -0.1012 -0.3255
 8760W        W26964  14.551   3.039  14.442  0.2125 -0.0179 -0.2345
 8761W        W26965   1.838   7.696  12.507  0.0542  0.0244 -0.0986
 8762W        W26966  17.769  14.193  10.280  0.1421 -0.1124 -0.2958
 8763W        W26967  16.061   5.564   0.123  0.0448  0.1989  0.2395
 8764W        W26968  13.439  10.145   1.154  0.2671 -0.2202 -0.0613
 8765W        W26969   9.252  18.478   3.635 -0.4713 -0.0829 -0.4533
 8766W        W26970  10.395  17.299   2.864  0.2411 -0.0420  0.1524
 8767W        W26971   6.257   9.589   2.457 -0.1410  0.0363 -0.0591
 8768W        W26972   6.146  12.768   9.980 -0.5574  0.1419  0.1586
 8769W        W26973   2.547   1.513   3.332  0.3550 -0.4744 -0.0641
 8770W        W26974   1.077   9.311   0.455  0.0381 -0.0295  0.2583
 8771W        W26975  11.756   9.470  10.879  0.1390  0.0501  0.1599
 8772W        W26976  13.567  18.325   9.165  0.2418  0.0863 -0.1261
 8773W        W26977  14.370   8.118   2.688  0.1015  0.2475  0.4033
 8774W        W26978   2.022  15.675  12.612 -0.0910  0.0346 -0.2017
 8775W        W26979  18.645  10.782  11.741  0.2448  0.0085 -0.0319
 8776W        W26980  10.569   8.638   0.490 -0.1223  0.1438  0.1390
 8777W        W26981  17.953   6.125   1.607  0.0363 -0.1824  0.0648
 8778W        W26982  12.489  16.324  13.397 -0.1251  0.2124 -0.1031
 8779W        W26983   3.878  13.089   3.162  0.0366  0.4919 -0.0614
 8780W        W26984  15.491  18.057  13.153  0.2531 -0.1514  0.0643
 8781W        W26985  18.909   0.703   0.461  0.1558  0.1116 -0.0664
 8782W        W26986   6.145  12.061   0.266  0.1617 -0.1134  0.0267
 8783W        W26987  17.182  15.319  11.760  0.2227 -0.0827 -0.0674
 8784W        W26988  14.394  18.580   2.278 -0.1335  0.0547 -0.1686
 8785W        W26989   9.850  10.110  14.999  0.5417  0.0042  0.2424
 8786W        W26990   2.792  15.985  14.335 -0.0441  0.0414  0.7063
 8787W        W26991  16.101   3.643  12.213 -0.0903  0.2205 -0.0997
 8788W        W26992  17.604   6.215  12.579  0.0984 -0.3067 -0.2989
 8789W        W26993  12.373   9.002  12.602 -0.1005  0.0475 -0.2625
 8790W        W26994  17.104  17.918   3.964 -0.0042  0.2883  0.1371
 8791W        W26995   8.712  17.039  12.693 -0.1764  0.1248  0.2401
 8792W        W26996   9.402  15.258   2.098 -0.2388 -0.1650 -0.3453
 8793W        W26997   4.459  14.678   0.958  0.4737  0.1329  0.1273
 8794W        W26998   8.592   4.392  10.784 -0.1501  0.0773  0.0620
 8795W        W26999   3.761   4.445   0.361 -0.2342 -0.0684 -0.0897
 8796W        W27000   0.473   5.761  14.416 -0.2393  0.2588 -0.0039
 8797W        W27001   5.896  18.806   3.597  0.0524  0.0014  0.1950
 8798W        W27002   1.629  18.081  13.567 -0.2101  0.1124  0.0181
 8799W        W27003  17.377   3.432  11.917  0.0326  0.0044 -0.0149
 8800W        W27004   0.108   6.759   3.543 -0.2549 -0.2184  0.0609
 8801W        W27005   4.729  17.789   0.397 -0.2172  0.2661  0.1467
 8802W        W27006  11.135  18.001   1.787  0.1251 -0.0219 -0.0305
 8803W        W27007   2.623  16.769   3.709 -0.2648 -0.0549 -0.0280
 8804W        W27008  18.224   2.847   0.267 -0.0095  0.0030  0.3327
 8805W        W27009   3.822   6.454  12.096  0.2063  0.3155  0.1615
 8806W        W27010   3.112  10.481   3.689  0.3539  0.2592  0.1237
 8807W        W27011  15.916   0.120   4.023  0.0986 -0.1391  0.1653
 8808W        W27012   5.409   1.096  10.887  0.3887  0.2567 -0.1241
 8809W        W27013  13.376   7.651   0.626  0.1712 -0.0233 -0.0268
 8810W        W27014   3.406  15.186  13.830 -0.0559 -0.1356 -0.0950
 8811W        W27015   7.408   7.645   0.506  0.0662  0.0837  0.1930
 8812W        W27016   6.714  17.820  14.129 -0.2785 -0.1195 -0.0137
 8813W        W27017   6.382   3.553   0.844  0.0940  0.2378  0.0616
 8814W        W27018   0.830   6.216   0.248  0.1321 -0.0543  0.0283
 8815W        W27019   6.210   3.128  13.051 -0.0543 -0.1949 -0.4144
 8816W        W27020  13.262   7.181  11.928  0.0125  0.0379  0.0597
 8817W        W27021   3.041  15.177   2.784  0.0829  0.1019  0.1706
 8818W        W27022  13.910   9.857   2.620  0.0387 -0.3196 -0.3469
 8819W        W27023   3.999  10.234  12.635  0.3155  0.0587  0.1004
 8820W        W27024   3.347  14.405   0.090 -0.4647  0.0220 -0.0088
 8821W        W27025   6.249   3.585  12.979 -0.1294  0.4030 -0.1387
 8822W        W27026   4.026   2.171  11.908 -0.2509  0.1039  0.1730
 8823W        W27027   8.743  10.712   1.275 -0.1284  0.2370 -0.0345
 8824W        W27028   3.082   4.975   3.609 -0.4145 -0.1467  0.0245
 8825W        W27029   3.113  13.391  10.640 -0.4763  0.0838  0.0928
 8826W        W27030   2.150   4.881  13.915 -0.4537 -0.1995 -0.0343
 8827W        W27031   8.574  10.214  14.174  0.0533 -0.0183 -0.2422
 8828W        W27032   0.139   2.509   2.374  0.2086 -0.0898 -0.1758
 8829W        W27033   4.999  12.523  12.786 -0.3979 -0.3186 -0.0258
 8830W        W27034   5.058   1.429  14.692  0.1168 -0.1519 -0.1559
 8831W        W27035   9.557   1.616  12.721 -0.0194  0.0183  0.2055
 8832W        W27036  11.050   6.618   1.667  0.0224 -0.3283 -0.1649
 8833W        W27037   0.522  11.146   4.724  0.0991  0.6185 -0.1788
 8834W        W27038   8.394  18.177  12.082 -0.0246  0.0771 -0.1686
 8835W        W27039  13.455   1.670   4.035  0.2429 -0.0390  0.0726
 8836W        W27040  10.098  17.272  12.166  0.1764 -0.3082  0.3487
 8837W        W27041  14.499  16.462   1.580 -0.4844 -0.1465  0.3053
 8838W        W27042   1.235  16.160   0.322  0.0760 -0.3610 -0.0534
 8839W        W27043   4.400  15.518   2.424  0.2708 -0.2373 -0.5051
 8840W        W27044   8.084  14.824  10.795  0.1752 -0.2997 -0.2163
 8841W        W27045   2.828  16.782   0.894 -0.2043 -0.0104  0.1332
 8842W        W27046  12.055  15.008   4.967 -0.1279 -0.0293  0.0728
 8843W        W27047   3.549  14.029   3.243  0.1311  0.2220 -0.0027
 8844W        W27048  10.205   0.074  14.697  0.0908  0.1893  0.0237
 8845W        W27049   9.840   9.651   3.397 -0.0272 -0.0514  0.1610
 8846W        W27050   6.809   2.502  13.128  0.0364 -0.2100  0.0974
 8847W        W27051  11.166   1.538   3.467 -0.0859  0.0739  0.0417
 8848W        W27052   7.427   4.181  10.641 -0.0631 -0.1295  0.1035
 8849W        W27053  15.783   0.935   5.339  0.1377  0.1059  0.3193
 8850W        W27054   1.693   8.670  10.031  0.2235 -0.0175 -0.0259
 8851W        W27055   5.569   1.772   2.536  0.2265  0.0579 -0.3250
 8852W        W27056   7.203  11.952   4.340  0.0642  0.0300 -0.0427
 8853W        W27057  16.202   2.728  14.582 -0.1331 -0.2703 -0.0172
 8854W        W27058   4.722  18.884  13.674  0.3491  0.2013 -0.0398
 8855W        W27059  15.213  18.341  14.340 -0.0223 -0.1534  0.3869
 8856W        W27060  12.733   7.272  14.605  0.1884  0.1071  0.0433
 8857W        W27061   6.093   5.466   5.721 -0.1169  0.0185 -0.0653
 8858W        W27062  12.025   4.065  11.962  0.0099  0.0452  0.0187
 8859W        W27063  17.048   5.931  11.874 -0.1086  0.0115 -0.3969
 8860W        W27064   7.670  14.029  11.050 -0.0096 -0.3028  0.0279
 8861W        W27065  17.697   8.061   2.012  0.0499  0.2891  0.2129
 8862W        W27066   8.965  14.931  13.982 -0.0758  0.1971  0.0076
 8863W        W27067  18.951   4.407  10.736  0.3524  0.3611  0.2118
 8864W        W27068  18.707   5.244  12.430  0.2149  0.1319  0.0402
 8865W        W27069   3.523  10.701   3.508 -0.0954 -0.0574 -0.0325
 8866W        W27070  13.246   7.439   4.279  0.1760  0.0646  0.1231
 8867W        W27071   1.615   8.440  13.549  0.0830  0.1290  0.2402
 8868W        W27072   2.259  15.077  14.642  0.1860  0.0545 -0.1540
 8869W        W27073  11.016  12.099   0.320  0.2726 -0.1865  0.1473
 8870W        W27074  16.236  13.933   3.533 -0.1938  0.4416 -0.0891
 8871W        W27075   3.645   2.223  11.450  0.1373 -0.0640 -0.1676
 8872W        W27076  12.122  16.472   1.990 -0.4504 -0.0531 -0.0376
 8873W        W27077   7.321  15.399   0.091 -0.0664  0.0888  0.0211
 8874W        W27078   7.807   1.955  11.715 -0.3062  0.0363  0.1322
 8875W        W27079   8.775   3.155   3.324 -0.1225  0.0208 -0.1541
 8876W        W27080  12.931   2.739   4.393 -0.0834 -0.1672  0.1514
 8877W        W27081   7.603  16.741   2.810  0.1982  0.3462 -0.2290
 8878W        W27082   7.651   1.382   3.895 -0.0462 -0.0620  0.2046
 8879W        W27083   4.924  11.601   0.400 -0.2565  0.1200 -0.4704
 8880W        W27084  12.077   7.018   4.141 -0.0980  0.1608 -0.0734
 8881W        W27085   2.287  12.135  12.289 -0.1331 -0.0047  0.1663
 8882W        W27086  12.618  12.101   3.303 -0.1137 -0.4189  0.1013
 8883W        W27087  12.737  16.991   0.818  0.1566  0.0775 -0.0920
 8884W        W27088  10.640  10.768   0.671  0.2741 -0.1458 -0.0488
 8885W        W27089  16.372   9.575   4.369  0.1769  0.1861  0.2081
 8886W        W27090  15.731  10.604  13.317  0.0067  0.1086  0.3854
 8887W        W27091  10.384  11.196   3.045  0.1548  0.0096  0.0487
 8888W        W27092  15.841   5.339   2.707 -0.0827  0.1275  0.1929
 8889W        W27093   9.692  12.713  14.093 -0.3405  0.1085 -0.0192
 8890W        W27094  11.517  13.073  10.768  0.1081 -0.1238 -0.1440
 8891W        W27095  16.617   3.577  12.245 -0.3070 -0.0908 -0.1972
 8892W        W27096   5.679   9.838   0.672 -0.0725  0.2095 -0.1371
 8893W        W27097   8.407  15.829  14.235 -0.1427  0.0742  0.1689
 8894W        W27098   4.668  13.075  14.209 -0.1453 -0.1527 -0.2243
 8895W        W27099   4.357   5.626   0.290  0.2503 -0.4517  0.0958
 8896W        W27100  17.566  12.576   0.414  0.0527 -0.0211 -0.0437
 8897W        W27101  11.219  16.428  11.724 -0.0365 -0.1364  0.1005
 8898W        W27102  16.719  10.283   1.272 -0.0482 -0.5039 -0.1062
 8899W        W27103   2.924  12.402   0.147 -0.2118 -0.0049 -0.1977
 8900W        W27104   5.169  15.283   2.574 -0.0059 -0.0884 -0.3556
 8901W        W27105  13.660   9.086  10.876  0.3932 -0.2096 -0.2029
 8902W        W27106   7.576  11.601   4.256 -0.0505  0.3786 -0.0978
 8903W        W27107  15.747  18.907  11.894 -0.0872  0.0188 -0.0700
 8904W        W27108  10.959  18.211  12.339  0.2721 -0.2016 -0.3123
 8905W        W27109  11.553   4.187   2.754 -0.2222 -0.0847 -0.0872
 8906W        W27110  12.952  11.674   4.057 -0.0265  0.1115  0.0665
 8907W        W27111   6.027  17.481  11.079  0.2267  0.0683  0.1903
 8908W        W27112  15.578   8.966  13.026  0.0545  0.0235  0.0183
 8909W        W27113  16.191  12.717   3.315 -0.1244 -0.2710  0.4652
 8910W        W27114  13.168   8.913   4.474  0.0059  0.2496 -0.1147
 8911W        W27115  11.741   0.180   1.676 -0.1647  0.3173  0.4143
 8912W        W27116  17.259  13.563  10.951 -0.1233  0.0944 -0.1530
 8913W        W27117  10.784   1.727  13.659 -0.0345  0.1518 -0.2158
 8914W        W27118  11.011   0.344   0.153  0.0617  0.1041  0.1682
 8915W        W27119  15.910  10.831   3.187  0.0731  0.0857  0.0979
 8916W        W27120  13.801   8.683   1.926  0.1600  0.2733 -0.0112
 8917W        W27121   4.982   5.445   1.864  0.1107 -0.0260  0.0948
 8918W        W27122   5.393   5.387  11.057  0.1343  0.1596  0.3022
 8919W        W27123   6.421   3.817  10.591 -0.1071 -0.1539  0.3043
 8920W        W27124  17.642  18.684   0.754 -0.0892 -0.1011 -0.0194
 8921W        W27125   3.208  13.063  14.520 -0.1534  0.0478 -0.1172
 8922W        W27126  10.796  16.822  11.648 -0.0609  0.0204 -0.0912
 8923W        W27127   6.502   6.305  13.886 -0.0679  0.2554 -0.0315
 8924W        W27128  15.155  10.273  10.461 -0.0976  0.0458 -0.0335
 8925W        W27129   3.550   3.496  11.109  0.2821  0.0805 -0.0517
 8926W        W27130   8.733   9.742  14.346 -0.0158 -0.2099  0.2299
 8927W        W27131  18.925   7.637  11.368 -0.2063 -0.2033  0.2863
 8928W        W27132   1.821   0.597  10.268  0.2019 -0.3547 -0.0660
 8929W        W27133  18.246  11.331   3.238  0.0017 -0.2377  0.0806
 8930W        W27134  11.032  11.870   1.575 -0.1689 -0.0738  0.0179
 8931W        W27135   7.495   4.707   4.379  0.1495  0.0187 -0.1064
 8932W        W27136  11.655  17.783  14.870  0.1708  0.1593 -0.2805
 8933W        W27137  18.343   6.270  11.719  0.1622 -0.1725  0.3494
 8934W        W27138   9.348  16.031   4.126  0.2117  0.0172 -0.0516
 8935W        W27139  11.765   8.017   2.911  0.0169 -0.1074 -0.0948
 8936W        W27140   5.907   9.306  12.741  0.1926  0.0095 -0.0418
 8937W        W27141   4.845  12.207  14.529 -0.0676  0.2855 -0.1262
 8938W        W27142  14.018   8.644  10.855  0.2694  0.1078 -0.2322
 8939W        W27143  10.439   8.760  14.372 -0.2729 -0.0755  0.2766
 8940W        W27144   8.248  13.369   3.551 -0.0235 -0.2565  0.0302
 8941W        W27145  10.709   7.882   1.525 -0.0777  0.1949  0.1178
 8942W        W27146  14.906  15.971  13.214  0.0420 -0.4444  0.0824
 8943W        W27147  18.684  12.048   1.198 -0.2597 -0.1162 -0.0345
 8944W        W27148   3.168   2.753  13.618  0.1845 -0.2593 -0.0148
 8945W        W27149  10.995   2.336  11.466 -0.3063 -0.0062 -0.1554
 8946W        W27150   4.648  12.814   9.841  0.0066 -0.0530 -0.1290
 8947W        W27151  14.064  18.232  11.856 -0.1686  0.0868 -0.0177
 8948W        W27152  13.305  13.617  11.364 -0.3326  0.0135 -0.0597
 8949W        W27153  12.627   7.812  12.234  0.2209  0.1815 -0.0605
 8950W        W27154   0.210  12.553   3.415 -0.0270  0.2668  0.2874
 8951W        W27155  17.216   2.763  13.547  0.3742  0.1319 -0.1120
 8952W        W27156  13.929   7.341   2.404  0.1041 -0.1528  0.0248
 8953W        W27157  18.495  18.779   1.041 -0.2929 -0.0384 -0.2095
 8954W        W27158  18.251   9.746   4.518  0.4652 -0.3480  0.0886
 8955W        W27159  12.768  10.961  12.814 -0.0695 -0.0808  0.1978
 8956W        W27160   4.150  15.417   0.467  0.1052 -0.2615 -0.1559
 8957W        W27161   9.224   2.075  12.879 -0.3853 -0.1487  0.0849
 8958W        W27162   5.840  17.711  12.156  0.3303 -0.1959  0.2461
 8959W        W27163   9.692   6.392  13.079  0.1342  0.2019 -0.1933
 8960W        W27164   2.515  11.283   3.212 -0.1332  0.4736  0.1684
 8961W        W27165   6.148  10.809   3.461 -0.2202  0.0983  0.0774
 8962W        W27166  13.844   9.648  10.820  0.1073 -0.2226  0.0142
 8963W        W27167   8.673   3.289   1.011  0.0659  0.0296 -0.1658
 8964W        W27168  12.569  15.514  13.681 -0.0881  0.0153  0.0698
 8965W        W27169  16.510  12.127   1.367 -0.0470  0.0391  0.3247
 8966W        W27170   0.197   6.953  14.263  0.0810 -0.1105 -0.1899
 8967W        W27171   8.424   3.277  13.650 -0.3656  0.0530  0.1461
 8968W        W27172   5.099  13.869  12.208 -0.1311  0.1664 -0.1204
 8969W        W27173   6.511  18.800  14.101 -0.0386 -0.0308  0.0040
 8970W        W27174  17.814  12.452   3.812  0.2629  0.2512  0.0940
 8971W        W27175   6.434   0.033  13.369 -0.1715 -0.2183 -0.5507
 8972W        W27176   7.577  16.312  11.295  0.1190  0.0559  0.0789
 8973W        W27177   3.616  13.080   1.831  0.1794 -0.2400 -0.1154
 8974W        W27178   3.955   9.643   3.550  0.0165 -0.1671  0.0397
 8975W        W27179  10.896  17.235  12.181  0.0638  0.4616 -0.1556
 8976W        W27180  12.772   8.856   4.755  0.1023  0.2586  0.0256
 8977W        W27181  10.632  12.753   9.865 -0.0243 -0.2378  0.0494
 8978W        W27182  18.602   7.414   0.820 -0.0448  0.1192  0.0982
 8979W        W27183   7.927   3.087   1.358  0.1724 -0.0653 -0.0960
 8980W        W27184   7.441  17.364  10.329  0.0308  0.3917 -0.1329
 8981W        W27185  12.470   6.857  14.808 -0.1064 -0.1061  0.2241
 8982W        W27186   2.805  18.852   3.744 -0.0959  0.1438  0.1706
 8983W        W27187  18.786   9.050   2.301  0.2447  0.2586 -0.2028
 8984W        W27188   6.508   7.777   2.644  0.0671 -0.1775  0.0067
 8985W        W27189  14.273  15.654   9.590 -0.3057 -0.1585  0.0197
 8986W        W27190   4.886   1.677  12.540 -0.1572 -0.3254 -0.0860
 8987W        W27191  11.918  16.845  12.091 -0.1512  0.0504  0.0796
 8988W        W27192  12.367   8.330  12.376 -0.1557 -0.0789  0.1006
 8989W        W27193   4.231   7.782   1.551  0.0251 -0.0210  0.1004
 8990W        W27194  11.177  17.209   3.947  0.0611  0.0232  0.0822
 8991W        W27195   8.084   2.823  15.023  0.2685 -0.1839 -0.2117
 8992W        W27196   6.018   9.014   2.013 -0.0938 -0.2125  0.4571
 8993W        W27197  15.846   8.736   1.785  0.0036 -0.2965  0.0777
 8994W        W27198  10.293  15.295  13.080  0.1537 -0.0235 -0.0571
 8995W        W27199  18.658   9.658   3.277  0.2410 -0.3072  0.0976
 8996W        W27200  10.208   6.659   0.090 -0.1081 -0.4150 -0.0274
 8997W        W27201   0.271  13.744   0.025 -0.4009  0.1454  0.2611
 8998W        W27202  12.189   2.899  12.698 -0.0018 -0.2331 -0.2182
 8999W        W27203   6.846  14.776  13.927 -0.0597  0.2561  0.2332
 9000W        W27204  11.385   0.837   0.613  0.2676 -0.1016  0.2256
 9001W        W27205   5.462  14.087  13.760 -0.0740 -0.0550 -0.0534
 9002W        W27206   1.088  10.901   1.128 -0.0196  0.1761  0.0824
 9003W        W27207   1.472  16.978  12.582 -0.1361 -0.2590 -0.1887
 9004W        W27208   0.049  16.940   3.049  0.1131 -0.2613 -0.0725
 9005W        W27209   4.669   1.507   1.233 -0.2393 -0.2739  0.1068
 9006W        W27210  11.647   0.610   3.704  0.0712 -0.2160  0.2178
 9007W        W27211   7.036  13.929  12.511 -0.1977 -0.3095 -0.2778
 9008W        W27212  13.434  14.564  13.045 -0.0880  0.3040 -0.3846
 9009W        W27213   5.483   7.486  14.698 -0.2386 -0.0983 -0.0318
 9010W        W27214  15.863  14.329   3.658  0.2330 -0.0175  0.3795
 9011W        W27215   6.027   7.739  11.216  0.1167 -0.0118  0.0831
 9012W        W27216  18.193  18.315   0.258  0.0268 -0.0658  0.4390
 9013W        W27217   3.080   2.093   3.953  0.1878  0.0677  0.2077
 9014W        W27218  16.663   6.116   4.395 -0.3658  0.3644 -0.1193
 9015W        W27219   4.923   1.172   2.415  0.0537 -0.0341 -0.0666
 9016W        W27220   3.048   6.687  10.740  0.1215 -0.1071 -0.2980
 9017W        W27221  12.941  17.038   2.703  0.2968  0.0371  0.3239
 9018W        W27222  14.975   0.903  11.695  0.0883 -0.0284 -0.0210
 9019W        W27223   0.499   7.524   1.011 -0.0195 -0.0650  0.1883
 9020W        W27224  18.069  15.866  10.256 -0.2103  0.0085  0.0137
 9021W        W27225  14.938   1.978   4.597 -0.0459  0.1471  0.2650
 9022W        W27226   2.998   6.522   3.422 -0.2791  0.1523 -0.1534
 9023W        W27227   6.605   3.258   1.839 -0.0323 -0.0594 -0.2288
 9024W        W27228   0.887   4.277  11.890  0.0233 -0.2589  0.1121
 9025W        W27229   9.096  16.332   3.712  0.1443  0.0269 -0.0011
 9026W        W27230   2.009  16.096   3.753 -0.0473 -0.1400 -0.0833
 9027W        W27231  18.750   4.496   4.889 -0.2691 -0.1243 -0.1321
 9028W        W27232   1.841  12.743  10.598 -0.1236  0.0845  0.0219
 9029W        W27233  16.866   8.182  14.553  0.2285  0.0898  0.2228
 9030W        W27234   2.345  11.943  14.470  0.0643  0.2353  0.0368
 9031W        W27235   5.639   4.648   2.339 -0.0992 -0.0136 -0.0842
 9032W        W27236  13.289  12.832   5.427 -0.2138  0.0346 -0.1336
 9033W        W27237  17.352  17.471  10.048 -0.2173 -0.0419  0.1668
 9034W        W27238   3.478  13.945  10.114 -0.2442 -0.2216 -0.2677
 9035W        W27239   1.603  16.683  11.395 -0.0931  0.0629 -0.0001
 9036W        W27240  16.491  16.649   2.770  0.0851  0.3117 -0.0019
 9037W        W27241  18.714  16.814  12.368 -0.2244 -0.2257  0.1714
 9038W        W27242  12.713  15.989  13.903  0.0424 -0.0679 -0.2939
 9039W        W27243  14.196   8.753   3.478  0.3791  0.0502 -0.1139
 9040W        W27244   8.288   4.786   0.024 -0.4590 -0.0562 -0.1600
 9041W        W27245   5.805  13.641   2.125  0.1308  0.1516  0.3873
 9042W        W27246  16.606   1.450  11.863  0.0378  0.0820  0.1122
 9043W        W27247  12.126   8.110   2.525  0.1490 -0.1459  0.2342
 9044W        W27248  14.219   6.865  12.643  0.0036 -0.1012 -0.2088
 9045W        W27249   4.704  16.090  14.186 -0.0502  0.1916  0.2043
 9046W        W27250   5.162   2.892  13.478 -0.2126 -0.0336 -0.0344
 9047W        W27251   6.779  14.436   1.677 -0.0372 -0.0644 -0.1213
 9048W        W27252   0.011  12.218   3.796  0.0712  0.1834 -0.2368
 9049W        W27253   6.203  18.695  13.065 -0.1492 -0.0679 -0.2187
 9050W        W27254  16.549   1.889  11.571 -0.0561  0.0624  0.2009
 9051W        W27255   7.819  10.076  13.494  0.0442  0.4453 -0.0235
 9052W        W27256  15.507  15.387  13.711  0.0854 -0.0961 -0.0416
 9053W        W27257  14.840  10.236   2.081  0.2402  0.0514  0.0307
 9054W        W27258  16.557  16.401  12.175  0.2288  0.0293 -0.0076
 9055W        W27259  12.444  12.758  13.374  0.0195  0.0859 -0.0909
 9056W        W27260  10.370  10.622  10.370 -0.2164 -0.0824 -0.1481
 9057W        W27261  15.607   5.878  14.973 -0.0551  0.0280  0.3000
 9058W        W27262  16.927  17.079   9.412 -0.2331  0.0332  0.2156
 9059W        W27263   4.347  10.078   1.713  0.3173 -0.1948 -0.1344
 9060W        W27264   1.987   1.431  14.622  0.1583  0.0947  0.2511
 9061W        W27265  14.927   5.565  11.197 -0.0667 -0.1930 -0.2518
 9062W        W27266   3.620  12.524  10.711  0.3785 -0.2096  0.0995
 9063W        W27267   7.036  12.867  13.670 -0.1631 -0.0812 -0.1816
 9064W        W27268  13.226  18.057  13.979 -0.2161  0.1200 -0.1324
 9065W        W27269  12.784   6.412   3.237 -0.0348  0.3966  0.1251
 9066W        W27270  14.992   8.315   3.391  0.0317  0.1144  0.0583
 9067W        W27271  17.840  18.610   2.542 -0.0446  0.3132 -0.0704
 9068W        W27272  15.260   3.217  12.474  0.1258 -0.0468 -0.1019
 9069W        W27273  16.428   5.261  12.880 -0.0275 -0.2186  0.4017
 9070W        W27274   4.163   8.719  14.087  0.3003  0.1189  0.2358
 9071W        W27275  14.423  17.471   1.152 -0.0497  0.2526  0.3418
 9072W        W27276  10.084   8.566  14.060 -0.0281  0.1764  0.1393
 9073W        W27277   9.641  11.541  12.392  0.2043  0.1069  0.1784
 9074W        W27278   4.736  17.298  12.765 -0.3654  0.1673  0.0224
 9075W        W27279   6.531   8.134   1.244 -0.0229  0.2541  0.1443
 9076W        W27280  12.517   2.332  14.475 -0.0738  0.2320 -0.0827
 9077W        W27281   5.961  16.477   0.698  0.3845 -0.0403 -0.1625
 9078W        W27282  18.110   3.685  14.856 -0.0564  0.0485  0.1651
 9079W        W27283  18.783   5.892  11.814 -0.1519  0.0591  0.4455
 9080W        W27284  16.907   6.685   1.795 -0.2960  0.3253 -0.2918
 9081W        W27285   8.664   6.533   3.505 -0.1778 -0.2065 -0.0584
 9082W        W27286  10.658  18.120  11.952  0.5101 -0.2159 -0.0808
 9083W        W27287  14.316   9.486   2.810 -0.2555  0.0678  0.0887
 9084W        W27288   8.147   7.415   0.595  0.2999  0.0543 -0.1640
 9085W        W27289   2.841   5.683   1.879  0.0577  0.0557 -0.1604
 9086W        W27290   1.663  15.641  14.320 -0.1586 -0.0943 -0.0959
 9087W        W27291   8.193   8.449  11.009 -0.1826 -0.0601 -0.0746
 9088W        W27292   3.835   6.022   4.201 -0.0232  0.1239  0.0458
 9089W        W27293  10.954   7.065  14.538  0.0026 -0.1608 -0.0790
 9090W        W27294  17.401  13.292  12.872 -0.1833 -0.2101 -0.2460
 9091W        W27295   1.396   7.582  11.799  0.0908 -0.0677  0.3811
 9092W        W27296  10.095  16.659   4.218 -0.2085 -0.1034  0.0416
 9093W        W27297   8.299  16.301  14.433 -0.2276 -0.0043  0.0707
 9094W        W27298   5.623  15.700   1.867 -0.1054 -0.1272 -0.2131
 9095W        W27299   4.128  10.986   3.696 -0.2236 -0.1871  0.3274
 9096W        W27300   2.485  13.629  11.695 -0.1181 -0.0404 -0.1871
 9097W        W27301   9.266  11.170  12.258 -0.2838  0.1354  0.2486
 9098W        W27302   1.806  11.292  14.758 -0.2621 -0.0722  0.0871
 9099W        W27303   3.790  14.350   2.904  0.0312 -0.1398 -0.0446
 9100W        W27304   6.016   3.788  11.618 -0.1305 -0.1150 -0.2652
 9101W        W27305  10.489   2.123   0.346  0.0474 -0.1950  0.0160
 9102W        W27306   6.082  10.929  12.214 -0.0830 -0.0819 -0.0599
 9103W        W27307   9.910   1.548  11.025 -0.2234  0.0916 -0.0842
 9104W        W27308  17.526   0.929   0.340 -0.0659 -0.0296  0.2203
 9105W        W27309   4.449  14.822  13.344  0.2079 -0.1168  0.0937
 9106W        W27310   0.603   3.081  14.770  0.0803  0.1558 -0.3307
 9107W        W27311  12.711   3.223  12.632 -0.1551 -0.0126 -0.1286
 9108W        W27312   2.142  14.286   2.311 -0.0263  0.2495  0.1903
 9109W        W27313  15.661   4.918   0.013  0.1269  0.0872 -0.3432
 9110W        W27314   1.476   2.948  14.764 -0.1233 -0.0828  0.0434
 9111W        W27315   0.521  12.033  14.917  0.0588 -0.2704 -0.2983
 9112W        W27316  11.355   3.097  14.633 -0.1104 -0.1154  0.3489
 9113W        W27317   2.775   3.893  10.878 -0.1897 -0.1567 -0.1198
 9114W        W27318   1.608   2.210  11.264 -0.2320  0.0335 -0.0116
 9115W        W27319   9.524   5.014   4.179  0.2235  0.1182  0.0164
 9116W        W27320   4.770  14.037  13.352 -0.1854 -0.1999  0.2158
 9117W        W27321  15.707  18.914   0.481 -0.0548  0.0120  0.0178
 9118W        W27322   8.347   1.852   3.152 -0.3261  0.0783  0.0727
 9119W        W27323   0.064   7.714   3.909 -0.0924 -0.1986  0.0789
 9120W        W27324   8.862   0.672  14.386  0.0537 -0.0200 -0.3983
 9121W        W27325   0.778  15.504  13.139 -0.0858 -0.0831  0.1395
 9122W        W27326  15.348  13.026   4.122 -0.0119 -0.1035  0.2201
 9123W        W27327   7.265  11.929  12.275  0.1645 -0.2314  0.0327
 9124W        W27328  11.558   0.209  11.110  0.5655  0.1329  0.0089
 9125W        W27329  11.743   2.220   3.331 -0.0043  0.2432  0.1735
 9126W        W27330  18.720  16.357  12.103  0.1187 -0.0377  0.0241
 9127W        W27331  12.315   5.617   0.438  0.1521 -0.4117 -0.1172
 9128W        W27332  15.678  17.779   3.907  0.2582  0.0866  0.1282
 9129W        W27333  18.553   7.781  13.245 -0.1074  0.1542  0.1691
 9130W        W27334  15.521   0.184  14.015  0.0296  0.2277  0.1325
 9131W        W27335  13.126   4.803   2.630 -0.0794  0.2736 -0.1338
 9132W        W27336   5.211  11.687   3.966 -0.0568  0.1067 -0.1086
 9133W        W27337   3.548   0.547   3.131 -0.0914 -0.2624 -0.1624
 9134W        W27338   0.237  10.377  14.671  0.0905  0.1827  0.1125
 9135W        W27339   0.243  18.042   3.265  0.0520 -0.2084  0.2925
 9136W        W27340  12.505  17.715   3.228  0.0887 -0.1636 -0.2246
 9137W        W27341  15.344   8.824   3.870 -0.1404  0.0908  0.0530
 9138W        W27342  10.049  11.751  12.643 -0.2744  0.1499  0.1226
 9139W        W27343   7.868   9.326   1.025 -0.0691  0.1578  0.4066
 9140W        W27344  14.984   9.748   0.204  0.1681  0.1512 -0.5361
 9141W        W27345  12.103  10.138  13.533  0.0941  0.0253  0.1102
 9142W        W27346   7.987  14.818   5.010 -0.0525  0.0386  0.0068
 9143W        W27347  16.985  14.597   3.599  0.3202  0.4739 -0.0386
 9144W        W27348   4.701  15.737  13.854  0.0525 -0.2698 -0.0889
 9145W        W27349  17.156  14.359  11.684 -0.2259  0.0542  0.0451
 9146W        W27350   3.624  13.536   3.368  0.1792 -0.1071  0.1016
 9147W        W27351   0.284  18.831   9.925 -0.0667 -0.2606  0.2251
 9148W        W27352   9.453   9.464   2.345 -0.2209  0.0630 -0.0331
 9149W        W27353  18.176  10.834   1.471  0.2445 -0.2807  0.3202
 9150W        W27354   3.852  18.507  11.450  0.0035 -0.1582 -0.0632
 9151W        W27355   2.886   5.825   4.482 -0.0394 -0.2131  0.0029
 9152W        W27356  18.602   6.493   1.784  0.0827  0.0540  0.4548
 9153W        W27357   4.951  18.459   4.751 -0.0693 -0.2629  0.0363
 9154W        W27358   4.321  11.965  11.878  0.2018 -0.1487 -0.2900
 9155W        W27359   0.561  16.413  12.181  0.1577  0.1736 -0.1800
 9156W        W27360  14.439   2.623  14.722  0.0819  0.0467  0.0016
 9157W        W27361   5.517  14.700  12.517  0.1810 -0.0250  0.3526
 9158W        W27362   8.186  11.285  12.170 -0.0048  0.0163 -0.0978
 9159W        W27363   5.112   4.993   0.012 -0.0396  0.0331 -0.3310
 9160W        W27364   7.773   6.620   3.202  0.0322  0.1171 -0.1262
 9161W        W27365  17.440   2.263  13.212 -0.0687  0.0620 -0.0074
 9162W        W27366   3.871   5.987  12.309 -0.0862  0.1053  0.0055
 9163W        W27367  14.438  17.836   2.847 -0.0292  0.0512 -0.2786
 9164W        W27368   0.668   1.641  13.713  0.0293 -0.2950  0.0144
 9165W        W27369   9.596   2.798  11.750 -0.0412  0.3080 -0.0180
 9166W        W27370   9.021   0.423   2.257  0.0995 -0.0024  0.0118
 9167W        W27371   1.205   1.184  13.923  0.0167 -0.1543 -0.1678
 9168W        W27372  14.769  14.123  10.125  0.1597  0.2111 -0.0514
 9169W        W27373  10.974   2.352   2.319  0.1857  0.1549  0.0197
 9170W        W27374  13.384   3.473  14.869 -0.0759 -0.0541  0.0944
 9171W        W27375   5.652   8.541   0.989 -0.3772 -0.3697  0.1907
 9172W        W27376  13.653   5.886   1.665 -0.1117  0.0492  0.1424
 9173W        W27377  18.684  12.547  11.228  0.1458 -0.1429 -0.1302
 9174W        W27378   7.085  10.873  11.916 -0.1476 -0.1756 -0.1222
 9175W        W27379   1.733  11.045   4.102 -0.0067 -0.1094  0.1920
 9176W        W27380   0.387  12.536   2.592  0.1809 -0.1806 -0.0341
 9177W        W27381  12.120  14.560  12.307 -0.0885 -0.0318  0.0878
 9178W        W27382  11.429  17.093   0.454 -0.0592 -0.4189 -0.2733
 9179W        W27383  17.585   0.940  11.799 -0.0300  0.0265 -0.0757
 9180W        W27384   3.133   4.649   0.892  0.2118  0.1609 -0.0573
 9181W        W27385   2.811  11.998  12.879  0.2188  0.0648  0.1585
 9182W        W27386  16.571   9.438   1.632  0.0752 -0.0826 -0.2124
 9183W        W27387   2.635  15.136  13.209  0.0080  0.1429 -0.1568
 9184W        W27388  11.322   4.024   1.470  0.1785  0.5381  0.0273
 9185W        W27389  16.883  16.270  13.218  0.0227  0.2152 -0.2202
 9186W        W27390  16.355  10.367   2.990 -0.0311 -0.2550 -0.2338
 9187W        W27391   5.094  10.812   2.442 -0.2679  0.0105 -0.1873
 9188W        W27392   2.242   4.087   2.780  0.0183  0.4973  0.0987
 9189W        W27393   8.790  11.636   1.784 -0.0105  0.2799 -0.3018
 9190W        W27394  11.922  15.993   1.238  0.1815 -0.1407  0.2514
 9191W        W27395  18.755  14.239  14.630  0.3490 -0.1897 -0.2164
 9192W        W27396   0.204   7.674   1.984  0.1978 -0.2096  0.1339
 9193W        W27397   2.437   7.531   0.179  0.3219  0.2937 -0.1433
 9194W        W27398  17.326  18.354   0.303  0.3535  0.0565 -0.0267
 9195W        W27399   1.052  14.783   1.203  0.0384 -0.0924  0.0532
 9196W        W27400   8.068  12.046   2.400 -0.1318  0.2093 -0.0002
 9197W        W27401  15.999   0.156   0.135 -0.2706 -0.0558  0.0186
 9198W        W27402   3.282  16.674   0.608  0.3076  0.0329 -0.1660
 9199W        W27403  18.025  18.146   3.260 -0.1407 -0.0185  0.2383
 9200W        W27404   6.352  17.852   1.266  0.1629 -0.2242  0.1105
 9201W        W27405  13.260   4.869  12.002 -0.0327 -0.3582  0.0701
 9202W        W27406  13.549  17.072  13.732 -0.4208 -0.3006 -0.0370
 9203W        W27407  13.062  12.230  14.091  0.4154  0.3011  0.2554
 9204W        W27408  17.554   1.438  14.508 -0.0483 -0.1120  0.1564
 9205W        W27409   9.597   3.626  10.832  0.0042  0.0904  0.0553
 9206W        W27410  17.291   5.983  11.012 -0.1078 -0.1405 -0.0224
 9207W        W27411   5.226  17.410   1.609 -0.1087 -0.0688  0.2016
 9208W        W27412  15.158  12.614  13.293 -0.0701 -0.0046 -0.1832
 9209W        W27413   7.778  11.516   0.365 -0.0057  0.1852  0.2188
 9210W        W27414  13.603   6.443   4.325  0.0592 -0.0150 -0.2755
 9211W        W27415  12.284   0.323  14.283  0.4145 -0.2262 -0.4251
 9212W        W27416   5.937  15.087  14.144 -0.0140  0.1533 -0.0732
 9213W        W27417   6.046   7.269   3.803 -0.2282  0.0358  0.0489
 9214W        W27418   9.042  16.480  11.195 -0.1879  0.1271  0.0325
 9215W        W27419  12.806  18.126  12.187 -0.0197 -0.1404  0.0340
 9216W        W27420  12.008   0.996   5.135  0.0427 -0.1440  0.0847
 9217W        W27421  17.155   2.421   2.834  0.0931 -0.1076 -0.1400
 9218W        W27422   6.762   0.207  13.021 -0.1200 -0.1279 -0.1249
 9219W        W27423   0.612   7.402   4.217  0.3554 -0.3575  0.2663
 9220W        W27424   0.873   9.117  14.899 -0.0311  0.1465 -0.1206
 9221W        W27425  11.697   6.898  14.525 -0.1667  0.1192  0.0953
 9222W        W27426  12.657   8.860  14.168  0.2045  0.0232  0.0412
 9223W        W27427  16.332   9.206  14.789 -0.1530 -0.2627 -0.2033
 9224W        W27428   6.574   5.889   1.132 -0.1847  0.0121  0.0894
 9225W        W27429  18.734  11.524  10.577 -0.0896  0.0791  0.1032
 9226W        W27430  10.066   3.926  11.131  0.1652  0.1599 -0.2481
 9227W        W27431   4.724  10.654  13.980  0.1167  0.1984 -0.0854
 9228W        W27432   8.474  11.579  12.566 -0.1168  0.0627  0.2142
 9229W        W27433  15.910  18.226  13.525 -0.1130  0.1703 -0.1621
 9230W        W27434  14.058  16.657   1.186  0.0317  0.0593  0.1068
 9231W        W27435  10.366  10.593  11.342  0.1333  0.3642 -0.0453
 9232W        W27436   2.128  12.798   2.426 -0.0334 -0.4348 -0.0151
 9233W        W27437  15.192  12.765  12.618 -0.2779  0.0123 -0.0551
 9234W        W27438  14.316   2.494   1.170  0.0985 -0.2703  0.1958
 9235W        W27439   6.065   2.336  14.348 -0.0568 -0.1147 -0.0750
 9236W        W27440   5.977   4.080  10.803 -0.2029 -0.4194 -0.0141
 9237W        W27441   0.375   8.456  11.243 -0.2018 -0.2730 -0.1428
 9238W        W27442   5.313  15.562   1.436  0.0107 -0.2234 -0.2429
 9239W        W27443  12.785   7.634   3.956  0.1077 -0.1491  0.1286
 9240W        W27444  14.361   0.684   0.457  0.0489  0.2957  0.1148
 9241W        W27445   0.342  16.556  12.984 -0.1532  0.1015  0.3296
 9242W        W27446   4.003  10.722  12.636  0.0864  0.0375 -0.3279
 9243W        W27447   6.383  14.932  13.080  0.3355  0.0881  0.0084
 9244W        W27448  15.818  16.142   2.057  0.1782  0.0239 -0.1846
 9245W        W27449  13.319  11.760   0.251 -0.1651 -0.2401 -0.2073
 9246W        W27450  14.674   9.480   2.073 -0.1840  0.3818  0.1869
 9247W        W27451   7.777   3.763  12.336  0.1192  0.0901 -0.1219
 9248W        W27452  13.383   4.795   4.014  0.1351  0.2171 -0.3054
 9249W        W27453   1.815   1.286   2.752 -0.3354  0.0054 -0.1262
 9250W        W27454   0.304   8.412   3.325  0.0468  0.0217  0.2499
 9251W        W27455  14.299   7.272  14.303 -0.1606  0.0722 -0.0130
 9252W        W27456   8.749   6.550   9.856 -0.0463  0.2928 -0.0668
 9253W        W27457   5.772   7.173   2.398  0.3847  0.2915  0.0144
 9254W        W27458   4.660   6.182  14.662 -0.0759  0.0282 -0.1960
 9255W        W27459  16.217  11.474  12.075  0.0935 -0.2037 -0.2718
 9256W        W27460  14.113  17.766  13.910 -0.0610 -0.2070  0.2189
 9257W        W27461   0.059  15.374   2.227 -0.2258  0.0508 -0.1450
 9258W        W27462  18.346   8.383   2.319  0.1838 -0.1249 -0.0799
 9259W        W27463  17.824   9.622   1.859 -0.1732 -0.4159 -0.1598
 9260W        W27464   4.415  18.439   9.760  0.1933  0.0008  0.0422
 9261W        W27465   9.724   8.631   1.819  0.1961 -0.0637 -0.0112
 9262W        W27466   2.071   5.348  13.014 -0.0970 -0.0780 -0.1485
 9263W        W27467  14.755  10.378   2.582 -0.1708  0.0269 -0.0593
 9264W        W27468  11.368  18.761  11.551 -0.1357 -0.4482 -0.1492
 9265W        W27469  18.074   0.689   3.901  0.3272 -0.0587 -0.2070
 9266W        W27470   7.752   7.170  12.237  0.3588  0.2793 -0.0688
 9267W        W27471  16.544   7.702   1.717  0.0411  0.2610  0.0603
 9268W        W27472  16.905  13.285   3.018 -0.0627 -0.0785  0.0841
 9269W        W27473   8.717   1.735   1.913  0.0056  0.0174  0.3441
 9270W        W27474   2.788   3.967  14.118 -0.0685 -0.0644 -0.0259
 9271W        W27475  16.697  12.195  13.361 -0.1909 -0.0961  0.2439
 9272W        W27476   6.580  11.666  11.094 -0.2134  0.1517  0.0742
 9273W        W27477  11.727   5.226   4.131 -0.3106 -0.0555  0.0947
 9274W        W27478   8.537   2.276   0.395  0.0318 -0.1904 -0.2520
 9275W        W27479   0.999   7.074   0.118  0.1709 -0.1957  0.0155
 9276W        W27480  13.792  15.020   1.957 -0.3359  0.3133 -0.1353
 9277W        W27481  15.282   6.644   4.257 -0.0281  0.1592  0.2698
 9278W        W27482   7.606  16.936   1.772 -0.1039 -0.0173 -0.1971
 9279W        W27483  14.868  13.295  11.366  0.2125 -0.2381 -0.2519
 9280W        W27484   1.535   4.739  10.307  0.0204  0.2304 -0.0104
 9281W        W27485  18.675  16.850  11.708  0.3204 -0.3974 -0.1002
 9282W        W27486   2.965  14.740   3.031  0.1391 -0.3795  0.1334
 9283W        W27487  18.097   2.479  12.777 -0.2201 -0.1408 -0.2279
 9284W        W27488   4.661  11.545   1.435 -0.0397  0.1664 -0.2198
 9285W        W27489   6.053   0.322  11.832 -0.1221  0.1440 -0.4215
 9286W        W27490   9.233  10.063   2.293  0.0791 -0.2645  0.0077
 9287W        W27491  14.713   8.877  11.641 -0.0001  0.0698  0.3401
 9288W        W27492   3.673  16.673   1.588 -0.1292  0.1953  0.0811
 9289W        W27493  17.858   1.466  11.793  0.1212  0.0622  0.1345
 9290W        W27494  16.366   8.166   2.946  0.1626  0.2826 -0.0199
 9291W        W27495  11.142   1.788  11.631  0.0322 -0.2041  0.3421
 9292W        W27496   3.920   4.942  10.666  0.2189 -0.2366 -0.0294
 9293W        W27497   0.628  13.162  14.687 -0.4567  0.3260  0.1561
 9294W        W27498   1.468   8.121   1.832  0.1312  0.0312  0.0664
 9295W        W27499  13.731  15.598   1.236  0.0800  0.2126  0.4186
 9296W        W27500  11.904   1.002  14.659  0.1286 -0.0004 -0.3556
 9297W        W27501   4.978   1.859  12.080  0.4331  0.0749 -0.1071
 9298W        W27502  14.087   5.653  11.359  0.0717  0.0849 -0.3234
 9299W        W27503  11.341  15.637   2.953 -0.1381  0.1033  0.1936
 9300W        W27504  14.028  17.276   2.188  0.3323  0.2438 -0.2783
 9301W        W27505  16.674  15.356  13.572  0.0989  0.1048  0.2028
 9302W        W27506  17.996  10.381   3.728 -0.1499 -0.1562  0.0407
 9303W        W27507   6.221   5.996  14.714 -0.0433  0.1555  0.1377
 9304W        W27508   7.576  11.498   1.268 -0.1653  0.0269  0.1366
 9305W        W27509   2.478   0.398   3.983  0.0041 -0.4242 -0.0961
 9306W        W27510  17.749   7.161   3.327 -0.2977  0.1760 -0.3529
 9307W        W27511   8.816  11.684   0.600  0.0493  0.0312 -0.0266
 9308W        W27512  13.962   3.157   2.198  0.0487 -0.0318  0.2306
 9309W        W27513  13.744   0.680   0.798 -0.0904 -0.1275 -0.1017
 9310W        W27514  17.149  18.382  12.398  0.0795 -0.2349 -0.2286
 9311W        W27515  14.424  13.186   0.124 -0.1797  0.2177  0.0177
 9312W        W27516  12.157   2.021   1.580  0.0090 -0.0815  0.1597
 9313W        W27517   4.951   6.683   3.800  0.1189  0.1643 -0.0526
 9314W        W27518   8.261  15.941   0.305 -0.1114 -0.0494 -0.1416
 9315W        W27519  17.182   1.883  14.640  0.2387 -0.2564  0.0640
 9316W        W27520   6.334   3.061  14.281  0.1133 -0.1188 -0.0523
 9317W        W27521  18.490   4.966   1.625 -0.3219 -0.2458 -0.3647
 9318W        W27522   9.345  14.596  14.473 -0.1815 -0.1924  0.0668
 9319W        W27523   9.985  14.543  11.947  0.2376 -0.1130  0.0796
 9320W        W27524   9.093   4.920   2.657  0.1537 -0.0170 -0.3224
 9321W        W27525   0.387   2.076   3.471  0.1653  0.3632  0.0932
 9322W        W27526   9.414   4.391  10.200  0.1275 -0.0084 -0.2328
 9323W        W27527   9.380   9.123  14.424  0.0224  0.0290 -0.0327
 9324W        W27528  17.406   7.302  10.955 -0.1763 -0.0794 -0.0309
 9325W        W27529  11.453  14.303  11.311  0.0263 -0.1105  0.0424
 9326W        W27530   2.938   7.649   0.087  0.0031  0.2017 -0.0966
 9327W        W27531  10.287  16.617   1.979  0.0556  0.1932  0.0469
 9328W        W27532   1.565   5.493  14.262 -0.0584  0.2117 -0.3646
 9329W        W27533  11.802  17.359   0.166  0.1634  0.0186 -0.0174
 9330W        W27534  13.116  18.150  10.893  0.0202  0.0311  0.2560
 9331W        W27535   5.360   4.793   3.609 -0.0748  0.1705  0.0258
 9332W        W27536   5.134   6.861   1.801 -0.2484 -0.3590 -0.2462
 9333W        W27537  13.548   0.964  13.640 -0.1683  0.2033 -0.1015
 9334W        W27538  13.500  15.737  12.406  0.2140  0.1464  0.1072
 9335W        W27539   2.393  15.424   1.235 -0.1798  0.0365 -0.2123
 9336W        W27540   7.579  10.934   2.826  0.2870  0.2673 -0.0988
 9337W        W27541  12.914   8.300   3.032  0.0441  0.4590 -0.4805
 9338W        W27542  13.781  11.600   0.085  0.4059 -0.1623 -0.0964
 9339W        W27543   5.003   8.116   1.627  0.1972  0.1945 -0.2174
 9340W        W27544   7.833   7.316  12.826  0.0579  0.2741 -0.0172
 9341W        W27545  13.567  14.913  15.019 -0.2255  0.2698  0.3285
 9342W        W27546   9.785   0.957  14.603  0.0137  0.2357 -0.3148
 9343W        W27547   9.444   5.894  12.879  0.2661  0.1303  0.0652
 9344W        W27548  13.714   1.074  12.683  0.1673  0.0112  0.2864
 9345W        W27549   0.823   4.249   3.394 -0.1678  0.1079  0.0610
 9346W        W27550   4.658   9.793   0.470  0.1241 -0.1080 -0.1202
 9347W        W27551  14.787   8.781  12.210 -0.2119  0.1857 -0.0127
 9348W        W27552   3.523   7.608  12.099  0.1714 -0.2251 -0.0665
 9349W        W27553   1.508   0.257  11.389 -0.0404 -0.0580  0.0882
 9350W        W27554   7.923   8.741   4.803  0.1253  0.0492  0.0580
 9351W        W27555  14.864  17.463   2.949 -0.2655 -0.1764  0.1490
 9352W        W27556   3.338  16.356   1.361 -0.0213 -0.1366  0.3185
 9353W        W27557   5.589  10.027   3.485 -0.2737  0.3862 -0.2465
 9354W        W27558  11.323   0.079  12.904 -0.1923  0.1999 -0.4877
 9355W        W27559  12.543  18.938   3.240 -0.3029 -0.0202  0.1070
 9356W        W27560   2.514   0.655   4.511  0.0618  0.0502 -0.1024
 9357W        W27561   4.585   2.837   0.295 -0.1518  0.1526 -0.0791
 9358W        W27562  18.899  12.186  14.192 -0.0254  0.1233 -0.2541
 9359W        W27563  15.486  10.514   0.505 -0.0023  0.1145 -0.0249
 9360W        W27564  11.258  13.894  14.781 -0.0175  0.1918 -0.2510
 9361W        W27565   9.434   2.640  14.568 -0.1181  0.1759  0.0494
 9362W        W27566   9.203  17.449  12.329 -0.1349 -0.0839  0.0592
 9363W        W27567   9.516   4.965   1.822  0.4081  0.4358  0.2338
 9364W        W27568  16.599  13.589   3.384 -0.1016  0.2507 -0.1031
 9365W        W27569  12.481   3.777  13.983  0.0887 -0.3020  0.1947
 9366W        W27570   9.510  17.019  11.624  0.1050  0.3157  0.0868
 9367W        W27571  15.066   8.372  11.820 -0.2022 -0.3337  0.2707
 9368W        W27572  16.083  15.006  13.114 -0.0875  0.3368 -0.0163
 9369W        W27573  10.199   7.561  12.505 -0.2777  0.0437 -0.0430
 9370W        W27574   2.267   5.684   5.722  0.0778 -0.2369 -0.0877
 9371W        W27575  17.935  15.744   1.017 -0.0092 -0.0347 -0.1675
 9372W        W27576  18.844  12.087  10.456  0.0264  0.1008  0.0872
 9373W        W27577  18.317   5.507  12.660 -0.0384 -0.0201  0.2386
 9374W        W27578   8.264   3.731  13.985 -0.2872 -0.0513  0.0208
 9375W        W27579   8.870   6.506  14.578 -0.1000 -0.0941  0.2786
 9376W        W27580  18.153   4.927  11.436 -0.2620  0.1828 -0.1497
 9377W        W27581  12.788  14.901  12.870  0.1315 -0.1722 -0.2609
 9378W        W27582   8.662  12.909  13.882 -0.0312 -0.2005 -0.1525
 9379W        W27583  17.911   0.166   3.892 -0.0649 -0.1270  0.3159
 9380W        W27584  13.139   3.735   3.348 -0.0263 -0.2807 -0.1953
 9381W        W27585  14.988   8.255  10.543  0.0571 -0.1221 -0.0606
 9382W        W27586   1.179  13.273  13.826  0.0318 -0.0719 -0.0601
 9383W        W27587  10.186  12.766  11.353  0.0158 -0.1589 -0.1982
 9384W        W27588  14.213  16.883  14.321 -0.3168  0.1922 -0.0668
 9385W        W27589   2.130  15.284   4.328 -0.1055  0.2176  0.0904
 9386W        W27590   9.457  13.862  12.177 -0.1376  0.3219  0.1743
 9387W        W27591  18.653  14.556   1.937 -0.2478 -0.3376 -0.3359
 9388W        W27592  17.873   1.753   4.930 -0.0191  0.1805  0.1262
 9389W        W27593   7.223  12.309  11.061  0.2612 -0.0754 -0.2408
 9390W        W27594  15.062  10.685   2.252 -0.1553 -0.2755  0.3509
 9391W        W27595  17.387   0.899   1.927 -0.0574 -0.1039 -0.0593
 9392W        W27596  11.267  14.799  11.594  0.2114  0.1651  0.0970
 9393W        W27597  15.245   6.800  13.972 -0.1066 -0.2620  0.0472
 9394W        W27598  16.850   0.650   2.107  0.1546  0.1436 -0.1980
 9395W        W27599  15.693   9.825   3.264  0.2277 -0.1757  0.2430
 9396W        W27600   4.390  16.312   1.627  0.1140  0.1837 -0.0228
 9397W        W27601   7.691   6.581  11.050  0.0657 -0.0723  0.0995
 9398W        W27602   6.063   3.297  13.991  0.0627 -0.1860  0.1044
 9399W        W27603   1.820  11.237  12.188 -0.0618  0.0298  0.3247
 9400W        W27604   3.116  10.927  14.592 -0.1478  0.3241 -0.3134
 9401W        W27605   9.082  16.247  13.612  0.0462 -0.3749  0.0285
 9402W        W27606   1.595   0.104   2.495  0.0625  0.0309 -0.3126
 9403W        W27607   9.169  10.280   1.282  0.2142 -0.0068 -0.1427
 9404W        W27608  13.904  12.429  13.917  0.1756 -0.0486  0.0470
 9405W        W27609  13.554   1.654  14.354  0.2282  0.0448 -0.3830
 9406W        W27610  13.274  10.409   2.140 -0.0089 -0.1962 -0.1393
 9407W        W27611   0.358  13.308  11.813 -0.1655  0.1838  0.4449
 9408W        W27612   2.412   6.800  12.335  0.3788  0.1116  0.0822
 9409W        W27613   6.676  14.839   2.582 -0.0295  0.1816  0.2743
 9410W        W27614   9.657   3.823  13.626 -0.1272  0.3075 -0.0732
 9411W        W27615  10.855  12.583   0.970 -0.0513  0.0147  0.0631
 9412W        W27616   8.514  17.554   4.608 -0.0027  0.0203 -0.2141
 9413W        W27617  13.453   3.426   4.025  0.2119  0.0490  0.1064
 9414W        W27618   4.199  13.925  10.602  0.0024 -0.1943  0.0761
 9415W        W27619  11.853   3.541   2.740  0.1048  0.1975 -0.0210
 9416W        W27620  12.710   6.115   2.848 -0.2680 -0.1981 -0.3312
 9417W        W27621   1.578  17.898  11.158  0.3413 -0.0954  0.3361
 9418W        W27622   2.236   7.392   1.379  0.2353  0.1637  0.4550
 9419W        W27623   5.179  11.092  12.039 -0.1302 -0.1372 -0.1030
 9420W        W27624  11.184   3.760  13.369 -0.2064  0.0442  0.1064
 9421W        W27625   5.312   1.061   5.489  0.1970 -0.1835 -0.3217
 9422W        W27626  11.662  10.937   0.521 -0.2681 -0.1243  0.0565
 9423W        W27627   9.821  11.700  11.875 -0.0791 -0.0588 -0.1341
 9424W        W27628  11.057   3.464  10.594 -0.1738  0.0443 -0.1214
 9425W        W27629  17.243   9.595   0.474  0.2890 -0.0425 -0.0078
 9426W        W27630   2.257  12.270   0.166 -0.1560 -0.0284 -0.0724
 9427W        W27631  17.554   6.292   1.258  0.0328 -0.2672  0.1139
 9428W        W27632   8.390  15.069   1.162 -0.3235 -0.0614  0.2473
 9429W        W27633   7.849   1.088  14.610 -0.1337  0.0274 -0.3313
 9430W        W27634  11.958   0.698  10.514 -0.1102  0.0238 -0.3339
 9431W        W27635  13.759   3.122   3.190  0.1182  0.0546  0.3141
 9432W        W27636   5.274   3.829   3.783  0.1342  0.0518 -0.2934
 9433W        W27637  12.616  17.718   3.937  0.0744  0.0709 -0.3493
 9434W        W27638   0.544  11.068   0.878  0.2452 -0.0790  0.0482
 9435W        W27639   5.655   1.637  10.993 -0.0556  0.1231 -0.2110
 9436W        W27640   9.875  11.301  13.721  0.0488  0.2359 -0.1461
 9437W        W27641   4.276   3.465   4.710  0.0172 -0.3735 -0.1147
 9438W        W27642   2.232   0.623   1.068 -0.0813  0.0865 -0.2280
 9439W        W27643  18.566   4.154   2.229 -0.0565 -0.0789  0.0079
 9440W        W27644  15.215  12.116  11.229 -0.0177  0.0744 -0.0930
 9441W        W27645  14.944  16.283  11.451  0.2952  0.2746 -0.2647
 9442W        W27646   2.722  10.926   0.904 -0.0954 -0.1916 -0.0497
 9443W        W27647   5.405  12.277  10.047 -0.0414 -0.2133 -0.1793
 9444W        W27648   5.732  10.608   4.168 -0.0521  0.1279  0.0499
 9445W        W27649   0.119  13.385  11.252  0.0042 -0.1660  0.1850
 9446W        W27650   0.887  16.915  10.978  0.0408 -0.0678 -0.3745
 9447W        W27651   4.258  13.153  12.971 -0.0736  0.1132  0.1375
 9448W        W27652   4.833  12.508   4.435 -0.1895 -0.0462  0.0201
 9449W        W27653   7.484   0.583  12.945 -0.0915 -0.1096 -0.2390
 9450W        W27654  11.453  12.618   1.069  0.0766 -0.5848 -0.0857
 9451W        W27655  18.820   1.425  12.424  0.2436  0.0818  0.0065
 9452W        W27656   0.048   4.371   0.644 -0.2989 -0.0568 -0.0707
 9453W        W27657   9.955  14.947  12.988 -0.0542  0.1773 -0.0215
 9454W        W27658   6.875   4.968  11.025  0.3073  0.3683  0.0196
 9455W        W27659   8.089  16.892   2.070 -0.1209 -0.2110 -0.0730
 9456W        W27660   6.411  11.204   4.325  0.0049  0.0929 -0.1143
 9457W        W27661  11.848   0.177  12.075  0.0256  0.1242 -0.0828
 9458W        W27662  10.466  12.076   2.012 -0.0798 -0.3424 -0.3330
 9459W        W27663  13.006   1.423   3.752 -0.3427  0.1408  0.0467
 9460W        W27664  13.735   9.720   1.174  0.2294  0.0174 -0.0282
 9461W        W27665   5.829   9.014  14.266 -0.1718 -0.1306  0.0023
 9462W        W27666  14.189   6.967   4.353 -0.1840  0.0569 -0.2805
 9463W        W27667  15.823   3.619   4.090 -0.3661  0.0080 -0.0527
 9464W        W27668  17.466  17.033  10.249  0.2016  0.1827 -0.1275
 9465W        W27669  11.157   5.264   0.349  0.0556 -0.2099 -0.0819
 9466W        W27670  14.334   5.057  13.676  0.4946  0.2047  0.1378
 9467W        W27671   5.041   7.272  14.367 -0.1807  0.3969 -0.1991
 9468W        W27672  17.576  18.262   1.066 -0.2557  0.1484 -0.1956
 9469W        W27673  13.923   3.040   1.706  0.0807  0.0516  0.2350
 9470W        W27674  12.386  17.207  14.493  0.1436 -0.2087 -0.0646
 9471W        W27675   8.000  12.109   0.474 -0.1418  0.1039  0.2758
 9472W        W27676  11.307   7.077  13.764 -0.0727  0.0549  0.2462
 9473W        W27677  12.562   0.236  10.618  0.2897  0.0215  0.0292
 9474W        W27678   0.134  18.539  11.290  0.3843  0.0670 -0.0094
 9475W        W27679   5.632   1.346   5.769 -0.2108 -0.1650  0.0186
 9476W        W27680   6.815   3.191  11.686  0.4219  0.1218  0.5787
 9477W        W27681   0.033  17.672  10.714 -0.1629 -0.1080 -0.1357
 9478W        W27682  16.337   1.100  12.594 -0.0848  0.0800 -0.0616
 9479W        W27683   8.361   5.526  10.537 -0.3560  0.2575  0.0508
 9480W        W27684   6.473   9.539  11.655 -0.1867  0.2374  0.2723
 9481W        W27685  12.873   8.080  10.642 -0.0003 -0.1768  0.0942
 9482W        W27686  16.616   2.538  13.631 -0.2946 -0.1440  0.1606
 9483W        W27687   2.889  10.459  13.684  0.0373  0.0642 -0.1568
 9484W        W27688   2.711  12.657  11.803  0.3147  0.1600  0.1936
 9485W        W27689   6.338  15.471  12.407  0.3023 -0.0600 -0.1529
 9486W        W27690   8.239  14.665  12.078  0.1003 -0.2108  0.0419
 9487W        W27691   2.565  14.807  14.336 -0.0628 -0.1795  0.0509
 9488W        W27692  10.836   3.367   0.831  0.2236  0.0053 -0.4196
 9489W        W27693   4.026   0.196  13.075  0.1602  0.2573 -0.1955
 9490W        W27694  15.678  11.739   1.969  0.0692 -0.0094 -0.1077
 9491W        W27695  16.065   3.815  12.709  0.3486  0.4730  0.0056
 9492W        W27696   2.296  10.848  12.974  0.4278 -0.0533 -0.0988
 9493W        W27697   5.652  10.995  13.538  0.0637 -0.0493  0.0982
 9494W        W27698   8.180  10.504   0.399 -0.0223 -0.2143 -0.1111
 9495W        W27699  18.389  17.291  10.813 -0.1287 -0.0077  0.1796
 9496W        W27700   9.139   4.093   3.267  0.4724  0.1950  0.1285
 9497W        W27701  10.024  17.919  14.197  0.2636  0.3499  0.1611
 9498W        W27702  18.427   4.031   3.713  0.2021 -0.0539 -0.2716
 9499W        W27703   8.589  18.724  11.138  0.0160  0.2586  0.1567
 9500W        W27704   0.371   2.225   2.775 -0.1733 -0.1177 -0.2137
 9501W        W27705   9.953   3.878  10.580 -0.0198 -0.1212  0.2826
 9502W        W27706   5.022  17.026  13.151  0.0806  0.0085  0.1938
 9503W        W27707  13.230  12.127  11.599  0.2225 -0.2751  0.2253
 9504W        W27708   6.488   3.911  14.610 -0.2017  0.0487 -0.3511
 9505W        W27709   7.114   8.465   2.325  0.2266  0.3328 -0.1597
 9506W        W27710  18.887  11.850   1.883  0.0136  0.0107  0.3560
 9507W        W27711  13.923  13.191  11.824 -0.0533 -0.0612  0.1667
 9508W        W27712   4.827  10.253  12.127  0.0576  0.1399  0.2278
 9509W        W27713   9.436   2.961  13.922  0.0085  0.1139 -0.1178
 9510W        W27714   1.476   0.274   5.261  0.0713  0.2839 -0.4356
 9511W        W27715  16.991   9.785  11.570 -0.0665  0.1859 -0.2504
 9512W        W27716   3.172  12.133   3.935 -0.1096 -0.0357  0.1922
 9513W        W27717  18.842  12.866  11.571 -0.0311 -0.0023 -0.2374
 9514W        W27718   5.603  12.854  14.254 -0.1180 -0.2823  0.1107
 9515W        W27719   3.484  11.824   2.700  0.1620 -0.0709  0.0630
 9516W        W27720   1.393  13.969   2.040  0.1689  0.2854  0.1167
 9517W        W27721  13.046  11.111  14.005 -0.2655  0.2419 -0.3606
 9518W        W27722  12.663  12.611   3.394  0.0935  0.0003  0.2081
 9519W        W27723   7.515  18.657   1.000 -0.0432  0.1481  0.1378
 9520W        W27724   0.623   8.048  13.992 -0.1579 -0.0409  0.0853
 9521W        W27725  14.807   2.458  13.910 -0.2299  0.0246  0.0069
 9522W        W27726  18.370   6.288   1.329 -0.0427 -0.1417  0.0815
 9523W        W27727  11.002   8.384  13.912 -0.2444  0.2572 -0.1883
 9524W        W27728  17.094  17.315   1.269  0.1964  0.0197  0.0373
 9525W        W27729   5.340  17.507  14.844  0.0349 -0.4784  0.1466
 9526W        W27730  17.772  10.562  11.605 -0.1311 -0.0323  0.4162
 9527W        W27731  10.624  14.372   1.996 -0.1976  0.0070  0.0964
 9528W        W27732  17.750   7.357  13.183  0.1324  0.0805 -0.0095
 9529W        W27733  11.276   5.488  13.888 -0.1895  0.1613  0.0456
 9530W        W27734   5.476   2.590   0.055 -0.0174  0.0992  0.0435
 9531W        W27735  18.303  13.594   0.082  0.1741  0.3984  0.0362
 9532W        W27736   3.749  18.643   0.669  0.2696  0.1388 -0.0089
 9533W        W27737  10.270   7.788   2.295  0.7067 -0.2273 -0.1634
 9534W        W27738  16.108  12.204   1.119  0.0429 -0.0797 -0.0111
 9535W        W27739   5.673  12.951   5.623 -0.2612 -0.1762  0.1444
 9536W        W27740   6.677  13.424  11.897 -0.0453  0.0315  0.1586
 9537W        W27741  11.063   6.621  10.310  0.0295  0.1554  0.2468
 9538W        W27742   9.892   5.829  14.870  0.1904  0.1650  0.1385
 9539W        W27743   5.021  18.474  11.069 -0.1048 -0.0824 -0.1576
 9540W        W27744  10.349  14.729   1.824 -0.1271  0.0574 -0.0955
 9541W        W27745  15.044   3.667  14.460 -0.1867 -0.0559  0.1196
 9542W        W27746  13.050   4.830  12.544 -0.2876  0.2050 -0.6544
 9543W        W27747  13.530  11.353  12.320  0.2606  0.2278  0.0373
 9544W        W27748   2.450   5.807  13.683  0.1147 -0.0097 -0.1874
 9545W        W27749   9.467   3.128  14.418 -0.0700 -0.1979  0.0166
 9546W        W27750   0.890  12.126   3.836  0.2060 -0.0121 -0.0861
 9547W        W27751   4.699   4.768   0.378  0.3430  0.1126  0.0753
 9548W        W27752   9.944  10.831  11.034 -0.0363 -0.1151  0.1211
 9549W        W27753   7.908  14.832  13.488 -0.0225 -0.1921 -0.3548
 9550W        W27754  18.199  18.098  14.847 -0.2923 -0.1893  0.0499
 9551W        W27755   6.839   6.613  11.382 -0.1113 -0.2131  0.0040
 9552W        W27756  16.979   4.098   3.286 -0.0086 -0.0184 -0.3309
 9553W        W27757   4.030  13.194  13.925 -0.1423  0.1773  0.0884
 9554W        W27758   0.218   4.381   2.557 -0.3252  0.3141 -0.1647
 9555W        W27759   3.279   9.056   0.378  0.0820  0.3127  0.1397
 9556W        W27760   9.294   5.376   0.443 -0.1257  0.0206 -0.1826
 9557W        W27761   2.511  16.811  11.675  0.1907 -0.2420  0.0436
 9558W        W27762   1.971   8.816  14.643 -0.0582  0.0568  0.2839
 9559W        W27763  15.089  13.078   4.971 -0.2660  0.0509 -0.0621
 9560W        W27764   5.298   4.730   3.108  0.1025  0.1889  0.0502
 9561W        W27765  12.683  16.371  14.354 -0.0804  0.1727 -0.0663
 9562W        W27766   5.743   6.803  12.331 -0.1271 -0.1090 -0.1712
 9563W        W27767   6.796   8.066   9.993 -0.0173 -0.0761  0.2819
 9564W        W27768   8.696  15.404   0.492 -0.2905  0.1451 -0.1510
 9565W        W27769  16.535   0.886  13.962  0.3199  0.2677  0.1974
 9566W        W27770   2.314  14.055   1.603  0.0495  0.3712  0.3302
 9567W        W27771  14.689  10.857   1.659  0.1760  0.1599 -0.2752
 9568W        W27772  15.967   9.490  14.707  0.0181 -0.1549 -0.3902
 9569W        W27773   8.893  18.117  11.880  0.1774  0.1073  0.0496
 9570W        W27774  18.133  10.421   1.877 -0.1299  0.1140 -0.0322
 9571W        W27775   7.757  10.640  13.283  0.0346  0.0644 -0.0043
 9572W        W27776  10.139   9.465   2.582 -0.3016  0.0506 -0.2370
 9573W        W27777  16.703  18.457  11.693  0.3076 -0.0513 -0.1175
 9574W        W27778   8.321   5.263  10.043  0.0078 -0.3022  0.0316
 9575W        W27779  15.303  14.755   0.923 -0.0380  0.2802 -0.0403
 9576W        W27780  17.943   8.082  10.775 -0.0536 -0.3095  0.0585
 9577W        W27781   1.925  18.405   2.496  0.0251 -0.0614  0.2960
 9578W        W27782   4.302   6.367   3.313  0.1950  0.1281  0.5564
 9579W        W27783  12.174  10.250  11.484  0.2057  0.0611  0.6112
 9580W        W27784   8.770  14.684   3.391  0.3385 -0.1769  0.2404
 9581W        W27785   5.702  14.675   3.366  0.2370  0.0363  0.1318
 9582W        W27786  10.753   3.948   0.745 -0.2104 -0.0060 -0.1501
 9583W        W27787  14.616  17.714   4.618  0.0347 -0.0842  0.1931
 9584W        W27788  17.269   6.949   4.537 -0.1815  0.0773  0.2141
 9585W        W27789   0.083   4.729   2.082 -0.1770  0.0265  0.0545
 9586W        W27790   7.831  17.130  13.719 -0.0198 -0.2289 -0.1800
 9587W        W27791  14.346   5.768   4.156 -0.2709  0.0616  0.2057
 9588W        W27792   7.182  15.441   3.205 -0.0274  0.0083 -0.0607
 9589W        W27793  15.406   9.443  11.814  0.3286 -0.0026 -0.1021
 9590W        W27794   4.458  15.552  12.138  0.0049 -0.2349  0.1457
 9591W        W27795  18.755  11.626  14.884 -0.0164 -0.3775  0.1142
 9592W        W27796  18.151   7.809   2.954  0.1626  0.0994  0.0061
 9593W        W27797   0.408  16.234  13.425 -0.6027  0.3164  0.0915
 9594W        W27798  11.265   5.432   3.409  0.3167 -0.0146 -0.2217
 9595W        W27799   0.922  15.584  12.630 -0.0824 -0.0376 -0.1605
 9596W        W27800   0.106  10.704  12.103 -0.3325  0.1174  0.0083
 9597W        W27801   9.156   5.210   5.599  0.1451 -0.2892  0.1385
 9598W        W27802   3.323  11.668  11.562 -0.0225  0.1102 -0.1673
 9599W        W27803  12.623  13.008  14.369 -0.2614  0.0064 -0.0555
 9600W        W27804   7.599   2.255   3.032 -0.2035 -0.0343 -0.1392
 9601W        W27805  10.937  18.122  14.579  0.0494  0.0134  0.0631
 9602W        W27806  16.697  16.931   0.566 -0.1601 -0.1519  0.4804
 9603W        W27807  10.754   0.823  13.744  0.0309  0.0671  0.0957
 9604W        W27808  10.658  13.881  12.786  0.3487  0.2437  0.1818
 9605W        W27809   1.444  13.228   4.109 -0.0772  0.2482  0.2030
 9606W        W27810  17.225  16.030  10.828 -0.0512  0.2025  0.1206
 9607W        W27811   2.681   6.712  14.804 -0.0820 -0.1684  0.1082
 9608W        W27812  10.574  18.933   0.116 -0.2794  0.0433 -0.1212
 9609W        W27813   1.993   4.663   9.508  0.0012  0.1038 -0.2898
 9610W        W27814  17.272   3.793   2.935 -0.0970  0.0388  0.0962
 9611W        W27815   5.579   3.180  13.712 -0.2030  0.3131  0.0866
 9612W        W27816   4.592   8.988   1.600  0.1020 -0.2985 -0.1771
 9613W        W27817   1.443  10.624  11.666  0.0957 -0.3165  0.4443
 9614W        W27818   2.624   1.443  11.174  0.0258  0.0412 -0.3000
 9615W        W27819  18.544  14.305   0.121  0.1021  0.1004  0.3168
 9616W        W27820  10.887   6.770   4.340 -0.2673  0.1153  0.1777
 9617W        W27821  10.763  18.447  11.572  0.1828  0.0506 -0.1782
 9618W        W27822   3.471   0.432  14.510  0.0130  0.0007 -0.2851
 9619W        W27823   2.467  17.987   4.499  0.2231  0.1617  0.0240
 9620W        W27824  13.049  15.280   0.743 -0.2220  0.0145 -0.2096
 9621W        W27825   2.759  10.989   1.372  0.0527 -0.2729 -0.1298
 9622W        W27826  16.981  11.608  11.258 -0.0445 -0.5659  0.0126
 9623W        W27827  18.324  13.075  11.606 -0.0441  0.1199 -0.1678
 9624W        W27828   6.810  10.525  11.521 -0.1491  0.2033 -0.2883
 9625W        W27829   6.595  16.590   1.489 -0.2598 -0.2510 -0.3743
 9626W        W27830  15.561  13.404   2.137 -0.0386  0.2962  0.0264
 9627W        W27831   7.388   0.596  12.483 -0.1368 -0.0374  0.2254
 9628W        W27832  12.267  17.658  14.250  0.0824  0.2131  0.2097
 9629W        W27833   0.225   2.328  14.489  0.0766  0.3101 -0.0754
 9630W        W27834  16.202  18.785   1.272  0.1345  0.1302  0.0694
 9631W        W27835  13.097   6.888   3.144  0.1012 -0.0108 -0.0790
 9632W        W27836   9.411   7.993  11.566  0.1063  0.0421 -0.1017
 9633W        W27837   6.187   0.629   0.592  0.2199  0.2921 -0.1284
 9634W        W27838   8.274  15.257  12.526 -0.1828  0.2134 -0.0641
 9635W        W27839   1.375   5.130   4.477  0.0922  0.3492  0.0948
 9636W        W27840  15.275   6.313  11.552  0.0674 -0.0827 -0.3785
 9637W        W27841   5.309   1.758   4.406 -0.3067 -0.0735 -0.2031
 9638W        W27842   4.227  10.772  13.958 -0.3121 -0.0554  0.3542
 9639W        W27843  16.610  11.883   3.007 -0.2134 -0.1608  0.1212
 9640W        W27844  15.824   3.377   2.861  0.0435 -0.2432 -0.3241
 9641W        W27845   3.582  16.597  13.956  0.1596 -0.0532 -0.0925
 9642W        W27846  12.227   9.501  10.673  0.1076 -0.0195  0.0952
 9643W        W27847   8.502   1.348  11.433  0.0515  0.0685  0.0394
 9644W        W27848   9.424   6.371   4.238 -0.1276 -0.0702  0.2066
 9645W        W27849  14.640  13.960   4.126  0.2417  0.4033  0.1334
 9646W        W27850  18.049  17.196   9.629 -0.0502 -0.1287  0.1631
 9647W        W27851  15.943  13.603  10.464  0.2076  0.3404  0.0590
 9648W        W27852   5.320   8.684   5.570  0.1319 -0.1272  0.1688
 9649W        W27853  10.753   6.622  10.788 -0.0268 -0.1718 -0.1638
 9650W        W27854   2.147   4.970   0.330  0.0647  0.0439  0.0036
 9651W        W27855  13.751   8.262  10.753 -0.0897  0.4314 -0.3988
 9652W        W27856  10.263  15.844  10.394  0.2124 -0.0141  0.1931
 9653W        W27857  12.050  14.518   4.082  0.2719 -0.3319 -0.2834
 9654W        W27858   1.566  18.410   3.114 -0.1343 -0.3669 -0.0752
 9655W        W27859   2.723   5.952  15.018  0.2486  0.5286 -0.2738
 9656W        W27860   2.643   8.577   3.866  0.2372  0.1609 -0.3039
 9657W        W27861  14.862  16.686   4.140 -0.1391 -0.0918  0.1445
 9658W        W27862  10.995  14.170  13.041 -0.0232 -0.0501 -0.2411
 9659W        W27863   2.054  13.025  12.529  0.2314  0.1690  0.0443
 9660W        W27864   5.842   2.999   1.504  0.0509 -0.1472  0.1232
 9661W        W27865  15.076  10.287   5.754 -0.1352 -0.0220  0.1435
 9662W        W27866   7.289  17.882  11.185 -0.2170 -0.1863 -0.3038
 9663W        W27867  10.396   7.381   3.671 -0.0490 -0.0931 -0.0792
 9664W        W27868  13.194   7.533  14.640 -0.1067 -0.0883 -0.0092
 9665W        W27869  16.862   3.034   1.519  0.1821  0.0178 -0.1165
 9666W        W27870  14.817  12.824  12.249 -0.2040 -0.0439  0.1788
 9667W        W27871  14.963  10.067   3.538  0.2127 -0.1342  0.0963
 9668W        W27872   2.179   5.427   0.119  0.0361 -0.0339 -0.2351
 9669W        W27873  15.587   4.302   2.288  0.1228 -0.0652 -0.2074
 9670W        W27874  10.478  16.889   3.192  0.3670  0.4268  0.3719
 9671W        W27875   7.819  13.378   2.391  0.2481  0.0290  0.1213
 9672W        W27876   6.824  15.146  14.438  0.1665  0.0425  0.0601
 9673W        W27877   4.984   5.250  10.542 -0.1350 -0.1577  0.0549
 9674W        W27878   7.828   2.463   2.533  0.3924  0.0587  0.1078
 9675W        W27879   6.573   0.558   0.305  0.1116 -0.0151 -0.0495
 9676W        W27880   9.298   8.289  11.962 -0.0591 -0.4073 -0.2101
 9677W        W27881  12.058  11.349   1.474 -0.1343 -0.0065  0.1585
 9678W        W27882   4.695  16.542  12.410 -0.0311 -0.0487  0.1582
 9679W        W27883   4.086   2.442   3.749 -0.0291  0.1983 -0.1334
 9680W        W27884   2.658   9.616   1.453  0.0538 -0.0866 -0.1960
 9681W        W27885   7.589   1.426  11.057  0.0022 -0.0451 -0.1311
 9682W        W27886  15.539   3.949  14.449 -0.1836  0.3154  0.0420
 9683W        W27887   6.975  18.750  12.696 -0.0305 -0.0744  0.1846
 9684W        W27888  14.896  12.116   1.971 -0.0066 -0.1755  0.2911
 9685W        W27889   1.649  14.075  11.572  0.3854  0.1355 -0.0961
 9686W        W27890   8.657  17.051   3.157  0.2280  0.1489  0.0499
 9687W        W27891  12.594   4.036   9.781  0.0336  0.0569 -0.1391
 9688W        W27892  16.149   8.503  10.715 -0.1517  0.1165 -0.0804
 9689W        W27893  16.720   3.865  13.979  0.1270 -0.0062 -0.0794
 9690W        W27894   6.325  16.362  13.800  0.0251  0.0986 -0.2373
 9691W        W27895  12.840  10.191   0.412 -0.1648 -0.1624  0.4036
 9692W        W27896  11.006  17.069  11.197 -0.2251 -0.2321  0.2926
 9693W        W27897   2.783   2.178  13.634  0.1080 -0.2959  0.0912
 9694W        W27898   9.159   1.056  11.965 -0.1089 -0.2141 -0.0316
 9695W        W27899  12.225   3.099  12.187  0.1224  0.3087  0.0983
 9696W        W27900  14.636   9.581   4.195  0.1042 -0.1000  0.2253
 9697W        W27901   3.837  13.566  14.756 -0.0643  0.0266  0.0910
 9698W        W27902   0.489  12.922   3.567 -0.1372 -0.0768 -0.3937
 9699W        W27903  18.385  15.177  14.850 -0.0478 -0.2415 -0.0818
 9700W        W27904   1.991   7.098  13.682  0.1232  0.1678 -0.2284
 9701W        W27905   9.727   1.512  14.188 -0.2079  0.3307 -0.3273
 9702W        W27906  10.314   0.334  11.858  0.2370 -0.0465  0.2279
 9703W        W27907   0.950  17.945  14.030  0.3125  0.1788 -0.0367
 9704W        W27908   4.400   5.232  12.090 -0.3588 -0.5472  0.0616
 9705W        W27909   9.484   5.637   1.988  0.0459  0.2077  0.1904
 9706W        W27910  10.202   6.443   2.217 -0.1519  0.4376  0.1278
 9707W        W27911  11.816   1.449   0.310  0.0357 -0.0949  0.1859
 9708W        W27912   0.162  16.497  12.444 -0.0421 -0.0924 -0.2165
 9709W        W27913  13.152   6.572  14.103  0.0679  0.0395 -0.1135
 9710W        W27914  15.655  16.618   2.183  0.0163 -0.2191 -0.2021
 9711W        W27915   4.773   7.832  13.372  0.1162 -0.1864 -0.0500
 9712W        W27916   8.252   1.891  11.449  0.1904 -0.6269  0.2112
 9713W        W27917   1.935   8.983   0.720 -0.0217  0.4464  0.3523
 9714W        W27918  14.002   3.618   2.376 -0.2170 -0.0007 -0.1787
 9715W        W27919   9.896  18.607   4.567  0.3101  0.0090 -0.0713
 9716W        W27920   1.899   2.987  12.543 -0.1746  0.2364 -0.1219
 9717W        W27921   8.721   9.822  11.123 -0.0926 -0.0122  0.1695
 9718W        W27922  17.936  15.943   1.480 -0.2444  0.0476  0.0271
 9719W        W27923   6.558  13.795  15.030 -0.0267 -0.1702  0.0220
 9720W        W27924   7.186   7.200  10.697 -0.1441  0.1177  0.0210
 9721W        W27925  12.325  12.768  11.234 -0.1143  0.1149 -0.1269
 9722W        W27926  17.907  15.487   3.829  0.3033 -0.0658  0.1932
 9723W        W27927   5.794  13.642   2.594  0.0423 -0.0706 -0.0613
 9724W        W27928  10.249  12.402   2.905  0.0247  0.0452  0.1000
 9725W        W27929   2.902   9.320   2.293 -0.1721 -0.0436  0.0053
 9726W        W27930  17.586   2.379  12.726  0.3872  0.3451 -0.3106
 9727W        W27931  15.928   2.118   2.096  0.1610 -0.0301  0.1272
 9728W        W27932   8.176   7.683   4.363  0.2116 -0.0312  0.1366
 9729W        W27933  11.703   5.446   3.703 -0.2259 -0.1607  0.2641
 9730W        W27934   3.097   0.656  11.129  0.1244 -0.2605 -0.1468
 9731W        W27935   5.468   9.704  12.584 -0.2285 -0.0811 -0.0665
 9732W        W27936   2.579   8.542  13.300  0.0370 -0.0965 -0.1948
 9733W        W27937   6.127  14.489   2.181  0.0187 -0.1164  0.0603
 9734W        W27938  13.861   4.366  12.660 -0.2135  0.0384 -0.1096
 9735W        W27939  17.041  16.864   2.776 -0.1753 -0.2086 -0.0100
 9736W        W27940   1.607  16.534  13.821  0.0245 -0.0736  0.1374
 9737W        W27941  18.483  14.055   2.168 -0.0262 -0.1228 -0.1454
 9738W        W27942  11.289   0.569   1.397 -0.3347  0.1550 -0.1988
 9739W        W27943   0.285   7.408  11.718 -0.1204  0.0652  0.1398
 9740W        W27944   4.403  15.732  12.837 -0.1616  0.1492  0.3926
 9741W        W27945  16.494   2.495  14.122  0.0232 -0.0113 -0.1558
 9742W        W27946  12.332   7.548  14.239  0.2669 -0.1135  0.0949
 9743W        W27947   9.503   6.385  11.015 -0.2939  0.0955  0.0151
 9744W        W27948  14.644   5.931  12.983  0.0759  0.2413  0.1047
 9745W        W27949   9.562   0.023   3.703 -0.0465 -0.4492  0.0040
 9746W        W27950  16.070   9.079   5.183 -0.3856  0.0029  0.0792
 9747W        W27951   6.001   8.125   1.215  0.1932 -0.1766  0.0652
 9748W        W27952  17.591   8.942  10.740  0.1758 -0.3493  0.0919
 9749W        W27953  12.591  13.605   1.494  0.0297 -0.0012  0.2902
 9750W        W27954   8.522  10.435  11.923  0.0060  0.1746 -0.1173
 9751W        W27955   0.444   2.354   1.571 -0.0706 -0.0161  0.0845
 9752W        W27956   8.306   0.416   0.893  0.0365  0.1733  0.0816
 9753W        W27957   5.555   9.995  10.698 -0.4480 -0.2131  0.2047
 9754W        W27958   2.847   3.657  10.354  0.1160 -0.1441  0.1493
 9755W        W27959   3.469  14.906   0.358  0.0744  0.0325  0.0059
 9756W        W27960   8.732   7.924  14.008 -0.0541  0.1751 -0.1552
 9757W        W27961  12.645  18.805  11.327  0.1084 -0.0628 -0.1510
 9758W        W27962   3.494   4.758   2.531  0.0793  0.0734 -0.2111
 9759W        W27963   8.135   1.989  14.722  0.3864  0.1984  0.0985
 9760W        W27964   0.638  18.145   2.831 -0.2362  0.2535  0.0297
 9761W        W27965  17.578   6.806  11.660 -0.0613 -0.0426  0.1412
 9762W        W27966   4.417   6.559  13.284 -0.2531  0.0408  0.1231
 9763W        W27967   7.317  12.803  11.017  0.1340 -0.0129 -0.0606
 9764W        W27968  11.306   0.833  12.553  0.1731 -0.0544  0.0210
 9765W        W27969   8.093   4.395   1.598 -0.1911 -0.3243  0.2714
 9766W        W27970  10.468   9.196   1.805  0.2410 -0.0024  0.0562
 9767W        W27971   3.335  11.627   1.851  0.2690  0.0818 -0.0108
 9768W        W27972  18.624   5.113   1.169 -0.2432  0.3175  0.0980
 9769W        W27973   1.577   3.656   2.006  0.0699 -0.1845  0.3512
 9770W        W27974   1.175  10.472   5.530  0.0766 -0.1732  0.0931
 9771W        W27975  12.935  17.174  10.862 -0.0638 -0.0417 -0.0323
 9772W        W27976  18.106  12.600  13.000  0.0348 -0.0103 -0.2997
 9773W        W27977  16.476   1.562  12.714  0.1435  0.3064  0.0767
 9774W        W27978   9.683  12.569   1.014  0.2816 -0.2498 -0.2814
 9775W        W27979   0.877   1.934   0.080 -0.1095  0.1022  0.1010
 9776W        W27980   0.645  13.628  14.327 -0.1437  0.1387  0.1567
 9777W        W27981   3.254  12.904   1.525 -0.0947 -0.0063 -0.2438
 9778W        W27982  10.611  11.524   1.097  0.2313 -0.1020 -0.1916
 9779W        W27983  10.737  16.211   0.893 -0.2602  0.0658  0.1758
 9780W        W27984  11.618   3.543  13.958  0.1441 -0.1362  0.1511
 9781W        W27985  15.488  14.382   4.076  0.2755 -0.1604 -0.2873
 9782W        W27986  11.364   4.627   2.872 -0.0245 -0.2129 -0.0367
 9783W        W27987  11.366  13.484   3.956  0.1005  0.0959  0.2904
 9784W        W27988   1.021   2.552   2.623  0.0322  0.0817 -0.0181
 9785W        W27989  14.401  16.068   4.213  0.3152  0.1308  0.1231
 9786W        W27990   4.357   8.063   0.048  0.0177  0.1811 -0.2641
 9787W        W27991   4.857   9.598  10.538 -0.0366  0.4581 -0.1727
 9788W        W27992   2.709  10.425  12.801 -0.1725 -0.2428  0.0267
 9789W        W27993  14.912  17.874   0.407  0.3073 -0.2251 -0.2368
 9790W        W27994  18.921   5.716  14.552  0.0064 -0.1416  0.0524
 9791W        W27995  14.667  15.098  13.285  0.1741  0.1675 -0.0346
 9792W        W27996  15.298  13.264  11.705 -0.1398  0.1017 -0.0498
 9793W        W27997   0.332   1.025  13.828 -0.3995 -0.1544  0.4075
 9794W        W27998   3.402   5.078   1.041 -0.1965 -0.0392  0.0288
 9795W        W27999  18.183   4.150  14.504 -0.0132  0.0103 -0.1287
 9796W        W28000   9.699   5.561   3.828  0.0298 -0.4097  0.0248
 9797W        W28001   6.189  16.034   0.348 -0.3575  0.2891  0.0375
 9798W        W28002  10.430  10.368   0.792  0.0924  0.1000  0.0405
 9799W        W28003  10.164   8.680  12.959 -0.0239 -0.4327 -0.1636
 9800W        W28004   7.417   0.897   0.868  0.0410  0.0517 -0.1656
 9801W        W28005  16.024   6.973   2.079  0.3504 -0.0220 -0.0488
 9802W        W28006  14.499  13.305   1.681  0.1087  0.0113 -0.2735
 9803W        W28007  17.629   4.866   0.497  0.0491  0.1180  0.0668
 9804W        W28008   3.702   1.366  12.150  0.3247 -0.0114 -0.1820
 9805W        W28009  10.082   4.572   2.754 -0.1298  0.0331  0.3178
 9806W        W28010  15.364  16.659   3.874 -0.1611 -0.1583  0.0733
 9807W        W28011  13.178   2.032   0.808 -0.2323  0.0495  0.0829
 9808W        W28012   1.922  15.067  11.377 -0.1625 -0.1057  0.1667
 9809W        W28013   5.479  12.602   2.929  0.1429 -0.1714 -0.3550
 9810W        W28014  16.581   7.003   3.373 -0.0371  0.0025  0.0944
 9811W        W28015  17.440   1.532  14.991 -0.1759 -0.2234 -0.1259
 9812W        W28016  13.544   4.095  13.598 -0.2315  0.0467  0.1695
 9813W        W28017  10.407  10.989  12.031  0.0763 -0.1422  0.2303
 9814W        W28018   4.409   4.696  10.257  0.2583  0.0701 -0.1068
 9815W        W28019  14.945  12.941   0.024 -0.0056  0.1358  0.0229
 9816W        W28020  16.831  18.513  12.783 -0.2979  0.0680  0.1703
 9817W        W28021   2.218  10.844   4.085 -0.2594 -0.0273 -0.4007
 9818W        W28022  15.862   7.091  13.367 -0.1924  0.0642 -0.0654
 9819W        W28023   4.105   5.385  13.551 -0.0902 -0.2617  0.0962
 9820W        W28024   2.312   3.813  12.913  0.1745  0.1965  0.1034
 9821W        W28025   7.218   2.730  11.781  0.1767 -0.1763 -0.1669
 9822W        W28026  12.861   7.118  11.595 -0.1056  0.0704 -0.0365
 9823W        W28027  16.832  11.309   0.499  0.0215 -0.0740 -0.2501
 9824W        W28028   6.664  10.800   2.852  0.0997  0.2666  0.1318
 9825W        W28029   7.367  16.331   0.374 -0.0947 -0.1432  0.2152
 9826W        W28030   5.684   0.218   5.793  0.0677  0.1092 -0.4506
 9827W        W28031  10.643  11.718  13.437 -0.1374 -0.2716 -0.2948
 9828W        W28032  13.288  12.009  14.864  0.0887  0.2213 -0.0942
 9829W        W28033  18.653   6.044   1.664  0.2485 -0.0025  0.0805
 9830W        W28034  10.810   4.691   4.031  0.1756 -0.0185  0.0232
 9831W        W28035  16.198  16.443   2.157 -0.1078  0.1347 -0.2744
 9832W        W28036  18.125   5.889   3.165  0.0697 -0.0916  0.1561
 9833W        W28037   0.490  13.185  13.694  0.1475  0.0895 -0.0028
 9834W        W28038  16.676   5.456   0.984  0.1749 -0.0068 -0.0794
 9835W        W28039   4.821  12.935   2.538  0.1856 -0.1256  0.2550
 9836W        W28040  10.177  17.756   1.846  0.0148 -0.1449  0.0004
 9837W        W28041   7.827   4.825  10.792 -0.1268 -0.2209 -0.0562
 9838W        W28042  18.708   8.168  12.397 -0.1274  0.3095  0.2072
 9839W        W28043   9.921  18.799   3.361 -0.0070  0.0840  0.2443
 9840W        W28044   3.577   2.093  14.781  0.2298  0.0363 -0.0592
 9841W        W28045  11.067  17.977  10.851  0.0246  0.1401  0.2885
 9842W        W28046  18.222   7.266   3.610  0.2639 -0.2205  0.1620
 9843W        W28047  18.433  10.526  13.532  0.0889  0.1959  0.1744
 9844W        W28048  14.309   2.222   2.585 -0.1521  0.3842 -0.0290
 9845W        W28049   8.118  12.057  13.700 -0.0366 -0.2051 -0.3372
 9846W        W28050  12.725   7.742   1.921  0.0450 -0.0111 -0.2160
 9847W        W28051   4.464  10.821   4.131 -0.0390 -0.1359 -0.1511
 9848W        W28052   4.091  11.787  14.107  0.0968  0.2599  0.2990
 9849W        W28053   4.872   9.064  11.688 -0.0198  0.0547 -0.0656
 9850W        W28054   9.282   2.238  11.510  0.4444  0.2454  0.1681
 9851W        W28055  14.664   1.247  11.321 -0.0213  0.0650 -0.0066
 9852W        W28056  17.433   5.691   9.814  0.3320  0.0341 -0.2190
 9853W        W28057   0.577   8.086   1.355  0.1181 -0.0504  0.2058
 9854W        W28058  10.567  13.545  11.171 -0.1961  0.0924 -0.0765
 9855W        W28059  17.717  17.240  12.077  0.2406 -0.0419 -0.1636
 9856W        W28060   4.303   8.198   2.739 -0.0496 -0.1559 -0.0132
 9857W        W28061   2.141  18.915   2.583 -0.0516  0.1790 -0.0901
 9858W        W28062   8.876   2.696   0.177 -0.0630 -0.1937 -0.5315
 9859W        W28063  13.061   3.514  12.909  0.4181 -0.1186  0.1515
 9860W        W28064  16.620  10.578  14.651  0.3415 -0.0351  0.0770
 9861W        W28065  13.914   5.673  14.584 -0.0049 -0.0835  0.0473
 9862W        W28066  10.982   5.648  14.339 -0.1366  0.1530  0.0752
 9863W        W28067  15.439  11.311  10.415 -0.0211  0.1060  0.0014
 9864W        W28068   1.672  15.340   1.791 -0.2095  0.0672 -0.8071
 9865W        W28069   0.531  17.524  14.531 -0.1070  0.1451 -0.2350
 9866W        W28070  17.445   3.489   2.308  0.1698 -0.0742 -0.0234
 9867W        W28071  17.010  15.087   3.003 -0.2526 -0.1789  0.4909
 9868W        W28072  14.315  16.257   0.858 -0.3223  0.0014 -0.0006
 9869W        W28073   5.779   5.279  12.823  0.1796  0.0858 -0.0580
 9870W        W28074   6.164  17.284  12.119  0.4315 -0.1666  0.1357
 9871W        W28075   8.297   5.735  14.801  0.0763  0.0881  0.1079
 9872W        W28076  12.354  13.692  13.275  0.2180  0.1171  0.1070
 9873W        W28077  11.659  10.946   4.318 -0.1321  0.1649 -0.0236
 9874W        W28078   0.720   2.713  10.767  0.0497 -0.0454  0.5132
 9875W        W28079  13.943   0.660  11.416 -0.0262 -0.1302 -0.1928
 9876W        W28080  16.598   4.999   4.926  0.2175  0.0703 -0.1008
 9877W        W28081   3.854  16.140   0.043 -0.1422 -0.1623  0.0425
 9878W        W28082  14.062  17.700   0.939 -0.2358 -0.0694 -0.0337
 9879W        W28083   6.788  12.008  13.305 -0.2808 -0.0205  0.1273
 9880W        W28084   8.260   6.997  14.086  0.0630 -0.1402 -0.2880
 9881W        W28085  17.382  16.772  13.812 -0.0313  0.0011  0.2843
 9882W        W28086  16.715   8.174   2.565 -0.1087 -0.0213  0.2022
 9883W        W28087   0.442  15.658   4.040 -0.2900 -0.1243 -0.0284
 9884W        W28088   4.970  10.588   0.908 -0.0628  0.0522  0.0455
 9885W        W28089   4.618   6.085  11.914  0.1459  0.1124  0.0951
 9886W        W28090   0.803   8.625   3.650  0.1011 -0.0284  0.2329
 9887W        W28091   8.197   9.527  13.484  0.1026 -0.0006 -0.0885
 9888W        W28092  10.650   4.470   2.416 -0.1776 -0.0662  0.1315
 9889W        W28093   1.938   7.317   2.024 -0.0598 -0.1176  0.2072
 9890W        W28094   5.520  10.295  13.379 -0.1865 -0.0350 -0.0148
 9891W        W28095  16.046   4.202  14.790  0.1142 -0.2478 -0.2455
 9892W        W28096   0.446   2.824  14.337 -0.0734 -0.3040 -0.2040
 9893W        W28097  14.623   9.330   5.397 -0.3271 -0.1709  0.2653
 9894W        W28098  17.494  12.903   4.230 -0.0694  0.0084  0.0646
 9895W        W28099  16.009   2.238  12.326  0.3977 -0.0039  0.3350
 9896W        W28100   7.087  11.399   0.954  0.0430 -0.3069  0.1557
 9897W        W28101  17.184  10.197  14.188  0.2195 -0.1681  0.0052
 9898W        W28102  17.832  14.776   3.377 -0.1850  0.1008  0.0794
 9899W        W28103   5.240   7.090   3.997  0.0308  0.2518 -0.1653
 9900W        W28104   8.787  13.050   3.827  0.1023  0.1032  0.5450
 9901W        W28105  10.117  16.650  11.476  0.0317  0.3630  0.1657
 9902W        W28106  12.697   6.009   0.505  0.2475 -0.2046 -0.0719
 9903W        W28107  16.385   0.967   3.973  0.2086  0.0256  0.0328
 9904W        W28108   6.822  15.574  11.256  0.0324  0.3936  0.0148
 9905W        W28109  15.466   7.855   3.952  0.1227 -0.1079  0.1652
 9906W        W28110  11.781  17.845  12.401  0.2227  0.0695  0.0391
 9907W        W28111  11.099  13.652  12.122  0.1221 -0.1669 -0.2872
 9908W        W28112  10.184  12.627   0.304 -0.1213  0.2793  0.0716
 9909W        W28113  15.109  14.236  13.932  0.0466  0.4234  0.2151
 9910W        W28114  11.653   5.703  13.459  0.1454  0.1450 -0.1360
 9911W        W28115  13.879  13.138   2.660 -0.1432  0.3684  0.2825
 9912W        W28116   7.499  12.442  13.038 -0.0669  0.0493  0.0090
 9913W        W28117   3.824   7.229   3.303  0.2194 -0.0516  0.1287
 9914W        W28118   7.163  14.057   0.897  0.0480 -0.2619  0.2051
 9915W        W28119   4.082  13.143   3.793  0.0251  0.2010 -0.3385
 9916W        W28120   7.607   5.310  14.597  0.0600  0.2411  0.0119
 9917W        W28121  14.626   6.247   0.045 -0.0863  0.3216 -0.0472
 9918W        W28122   7.325  16.995  13.785 -0.0810  0.0437  0.0509
 9919W        W28123  11.246   3.148   4.171  0.0945  0.0352 -0.2042
 9920W        W28124  17.132  12.557   4.495 -0.3645  0.1270  0.1952
 9921W        W28125   9.596  17.770  14.465  0.3813 -0.0064  0.1225
 9922W        W28126  15.966   4.928   1.641 -0.0714  0.1644 -0.1983
 9923W        W28127   8.260   1.260   5.246  0.1843  0.2471  0.1149
 9924W        W28128   7.059   0.697   1.153 -0.3646  0.1596  0.0504
 9925W        W28129  16.522   9.838   1.102  0.0651  0.3223 -0.0320
 9926W        W28130   3.449  16.438   2.019 -0.1131 -0.1691  0.0093
 9927W        W28131  16.132   1.648  12.277 -0.3091 -0.0325 -0.2335
 9928W        W28132  14.708  12.877  13.180  0.0718 -0.1527  0.2375
 9929W        W28133  14.572   4.082   1.095  0.0175 -0.2613  0.1087
 9930W        W28134   0.181   2.089   5.470 -0.0970 -0.0574 -0.0754
 9931W        W28135  13.816  18.684  14.509 -0.1210  0.0975  0.3248
 9932W        W28136   8.245   3.211  14.631  0.1139 -0.2933  0.0800
 9933W        W28137   5.796  18.844   1.181  0.0349 -0.0847 -0.3855
 9934W        W28138  13.736   6.150  11.215  0.1868 -0.0562 -0.0086
 9935W        W28139  16.189   9.139   1.682 -0.0541  0.0331  0.3612
 9936W        W28140   7.951  11.706  12.609 -0.0216 -0.1861  0.3128
 9937W        W28141  12.257   3.396   1.961  0.2751 -0.0807 -0.0250
 9938W        W28142   4.650   9.730  12.327 -0.0162 -0.1101 -0.1417
 9939W        W28143  11.066  16.779  13.287  0.0709 -0.1415  0.2553
 9940W        W28144   0.965   1.535   2.376  0.0667 -0.0067 -0.3855
 9941W        W28145  12.773  15.346  14.928  0.0087 -0.0305 -0.2835
 9942W        W28146  16.815   2.273   3.653 -0.1390  0.0887  0.0415
 9943W        W28147  12.609  15.200   3.299 -0.0074 -0.1917 -0.0462
 9944W        W28148   6.977  17.843  12.190  0.1634 -0.0142  0.1110
 9945W        W28149   7.345   4.659  14.655  0.0774 -0.0312 -0.3740
 9946W        W28150  13.918  14.746  13.330  0.4812  0.3636 -0.4386
 9947W        W28151   2.572   4.414   2.410  0.0192 -0.0345  0.4280
 9948W        W28152   9.606   4.770   2.676  0.2744  0.2170  0.1172
 9949W        W28153  16.882  11.866   3.991 -0.0713  0.0819  0.0001
 9950W        W28154  16.007  11.215  14.212  0.2427  0.0327  0.1840
 9951W        W28155   2.027  14.689  14.438 -0.1850  0.0343  0.0074
 9952W        W28156  12.089  13.893  10.628 -0.0305  0.0714  0.2367
 9953W        W28157  16.523  18.796   0.048 -0.0676  0.1607  0.2179
 9954W        W28158   0.743  16.731  13.193 -0.1171 -0.0129 -0.0118
 9955W        W28159  14.556   1.280  12.757 -0.2369  0.2050  0.0263
 9956W        W28160  11.130  16.592  11.245 -0.2436 -0.1256  0.1008
 9957W        W28161  12.025  12.298  12.806  0.0603  0.1160 -0.4838
 9958W        W28162   0.894  17.058  13.548 -0.0979  0.2943  0.0332
 9959W        W28163   1.981  18.014  11.459 -0.0137  0.1239 -0.3245
 9960W        W28164  16.665  10.488   3.834  0.1084  0.4228  0.0817
 9961W        W28165  15.003  14.687   0.448 -0.1160  0.0033 -0.1216
 9962W        W28166   2.719   1.303   3.781 -0.1033  0.1069 -0.0122
 9963W        W28167   4.476  14.162   2.820  0.1448 -0.0502  0.2037
 9964W        W28168  12.444   1.833  12.517 -0.0376 -0.0496 -0.0823
 9965W        W28169   3.226   3.333   3.178  0.1652 -0.1237 -0.0571
 9966W        W28170   0.987  10.705   2.939  0.2380 -0.2336  0.2235
 9967W        W28171   6.781  13.336  13.843 -0.1937 -0.1748  0.1656
 9968W        W28172   8.807  11.946  14.357 -0.0836 -0.1210  0.1136
 9969W        W28173   7.020  12.279  12.925 -0.3364 -0.1144  0.1325
 9970W        W28174  14.072   0.100  10.677  0.0258 -0.0654  0.0200
 9971W        W28175  13.407   8.653   5.308 -0.1203 -0.0533  0.4188
 9972W        W28176  16.099   7.741  14.647  0.0759 -0.3505 -0.2629
 9973W        W28177  18.244   9.352   4.104  0.0530 -0.0092 -0.4292
 9974W        W28178   9.023  17.875   0.715 -0.1168 -0.0795  0.2234
 9975W        W28179   2.777   9.106  11.830  0.1780 -0.0782  0.0887
 9976W        W28180  11.882  10.577   2.134  0.0110  0.4093 -0.1478
 9977W        W28181  18.083   3.790   0.714 -0.0092 -0.0388  0.1194
 9978W        W28182   5.441   9.765   4.326 -0.1978  0.0934 -0.0668
 9979W        W28183  15.953   5.327   3.171 -0.0079  0.0153  0.1868
 9980W        W28184  18.247  11.440  13.794  0.2012  0.1839 -0.0390
 9981W        W28185   9.913  15.746  11.835  0.1273  0.4580 -0.3016
 9982W        W28186  10.996  12.764  10.671 -0.3858  0.3262 -0.2728
 9983W        W28187  18.589  14.517   5.139 -0.0047 -0.1340  0.1905
 9984W        W28188   2.714   1.029   1.111 -0.1419 -0.1556  0.0046
 9985W        W28189   4.510  15.004  11.349 -0.0452 -0.0320  0.1756
 9986W        W28190  15.949   1.669  13.364 -0.0203 -0.1909  0.2560
 9987W        W28191   6.430  13.994   3.783 -0.0024  0.1074  0.0554
 9988W        W28192   7.094   9.995   3.137 -0.0821 -0.1612 -0.0101
 9989W        W28193   7.245   7.860  13.776  0.2798  0.1099  0.0656
 9990W        W28194   4.389   9.219   2.892  0.1240 -0.2993 -0.3025
 9991W        W28195   6.992  17.221  12.841 -0.0270 -0.1555  0.3772
 9992W        W28196   4.595  13.545  12.861  0.2536 -0.2444  0.2894
 9993W        W28197   8.650  15.914   2.369 -0.3489 -0.1342 -0.0979
 9994W        W28198  10.440  14.809   2.565 -0.0760  0.1203  0.1813
 9995W        W28199  11.781  14.475   1.119 -0.0014 -0.1902 -0.3731
 9996W        W28200  17.217  14.296   1.989  0.3012  0.2224  0.0008
 9997W        W28201   4.749  14.545   4.031 -0.1881 -0.0828 -0.1792
 9998W        W28202  12.183  15.381   3.571  0.1697 -0.0316  0.0589
 9999W        W28203   9.133  12.026   4.681  0.0404  0.1126  0.0553
10000W        W28204  14.443  13.501  13.167 -0.5314  0.3747  0.2283
10001W        W28205  10.176  18.707  12.261 -0.1069  0.6311 -0.3189
10002W        W28206  17.330  10.998  13.031 -0.0126 -0.0361 -0.0468
10003W        W28207  18.675   6.886   0.135 -0.2008 -0.2275  0.1559
10004W        W28208   1.763  18.575   1.327 -0.3316  0.1822 -0.0181
10005W        W28209  10.829   7.060   2.843  0.0371  0.3222 -0.3665
10006W        W28210   8.749   0.180  10.949  0.0737 -0.2087 -0.1033
10007W        W28211  16.367  12.954  14.347  0.0190  0.3496  0.0347
10008W        W28212   5.189  12.834   4.775 -0.1508 -0.0635  0.2728
10009W        W28213  12.410  15.729   3.250  0.0623  0.0837  0.0735
10010W        W28214  10.251   1.236  11.619 -0.0159 -0.2266  0.4419
10011W        W28215  15.470   7.802   0.174 -0.0179 -0.3106  0.0849
10012W        W28216   6.835   5.885  12.612 -0.1902  0.0078  0.1143
10013W        W28217  16.237  14.147  14.150 -0.1768 -0.0290  0.0711
10014W        W28218  12.249   9.442  12.666  0.0638 -0.0673 -0.1096
10015W        W28219  18.060  10.101  14.187 -0.1249 -0.0939  0.4120
10016W        W28220  12.406   4.900  11.744 -0.0813 -0.0287 -0.1563
10017W        W28221  11.265  12.887   4.304  0.3925 -0.0629  0.3399
10018W        W28222   0.364   6.729  10.825 -0.1861 -0.1100 -0.1313
10019W        W28223   3.341   0.335   4.431  0.1523  0.0121  0.1997
10020W        W28224   6.832   9.125   4.707 -0.0451 -0.0884  0.0549
10021W        W28225  10.253   3.171   3.477 -0.3783 -0.0065  0.2121
10022W        W28226   9.473   1.540   3.817 -0.0666 -0.3176 -0.1233
10023W        W28227  17.387   4.682  14.344  0.1204 -0.3287 -0.0957
10024W        W28228  15.529  15.219   1.191  0.0359 -0.3540  0.0227
10025W        W28229   3.464   4.393   1.794 -0.0102 -0.2495  0.4007
10026W        W28230   8.940  15.937  12.810  0.2613 -0.4351  0.3349
10027W        W28231  15.768  14.494  12.014  0.1768  0.5115  0.0772
10028W        W28232  11.894  11.693   2.979 -0.1498  0.0957  0.1900
10029W        W28233   5.868   9.453  11.789  0.1731 -0.2923  0.1210
10030W        W28234   3.037   5.993   3.596 -0.5117 -0.2857  0.5386
10031W        W28235  10.235   3.575  13.494  0.0825 -0.0862 -0.2141
10032W        W28236   7.087  16.757   1.647 -0.0436 -0.2322  0.1027
10033W        W28237   1.349   6.975  12.938  0.1065  0.0359  0.1894
10034W        W28238  16.634  14.623  13.911  0.1206 -0.1700 -0.0010
10035W        W28239   3.926  15.048   4.137 -0.2560  0.1308  0.1246
10036W        W28240  16.782   6.063   1.656 -0.1788 -0.2361  0.5129
10037W        W28241   6.640   8.805   2.265  0.1823 -0.0800 -0.0401
10038W        W28242   2.963  12.605  13.891 -0.0881  0.2362 -0.2416
10039W        W28243  16.633  10.463  10.988  0.1627 -0.1949  0.4254
10040W        W28244   7.427   4.314   1.016  0.2679 -0.0116  0.0939
10041W        W28245   6.144   0.282   3.608 -0.0658 -0.0554 -0.1291
10042W        W28246   1.885  12.147   3.661  0.0286  0.0416 -0.4445
10043W        W28247  11.404   5.159   1.232 -0.2778  0.0407  0.2879
10044W        W28248   0.465  14.155  13.435 -0.1112 -0.0732 -0.0212
10045W        W28249   0.413  10.376   0.401  0.3568 -0.2489 -0.2296
10046W        W28250  15.592   7.124   0.934  0.0667  0.1691 -0.2210
10047W        W28251  10.906  17.755  12.155 -0.0259  0.1764  0.0102
10048W        W28252   2.919  14.996  14.081  0.1024 -0.1980  0.0149
10049W        W28253  14.489   2.629   9.478  0.1500  0.3394  0.2309
10050W        W28254  13.895  13.736   3.366  0.3901  0.0511  0.0199
10051W        W28255   0.299  11.391  13.201  0.2149  0.0872 -0.1563
10052W        W28256   2.187  14.105  14.274  0.1090  0.2341 -0.1646
10053W        W28257   9.601  11.756  12.925 -0.1113  0.2151  0.0116
10054W        W28258  14.641   9.091   2.995 -0.3450  0.1378 -0.1045
10055W        W28259   9.017   9.800   3.202 -0.2885 -0.0111 -0.2184
10056W        W28260  11.418   9.466   3.326  0.2334  0.1731  0.0887
10057W        W28261   0.441   9.459  11.561 -0.1557 -0.1153  0.0205
10058W        W28262  13.898   8.926  13.588  0.0632  0.1307 -0.0547
10059W        W28263   0.506   7.207   3.610 -0.0718  0.2055 -0.1300
10060W        W28264  11.352   7.756   0.169 -0.0120  0.0298  0.1144
10061W        W28265  18.246   6.607  14.262 -0.1423 -0.2812 -0.1049
10062W        W28266   0.467  16.224   3.269  0.0095 -0.0092  0.0720
10063W        W28267  11.314  13.990   3.959 -0.1622  0.0721 -0.0198
10064W        W28268  11.468  14.137  12.775 -0.1519  0.0940 -0.0999
10065W        W28269   7.656   2.677   1.595  0.1146 -0.1041 -0.0916
10066W        W28270   6.447  11.282   3.351  0.0286  0.1970 -0.1108
10067W        W28271  17.975  17.182   1.842  0.1442  0.1359 -0.3187
10068W        W28272  15.715  11.943   0.517  0.3615 -0.1151  0.0102
10069W        W28273   9.217   8.626   0.928  0.1858  0.4776  0.0232
10070W        W28274  10.912   1.862  14.479 -0.1788  0.1065  0.0503
10071W        W28275  13.222  10.342   3.983  0.0179 -0.2569  0.0333
10072W        W28276   1.205  15.780  13.200  0.1364  0.2116 -0.1454
10073W        W28277   7.775   9.694  11.212 -0.4032 -0.0323 -0.0753
10074W        W28278   8.137   0.638   2.500 -0.4033 -0.0507  0.1216
10075W        W28279  14.188   5.265  10.953 -0.0992 -0.1256 -0.0970
10076W        W28280  11.433   2.172  11.352 -0.1273  0.1460 -0.0968
10077W        W28281   6.614   7.714   3.184 -0.0605 -0.0926 -0.0085
10078W        W28282   9.207   1.728   2.358  0.3760 -0.1846  0.2605
10079W        W28283   1.588   3.241  13.295 -0.0467 -0.0806 -0.2910
10080W        W28284  14.731   1.132  13.212 -0.0291  0.1309 -0.1168
10081W        W28285  16.840  10.827  13.142 -0.1007  0.0740 -0.0899
10082W        W28286   6.577   1.630  14.799 -0.0631 -0.1384 -0.3480
10083W        W28287  17.892   8.519  11.169  0.1014  0.2285 -0.3036
10084W        W28288  10.363   7.793  12.938  0.0145  0.2374 -0.1029
10085W        W28289  17.591   0.035  11.802  0.0818  0.0370 -0.1115
10086W        W28290   3.432   3.290  14.273  0.2307 -0.1345  0.2422
10087W        W28291   3.342   5.530   2.056 -0.3173 -0.0444  0.1048
10088W        W28292  14.063   7.440  12.021 -0.0118  0.0828 -0.2112
10089W        W28293   4.612  14.272   1.177  0.0844 -0.1348 -0.4043
10090W        W28294   3.896   2.759  10.213  0.0053  0.1101 -0.1392
10091W        W28295   4.922   4.960   3.509 -0.1666  0.0283 -0.1814
10092W        W28296  14.142  15.413   2.034 -0.1619  0.1176 -0.2559
10093W        W28297   0.651   0.675  14.347 -0.0320  0.1891  0.1354
10094W        W28298  15.669   3.981   0.582 -0.2716 -0.1099 -0.3141
10095W        W28299   0.634  10.992  14.231  0.0757  0.2853 -0.2283
10096W        W28300  18.582   1.082   4.023  0.1265 -0.0966 -0.1899
10097W        W28301   5.376  12.422   4.397 -0.0592  0.0969  0.0981
10098W        W28302   9.957  14.507   4.638 -0.2610  0.1605  0.2274
10099W        W28303   9.212  17.502   3.506 -0.1117 -0.0616  0.3306
10100W        W28304  17.286   7.791  14.401  0.0477  0.1260  0.3382
10101W        W28305   8.438   4.546  12.520  0.0904 -0.0604  0.0824
10102W        W28306  11.877  10.286  11.026  0.0003 -0.0247  0.1914
10103W        W28307   2.963   9.349  11.154 -0.4387 -0.0088 -0.3058
10104W        W28308  13.010   1.834  12.444  0.1260 -0.0971 -0.3950
10105W        W28309   4.578  18.238   0.524  0.2615 -0.3573  0.1841
10106W        W28310  16.928  18.906  14.128  0.0827 -0.1296  0.0530
10107W        W28311   6.098  10.518  10.813  0.1152  0.2615 -0.0625
10108W        W28312   2.156   6.603   3.416 -0.2792 -0.1133  0.0900
10109W        W28313   8.908  10.813   4.995  0.2692 -0.1336  0.1319
10110W        W28314  17.560  12.474   2.667  0.1605  0.1285  0.1886
10111W        W28315  15.945   2.873   3.681  0.1493  0.4455  0.1992
10112W        W28316   2.089   0.734   2.047  0.0007 -0.0391 -0.2793
10113W        W28317   6.857  10.471  13.237 -0.0335 -0.0921 -0.0442
10114W        W28318   9.972  16.660   3.232 -0.5181  0.3444 -0.2890
10115W        W28319   0.930  12.413  12.142  0.0336  0.0851 -0.1217
10116W        W28320   1.622  14.279  11.125  0.0636 -0.1324  0.3315
10117W        W28321  11.506   0.437  13.289 -0.0361  0.1561  0.0035
10118W        W28322  10.287   2.892   3.851 -0.1747  0.2050  0.2107
10119W        W28323   1.727   2.721   3.096  0.0791 -0.0006 -0.4857
10120W        W28324  18.828  13.336   1.363  0.1232  0.1385  0.1485
10121W        W28325  13.848   7.478   0.664  0.3940 -0.4563 -0.1555
10122W        W28326   6.970  18.276   3.998  0.0780  0.0072 -0.1240
10123W        W28327  15.715   6.367  14.930  0.0435 -0.0998 -0.1611
10124W        W28328   1.313  12.679   2.675 -0.2474  0.1009 -0.3538
10125W        W28329   7.735  14.182  14.435  0.2195 -0.6517 -0.2999
10126W        W28330   2.793   2.915  12.696 -0.3692 -0.0136  0.0232
10127W        W28331  10.326   1.103   2.749 -0.0540  0.1137  0.1202
10128W        W28332  12.766  11.051  14.407  0.0814 -0.0951  0.0732
10129W        W28333  13.096  10.230   3.512  0.4285  0.1654 -0.3128
10130W        W28334   5.204  16.283  13.636  0.3198  0.0506 -0.0298
10131W        W28335   4.634   1.617  14.857  0.2003  0.1482  0.0186
10132W        W28336   1.880   3.352  12.190 -0.0660  0.1701  0.1273
10133W        W28337   5.436   6.334   1.594  0.1427  0.2105 -0.0436
10134W        W28338   4.338  12.922   1.461 -0.2262  0.0914  0.0351
10135W        W28339  18.439  16.966   1.781 -0.1949  0.1022  0.1380
10136W        W28340   6.228   6.748   1.566 -0.0998 -0.3051  0.1273
10137W        W28341  18.686   5.500   1.539 -0.0813  0.2360  0.2948
10138W        W28342  15.340  12.430   3.335  0.0076  0.0580  0.1524
10139W        W28343  11.607   8.243  12.549 -0.3053  0.1808 -0.0397
10140W        W28344  15.790   0.758  13.272  0.0805 -0.0009  0.0631
10141W        W28345  15.586   9.159   0.422  0.0972 -0.0434  0.0517
10142W        W28346  15.818  13.956  13.282 -0.3840 -0.0110 -0.0339
10143W        W28347  13.445   2.777   1.803  0.0293 -0.1017  0.0237
10144W        W28348   5.149   7.841  13.693  0.2416  0.1410  0.1564
10145W        W28349   2.326  17.877   1.758  0.3677  0.0578  0.2066
10146W        W28350   9.306  17.050   1.236  0.0269 -0.2426  0.2206
10147W        W28351  11.560   5.199   0.695 -0.3668  0.0313 -0.0056
10148W        W28352   9.810   0.153  14.313 -0.0078  0.2378  0.1565
10149W        W28353   9.318   8.306   4.560 -0.1087  0.5071 -0.0825
10150W        W28354  10.497  15.883   3.033 -0.5227 -0.2532  0.0750
10151W        W28355   1.629   4.518   3.059 -0.1955 -0.2278  0.0774
10152W        W28356   4.241   4.434   4.580 -0.0943 -0.1716  0.0050
10153W        W28357   4.295   8.412  14.518  0.3638  0.1194  0.0347
10154W        W28358   5.368   0.870  12.427  0.1233  0.1083 -0.1258
10155W        W28359   0.292   3.045  10.935 -0.1545  0.3248  0.0096
10156W        W28360  16.147   6.159   1.168  0.0449 -0.1976  0.3269
10157W        W28361   3.320   5.241  13.913  0.0871  0.1515  0.0036
10158W        W28362  13.640  13.856   1.674  0.0835  0.1680 -0.0336
10159W        W28363  16.053  10.561   4.098 -0.0145  0.1186  0.0640
10160W        W28364   3.841   3.717   0.814  0.2567  0.0972  0.3059
10161W        W28365   9.176   4.697   1.011 -0.0920 -0.1386 -0.0926
10162W        W28366  13.040  16.181  14.641 -0.0841 -0.1795  0.0545
10163W        W28367  17.539   5.268  13.176 -0.3882 -0.0669 -0.3580
10164W        W28368   8.679  10.657  13.908 -0.0771 -0.2157  0.1355
10165W        W28369  14.724  17.754   1.398  0.2672 -0.2191 -0.0326
10166W        W28370  11.009  15.494   1.279 -0.1819 -0.0367 -0.1799
10167W        W28371  14.441   9.925  12.745  0.2184 -0.0927  0.2411
10168W        W28372   7.781   5.789  14.726 -0.0202 -0.1608  0.0592
10169W        W28373  10.477   3.065   0.991  0.1247  0.0671  0.0186
10170W        W28374  15.847  16.722  14.418 -0.1811 -0.1933 -0.0436
10171W        W28375   2.554   6.851   1.547 -0.0954  0.3508 -0.0633
10172W        W28376  11.236   0.251   1.793  0.1463  0.0333  0.0922
10173W        W28377  10.036  15.694   2.976  0.2939 -0.0482 -0.1764
10174W        W28378  11.216   9.921  12.303 -0.0703 -0.0501 -0.0858
10175W        W28379  15.562  14.656  10.694  0.3461  0.0226  0.0863
10176W        W28380  14.907  17.569  10.897 -0.2817  0.0985  0.0896
10177W        W28381  13.294   6.702   0.424 -0.1819 -0.0768  0.0956
10178W        W28382   3.884  10.296  14.239 -0.1480 -0.0132 -0.2407
10179W        W28383   9.998  11.205   2.040  0.2001 -0.0513  0.1195
10180W        W28384  14.449   2.632  12.517  0.2406  0.1543  0.0700
10181W        W28385   2.692  11.819   3.062  0.0256 -0.2067 -0.1330
10182W        W28386  16.626  15.823  12.151 -0.0597  0.1221  0.1313
10183W        W28387  14.830   8.133  14.152 -0.2607  0.2673 -0.0711
10184W        W28388  18.151   7.955  11.875 -0.0358  0.1938  0.1453
10185W        W28389   7.723   0.846   4.016  0.0638  0.0291 -0.2119
10186W        W28390  13.487  13.238  11.632 -0.2689 -0.0504 -0.0031
10187W        W28391  17.257   8.497  14.234  0.2618  0.0740 -0.2717
10188W        W28392  17.545   7.818   4.834  0.1835 -0.1535  0.0297
10189W        W28393   1.091  13.322   1.131  0.0115  0.0393  0.2089
10190W        W28394   2.760  18.467   0.731 -0.2403  0.1143  0.0877
10191W        W28395  17.908   8.056   2.456 -0.0073  0.2884  0.2473
10192W        W28396  17.424   0.750   1.408 -0.0886 -0.0102  0.0920
10193W        W28397  11.412   5.666   5.229 -0.1498  0.1236 -0.0212
10194W        W28398  11.499  11.984   4.730 -0.0743 -0.4005  0.0944
10195W        W28399   8.429   6.009  13.856 -0.2513  0.1586  0.0370
10196W        W28400   9.486   6.417  13.520  0.1474  0.0967  0.1225
10197W        W28401  10.317   1.225   5.015 -0.0949 -0.4418 -0.1274
10198W        W28402  12.968  12.608  13.217  0.2185 -0.0499 -0.1139
10199W        W28403  18.243  10.050  12.486  0.0171  0.2743 -0.3461
10200W        W28404   2.900  12.440   4.288  0.5122  0.0646  0.0061
10201W        W28405  10.680   9.621  14.743 -0.3297 -0.1726  0.1455
10202W        W28406  14.291   0.433   0.024  0.0786  0.2015 -0.2084
10203W        W28407  15.872  17.099  14.878  0.1032  0.0056  0.1453
10204W        W28408   5.395   0.028  14.645 -0.1981 -0.0773  0.2979
10205W        W28409  17.842   0.386  11.513  0.0792  0.0222  0.0634
10206W        W28410   6.388  12.410  12.707 -0.1770  0.2713  0.0331
10207W        W28411   0.319  12.584   3.882 -0.2319  0.0716 -0.0529
10208W        W28412   1.771  16.054  14.617  0.0288  0.0489  0.1970
10209W        W28413  18.235   7.652  14.476 -0.1522 -0.2026  0.1555
10210W        W28414  12.624   3.783   0.949  0.1004 -0.2350  0.3179
10211W        W28415  12.573   9.591   2.202 -0.0735 -0.2405  0.0043
10212W        W28416   8.418   4.586   3.609  0.0389  0.0378 -0.2676
10213W        W28417  13.929   8.168   1.970 -0.0996 -0.0082 -0.0249
10214W        W28418   3.425  15.965   3.104 -0.0604 -0.2627 -0.1838
10215W        W28419   6.897   9.771   3.561 -0.3128 -0.0120  0.1412
10216W        W28420   5.392  18.953   0.443 -0.1238  0.1254 -0.1391
10217W        W28421   5.176  11.983   4.477  0.1396 -0.1223  0.1373
10218W        W28422   9.500  17.966   3.541 -0.0817 -0.1737 -0.3699
10219W        W28423  18.040  14.801  11.242 -0.0164  0.1455 -0.3171
10220W        W28424   7.093   6.585   2.202  0.3159 -0.1299  0.1172
10221W        W28425   4.838  16.953  14.429 -0.0078 -0.0471 -0.0286
10222W        W28426   3.472   2.888  11.997 -0.0638  0.2187  0.4310
10223W        W28427  15.828   4.656  12.533 -0.1119  0.1630  0.1418
10224W        W28428  17.290   4.633   4.081 -0.0839  0.3703 -0.4209
10225W        W28429   2.170   2.550  14.758  0.0898  0.2432 -0.2316
10226W        W28430  10.237  15.162   1.607  0.1419 -0.0427  0.1516
10227W        W28431   7.763  14.510   0.768 -0.3607  0.1359 -0.4250
10228W        W28432   2.043   9.679  12.269  0.0915  0.0976 -0.1757
10229W        W28433  13.013   2.128  10.774  0.1162  0.2091  0.0055
10230W        W28434  16.793  11.916   2.206  0.1067  0.0627  0.1659
10231W        W28435   7.294  11.905  13.098  0.0645 -0.2638  0.1105
10232W        W28436   5.314   1.777   0.436  0.2320 -0.3029 -0.1871
10233W        W28437   2.135   4.944   3.297  0.1601 -0.2293  0.0133
10234W        W28438   7.112   0.184   1.615  0.0413 -0.0345  0.4076
10235W        W28439   5.400   4.503  10.059  0.0794 -0.1805  0.3013
10236W        W28440  13.676  17.830   1.214 -0.0415  0.1274 -0.2803
10237W        W28441  12.576   9.107   3.898  0.1394  0.3383 -0.0484
10238W        W28442  13.870  15.804  11.027  0.2008  0.2655 -0.0716
10239W        W28443   3.666  14.926   0.822 -0.3077 -0.4072  0.3422
10240W        W28444  17.309  13.432   1.371 -0.0458  0.0224  0.0786
10241W        W28445   5.871  18.011   3.152  0.2449  0.1778 -0.0941
10242W        W28446  14.023  10.662   2.271 -0.1140 -0.1858 -0.2143
10243W        W28447   4.734   7.211   3.288 -0.4293 -0.1677  0.1595
10244W        W28448  17.667   3.168   4.111 -0.2775 -0.2062  0.0949
10245W        W28449  13.307   6.706   3.939  0.0773  0.2691  0.2800
10246W        W28450  18.799   5.729   2.059 -0.1376  0.1923 -0.1541
10247W        W28451   5.862  11.162  14.158 -0.2807  0.0392  0.0334
10248W        W28452  13.050   7.668  13.117  0.1658 -0.1514  0.0300
10249W        W28453   1.964   2.857   0.070  0.1160  0.3601 -0.0364
10250W        W28454  18.680   2.227  10.622 -0.2571  0.1955 -0.3294
10251W        W28455  10.322   6.350  14.670  0.2800 -0.0875  0.0572
10252W        W28456  13.093   8.129   2.623  0.1171  0.2316  0.1097
10253W        W28457  13.715  17.204   3.058  0.1218 -0.0580 -0.0431
10254W        W28458  14.558  11.765  11.954 -0.1433  0.1157 -0.1680
10255W        W28459  14.020  11.135  10.425 -0.1205  0.1475 -0.0105
10256W        W28460  12.733   3.141   0.346 -0.1087  0.1010 -0.1057
10257W        W28461   7.390   7.319  11.500 -0.0593 -0.1109  0.2520
10258W        W28462  18.554  16.279  10.669 -0.0939  0.3532  0.0241
10259W        W28463   4.450   4.990  12.589  0.4054 -0.0887 -0.1309
10260W        W28464   1.630  16.645  12.946 -0.2746  0.0603 -0.1094
10261W        W28465   5.677   8.035   2.952  0.1200 -0.1334  0.2252
10262W        W28466  15.604   1.737   1.830 -0.0260  0.0296  0.0011
10263W        W28467   7.427  18.251   1.325  0.3309 -0.3646  0.0989
10264W        W28468   4.863  15.480  11.396 -0.0345  0.0609  0.0207
10265W        W28469  16.462  16.920  13.732  0.0166  0.0165 -0.3042
10266W        W28470  11.880  15.281  12.861  0.0099 -0.0569  0.2521
10267W        W28471   9.933  10.445  13.278 -0.0601  0.1017  0.2160
10268W        W28472  13.487   3.140  11.255  0.1404 -0.0929  0.3955
10269W        W28473  12.686  18.168  11.186 -0.1936  0.0432 -0.0478
10270W        W28474   5.420   8.072  14.895  0.2280 -0.0915 -0.4751
10271W        W28475  16.852   6.733   0.785 -0.2325  0.2892  0.0996
10272W        W28476   6.964  14.506  10.794  0.1294  0.4644  0.1017
10273W        W28477  13.432  15.696  13.554  0.2559  0.0782 -0.1130
10274W        W28478  12.477  15.846   1.743  0.0791 -0.2520  0.1259
10275W        W28479   4.494  18.639  14.687 -0.1106 -0.0948  0.0386
10276W        W28480   1.492  15.631   2.154  0.0614 -0.1851  0.2375
10277W        W28481   0.895  10.704   0.636  0.0907 -0.2089  0.0415
10278W        W28482   8.657   0.709   2.505 -0.0927  0.1689 -0.4483
10279W        W28483  16.544  17.078   3.057 -0.0914 -0.1653 -0.2135
10280W        W28484  14.076  13.859   3.911 -0.0434  0.0687  0.2579
10281W        W28485  10.965  13.160  14.462 -0.3817 -0.0425 -0.4359
10282W        W28486   1.774  16.918   9.884 -0.1102 -0.2059  0.0343
10283W        W28487   1.589  13.774   0.466 -0.1128 -0.0273  0.0826
10284W        W28488   1.008  10.983  14.642 -0.2389 -0.4486 -0.2013
10285W        W28489  10.040  16.107  13.888  0.0562 -0.1360  0.0578
10286W        W28490   2.134  11.378   4.089 -0.0794  0.1054  0.1849
10287W        W28491   4.815   9.105   2.609  0.1245  0.1894 -0.1712
10288W        W28492  17.841   8.129  11.478  0.1018  0.0696  0.2018
10289W        W28493  13.169   4.804   1.228 -0.0226  0.2142  0.0138
10290W        W28494   8.346   3.967  11.097 -0.3723 -0.0648 -0.4866
10291W        W28495  15.447   0.362  14.516 -0.1499 -0.0995  0.0916
10292W        W28496  14.224   7.568   2.785 -0.2203 -0.1358 -0.0918
10293W        W28497   1.852  16.485  14.262  0.0738  0.0486 -0.2078
10294W        W28498  11.481  10.752  13.619 -0.2892 -0.1127 -0.0693
10295W        W28499  11.092   7.901   3.384 -0.1256 -0.1607  0.4129
10296W        W28500  11.679   2.777   1.515 -0.2171  0.1863 -0.1511
10297W        W28501   2.380   6.912   9.985  0.1364  0.0219  0.1710
10298W        W28502   7.861   9.109  11.778 -0.1258 -0.0988  0.0034
10299W        W28503   4.436  16.341   4.341 -0.3414  0.3215  0.2693
10300W        W28504  12.112   6.620   0.021  0.0409 -0.4533  0.1937
10301W        W28505  11.549  10.888   1.913  0.5127 -0.0593  0.3789
10302W        W28506   4.043   2.597  11.232  0.0925  0.0763 -0.1865
10303W        W28507   9.117   9.442  13.616  0.0578  0.0062 -0.3851
10304W        W28508   7.054  12.758   4.912  0.2040  0.0680 -0.2064
10305W        W28509   0.217   7.529   2.901 -0.2299 -0.1272  0.2655
10306W        W28510  15.409  17.242   1.312  0.1210 -0.1792 -0.2031
10307W        W28511  18.859  10.458  13.199  0.0657  0.0374  0.1916
10308W        W28512   2.408   7.355  13.440  0.1835  0.0156  0.2414
10309W        W28513   4.593   1.913  13.829 -0.3552 -0.1384  0.2971
10310W        W28514   9.555   0.371   4.134 -0.0502 -0.0597  0.1046
10311W        W28515  11.637  15.355  14.821  0.4588  0.2725 -0.5082
10312W        W28516  11.764   3.156   3.137  0.0180  0.0015  0.0382
10313W        W28517  14.974  15.332   3.037 -0.1035  0.0317  0.0155
10314W        W28518  12.356   6.182  10.575 -0.1029  0.1230  0.1903
10315W        W28519  17.306   5.060  11.624 -0.2238  0.1207 -0.3214
10316W        W28520  16.154   0.493   3.484  0.0637  0.2947  0.0308
10317W        W28521   9.072   7.567  14.749 -0.1723 -0.2590  0.0768
10318W        W28522   4.796  11.701  11.663  0.1559  0.0974 -0.1221
10319W        W28523   5.240  17.563   4.852  0.4346  0.0756 -0.4575
10320W        W28524  11.846  15.431   0.892  0.2595 -0.2744 -0.1814
10321W        W28525   1.495   0.013  13.038  0.0582  0.2514 -0.1155
10322W        W28526  12.403   5.663  11.260 -0.1886  0.1003 -0.0969
10323W        W28527   3.630   5.715   2.502 -0.1101 -0.0730 -0.1016
10324W        W28528  12.448  10.632  13.564 -0.2890  0.2290 -0.1314
10325W        W28529  14.741   9.346  15.011  0.2144  0.2969 -0.1704
10326W        W28530   3.410  14.351   9.655 -0.0955  0.0375 -0.0206
10327W        W28531  14.030  13.125  10.846 -0.0011 -0.2403  0.2633
10328W        W28532   8.652  11.348   2.214  0.1355 -0.1085 -0.1636
10329W        W28533  14.525   1.092   0.124 -0.1110 -0.2770 -0.1878
10330W        W28534   2.524   8.397  11.553  0.3918  0.0862  0.0224
10331W        W28535   6.026  17.622   0.860  0.0856  0.0185 -0.1422
10332W        W28536   4.120  13.043   1.916  0.0390 -0.1073 -0.0018
10333W        W28537   6.313   4.572   4.007 -0.1079  0.0334 -0.1279
10334W        W28538   1.141   5.721   3.411 -0.1729  0.2204  0.1325
10335W        W28539   5.828  10.962  11.259  0.1564  0.1457  0.2055
10336W        W28540  12.697   4.307  13.768 -0.2989  0.0053  0.1170
10337W        W28541   0.285  13.087   2.557  0.0326 -0.2922  0.0747
10338W        W28542   2.548  16.232   3.865  0.1154 -0.2114  0.1648
10339W        W28543   3.293  15.643  10.695 -0.0734  0.1069 -0.0069
10340W        W28544  14.612   7.774  12.561 -0.1739  0.0498 -0.1357
10341W        W28545  17.413   6.363  11.326 -0.3645  0.1057 -0.2207
10342W        W28546  11.268   7.303   2.697  0.0456  0.0680 -0.1367
10343W        W28547   6.890   1.844   3.383 -0.0735  0.1907  0.0879
10344W        W28548  15.677  11.042   2.821 -0.0453  0.0169 -0.1380
10345W        W28549   8.505  17.929   3.628  0.4077  0.0354  0.0388
10346W        W28550   6.103  18.456  11.270 -0.1180 -0.1218  0.1069
10347W        W28551   1.945  10.058  10.320 -0.2552  0.0946 -0.0043
10348W        W28552   5.020   3.893  13.611 -0.1278 -0.5440 -0.2916
10349W        W28553   3.766  15.809  10.662  0.0734  0.0016  0.0358
10350W        W28554  15.094   8.022  15.007 -0.1660 -0.0609 -0.0920
10351W        W28555   8.499  10.068  10.693 -0.2773  0.1613 -0.1116
10352W        W28556   8.790  12.366   4.807 -0.0607 -0.0673 -0.2671
10353W        W28557  17.691   1.391   3.721  0.0500 -0.3150 -0.1665
10354W        W28558  10.004  11.224   0.979 -0.1440 -0.1519  0.1069
10355W        W28559  14.247   6.356  12.748  0.0990 -0.2306 -0.2885
10356W        W28560   4.909   8.008   0.030 -0.3608  0.2572 -0.3159
10357W        W28561  14.110   7.506   3.697 -0.0799 -0.0548 -0.2206
10358W        W28562  12.370   5.039  13.249 -0.1994 -0.1249  0.1190
10359W        W28563  16.215  10.867  13.195  0.0753 -0.0976 -0.0330
10360W        W28564   2.419  15.417   2.497 -0.0066  0.4052 -0.0909
10361W        W28565  14.989   3.750  13.022  0.0254  0.0350 -0.2857
10362W        W28566   9.102  10.316  12.635  0.0044 -0.2322  0.1170
10363W        W28567   0.744   3.531   3.403 -0.1733  0.1941 -0.1345
10364W        W28568  13.654  10.042  13.348 -0.0736  0.1310 -0.0228
10365W        W28569   9.289   3.883   0.095  0.0549 -0.0454  0.0699
10366W        W28570   6.415  10.940   1.416 -0.4215  0.2395 -0.2957
10367W        W28571  17.546  12.821   3.027  0.0504 -0.1374  0.1743
10368W        W28572  11.551  13.316  12.158 -0.1960 -0.1344 -0.0608
10369W        W28573   1.989  13.309  14.470 -0.4379  0.0237  0.1646
10370W        W28574  17.650  17.004  10.774  0.1235 -0.4318 -0.4676
10371W        W28575  12.074  12.346   4.438 -0.0705 -0.1993 -0.0857
10372W        W28576   9.311   6.299  14.449 -0.2518 -0.0639 -0.0908
10373W        W28577  12.165   7.456  12.239 -0.0356  0.1151  0.0990
10374W        W28578  17.390  14.267   1.358 -0.0755 -0.1221  0.2895
10375W        W28579  16.475   7.924  14.226 -0.0574  0.2270 -0.1285
10376W        W28580   2.193   8.715  11.275 -0.1838 -0.0118  0.3647
10377W        W28581   3.070   5.708  12.775  0.1672  0.1669 -0.2578
10378W        W28582   6.280   0.482   4.044  0.0784 -0.0984  0.1640
10379W        W28583  17.207   5.481  11.895  0.0267  0.1511  0.3462
10380W        W28584   8.323  12.844   4.154  0.2335  0.1112  0.1680
10381W        W28585  15.293  10.305   1.718  0.2642 -0.0653  0.1050
10382W        W28586   9.026  16.054   2.732 -0.0355 -0.3597 -0.0582
10383W        W28587  12.018  14.950   2.470  0.3890  0.0443 -0.0974
10384W        W28588   1.025   2.558  12.975  0.0076  0.0403  0.3345
10385W        W28589  17.125   5.728   3.533  0.0831 -0.1246  0.1300
10386W        W28590   1.997  17.590   2.036 -0.2014 -0.1345 -0.0828
10387W        W28591   8.699  12.531  11.598 -0.1089 -0.2876 -0.0508
10388W        W28592   2.877   6.094   2.770  0.0770 -0.0470  0.0131
10389W        W28593   5.185  10.645   0.389  0.2293  0.0284  0.0327
10390W        W28594  17.163  18.571   0.939  0.2722  0.0972  0.2178
10391W        W28595   4.728   2.329   4.433  0.1314  0.0011 -0.1222
10392W        W28596   0.494   1.073  10.682  0.4464  0.0343  0.0157
10393W        W28597   3.955   1.980   2.832  0.2012  0.1780  0.1161
10394W        W28598  12.021   0.688   4.460  0.0109 -0.0342 -0.0224
10395W        W28599   9.465   7.266   2.613 -0.2762  0.2709 -0.2854
10396W        W28600  10.467   4.869  14.077 -0.0081 -0.0996 -0.0372
10397W        W28601  13.466  14.217   0.789 -0.0637  0.2151 -0.2225
10398W        W28602  11.042  16.850  12.557 -0.1080 -0.0054  0.1577
10399W        W28603  12.400  13.867  14.326 -0.2128 -0.1580 -0.0798
10400W        W28604   0.884   8.015   3.618  0.0785  0.0177  0.3602
10401W        W28605   6.079   8.268   0.478 -0.0173  0.0437  0.2213
10402W        W28606  18.898  14.768  11.386 -0.2012  0.2454 -0.1336
10403W        W28607   1.020  16.175   2.487 -0.0817  0.4237  0.4150
10404W        W28608  18.582   3.056  11.712  0.2479  0.0254  0.2558
10405W        W28609  10.932  10.341  12.452 -0.0514 -0.0435  0.3267
10406W        W28610   7.640  13.961   1.615 -0.0583  0.1061 -0.4511
10407W        W28611  10.755  16.115  11.059  0.1845  0.0890 -0.3391
10408W        W28612   7.822   6.267  12.252  0.2828  0.0984  0.0598
10409W        W28613   2.037  17.097  12.550 -0.1280  0.1774 -0.3657
10410W        W28614   3.536   1.475   1.370 -0.3140 -0.1295 -0.2637
10411W        W28615   7.756  12.349  14.789  0.0376 -0.0166 -0.1215
10412W        W28616  17.908   5.295   0.457  0.0938  0.2979  0.2782
10413W        W28617   6.783  15.267  10.889 -0.1595  0.0606 -0.0617
10414W        W28618  14.533   6.353   1.591  0.1611  0.0512  0.2819
10415W        W28619  12.389  14.645   3.082  0.3391  0.0809 -0.1281
10416W        W28620   9.609  15.958  13.954  0.3269  0.1007 -0.1916
10417W        W28621  14.277  17.083   0.417  0.1400  0.0134 -0.1378
10418W        W28622   9.805   1.432  11.519 -0.2121 -0.3310 -0.1255
10419W        W28623  16.543  11.070  12.335 -0.1355  0.2368 -0.2253
10420W        W28624  11.378  10.790   3.522 -0.0823 -0.1959 -0.2990
10421W        W28625   8.965  16.406  12.190  0.0559  0.1618 -0.2439
10422W        W28626  17.532  18.044   3.447  0.3675  0.2102 -0.1999
10423W        W28627   4.387  11.679   1.048 -0.2090 -0.2425  0.3255
10424W        W28628  13.054   5.450   2.117  0.0986 -0.0732  0.1744
10425W        W28629  15.534  13.831   2.428 -0.2393  0.1501 -0.1049
10426W        W28630   9.079   0.541  11.073  0.0076 -0.0236 -0.1675
10427W        W28631   5.337   8.893  12.023 -0.0766 -0.0846 -0.1557
10428W        W28632  12.712  17.986   1.088 -0.1518  0.3133  0.1398
10429W        W28633   7.171   2.061   1.564  0.1932  0.3959 -0.0156
10430W        W28634  15.350  17.253   3.803  0.2065  0.1776  0.0434
10431W        W28635   0.650  10.874   3.475  0.1184 -0.2700 -0.2159
10432W        W28636   8.548  11.980   3.545  0.3087 -0.0588  0.0212
10433W        W28637   0.383   0.920  12.915 -0.1554 -0.1891  0.0075
10434W        W28638   8.975  10.053  14.728 -0.3576 -0.0013  0.2235
10435W        W28639   7.683   4.374   0.123 -0.2024  0.1866  0.2110
10436W        W28640   8.424   3.244   2.041 -0.1224  0.1530 -0.3742
10437W        W28641   4.964  11.031  12.907  0.0581  0.4291 -0.0459
10438W        W28642   1.018  15.382   5.032  0.0069  0.1539 -0.0741
10439W        W28643   7.422   9.583  10.855 -0.0314  0.2153 -0.0162
10440W        W28644   2.845   4.126  12.183 -0.2247 -0.1603 -0.2136
10441W        W28645  12.506   0.789  10.520  0.0137  0.0098  0.2503
10442W        W28646  13.019  12.618   4.288  0.2178 -0.0664  0.0628
10443W        W28647  14.260  15.431  12.755 -0.1108  0.3603  0.3473
10444W        W28648  15.039   6.257   4.304  0.2431  0.0087  0.0578
10445W        W28649  18.765   9.940  13.285  0.2656 -0.0677  0.0203
10446W        W28650  18.494   7.209  14.744  0.1374 -0.2085 -0.0654
10447W        W28651  18.470   5.852   3.603 -0.0028 -0.1756  0.0551
10448W        W28652  15.251   8.471   0.975 -0.4280 -0.2184 -0.0115
10449W        W28653  16.724  16.384   1.915 -0.0979 -0.0651  0.2885
10450W        W28654   9.041   2.863  14.686 -0.1398 -0.0731 -0.5076
10451W        W28655   1.146  13.503  12.968 -0.0999 -0.1824 -0.0960
10452W        W28656  11.913  17.648  11.406  0.2544  0.0733  0.1700
10453W        W28657  11.704   6.260   9.712 -0.3049  0.2160 -0.2265
10454W        W28658  10.126  17.687   3.022 -0.3179 -0.1460 -0.0849
10455W        W28659  14.536   8.961   2.200 -0.0645 -0.1794 -0.1623
10456W        W28660   6.556  11.988   3.928  0.1758  0.2628 -0.0206
10457W        W28661  18.749  13.845   3.916 -0.0410  0.2119  0.2011
10458W        W28662  13.668   8.216   3.563 -0.1943 -0.1955  0.1188
10459W        W28663  18.293   1.436  12.084 -0.2674 -0.2025  0.2099
10460W        W28664  11.407   1.747  12.094 -0.4480 -0.0739  0.3584
10461W        W28665  14.349   6.611  11.369 -0.0425  0.0755  0.1960
10462W        W28666  13.035   5.920   3.155  0.2902 -0.0889 -0.3258
10463W        W28667  12.917  15.903   0.318 -0.0002 -0.0998  0.1309
10464W        W28668  12.301   3.812   2.908  0.1054  0.0352  0.0582
10465W        W28669   8.587   2.846   2.807 -0.3093 -0.0867  0.1472
10466W        W28670  11.197   7.447   0.606  0.1101 -0.0004 -0.0564
10467W        W28671   6.676  16.488  12.214  0.0372 -0.1494 -0.3940
10468W        W28672   2.571   7.289  12.211 -0.2125 -0.2289 -0.3561
10469W        W28673   5.914   5.999  12.093 -0.0813 -0.0010 -0.2486
10470W        W28674   0.209   9.800  12.369 -0.0436  0.1225 -0.0365
10471W        W28675   1.701  18.321   4.255 -0.0213  0.0663 -0.1803
10472W        W28676   4.153  13.185   2.722 -0.0261 -0.0295 -0.1433
10473W        W28677   4.729  16.490  14.464  0.1335 -0.2516 -0.0003
10474W        W28678   8.809  11.488   0.138 -0.1313  0.1015 -0.1893
10475W        W28679   7.675  16.182   4.953 -0.0380 -0.1822  0.2931
10476W        W28680  16.567   6.269  12.863 -0.1580  0.0814  0.3668
10477W        W28681   5.901  17.269  11.474 -0.1119 -0.2504  0.0968
10478W        W28682   1.649  10.858  10.179 -0.0510 -0.1808  0.1497
10479W        W28683  10.694   5.694   4.012  0.1539  0.1180 -0.0797
10480W        W28684   5.357   5.875  12.103  0.1851  0.0947  0.1285
10481W        W28685  15.416  15.257   2.656 -0.2964 -0.0855 -0.0664
10482W        W28686  14.965   9.341  12.123 -0.0733 -0.0036  0.0558
10483W        W28687   4.281  18.599  11.764  0.1210 -0.4718 -0.1219
10484W        W28688  10.114   9.544  11.886  0.2238  0.0602  0.0861
10485W        W28689   9.299   0.697   1.457  0.3167  0.0597 -0.0267
10486W        W28690   8.505   5.440   2.913 -0.0098  0.1984 -0.0311
10487W        W28691   0.553  11.402  13.990 -0.0487  0.0663  0.3024
10488W        W28692  14.165   4.453  14.522 -0.0944  0.1314  0.0348
10489W        W28693  15.590  11.823   1.486  0.0088 -0.3338  0.0226
10490W        W28694   5.947   6.584  14.845  0.2151 -0.1968 -0.0192
10491W        W28695  12.061  18.592   4.459 -0.0197 -0.0559  0.2849
10492W        W28696   6.138  14.940  13.690  0.1134 -0.2009  0.0843
10493W        W28697   0.321  11.780  13.602  0.0070 -0.1051  0.0566
10494W        W28698  17.735   8.403   0.500 -0.2421 -0.0245  0.0242
10495W        W28699   5.642   0.705   3.925 -0.0400 -0.0046  0.0263
10496W        W28700   5.872   5.795  14.395  0.0856 -0.1346  0.0416
10497W        W28701  10.084  14.661  12.499 -0.1488  0.3430 -0.1475
10498W        W28702   6.070   8.299  13.680 -0.1744 -0.1439 -0.0739
10499W        W28703  16.063   9.185   4.360 -0.0970 -0.0397 -0.3100
10500W        W28704  10.408  18.684  12.735 -0.0766 -0.1214  0.1221
10501W        W28705   5.352   0.966  11.394 -0.0517 -0.2468  0.1009
10502W        W28706   6.636  17.341   0.288 -0.0254  0.3019  0.0128
10503W        W28707  13.528  17.288   0.053  0.0551  0.0862 -0.0091
10504W        W28708   7.277   4.552  12.038  0.0286  0.1071 -0.1111
10505W        W28709   4.523  14.958   1.792  0.0593  0.0922  0.1577
10506W        W28710  15.994   5.110   2.158  0.1018 -0.3480  0.3667
10507W        W28711  15.777   5.350   0.736 -0.1119 -0.2259  0.1913
10508W        W28712   7.059   1.912  14.092 -0.1581 -0.0626  0.1159
10509W        W28713   6.365   5.674   9.554  0.2116  0.0037 -0.1774
10510W        W28714  13.859   3.224  11.926  0.1491  0.2387 -0.0135
10511W        W28715   1.861   5.996  14.514 -0.1247  0.1256 -0.3143
10512W        W28716   6.522   7.252  13.763 -0.2097  0.3731  0.0465
10513W        W28717   7.953  18.611   1.324  0.1952 -0.0776 -0.1707
10514W        W28718   7.560   1.742  12.552 -0.0073 -0.2989  0.0274
10515W        W28719   1.870   9.373  14.048 -0.1047  0.2021  0.3343
10516W        W28720   3.704  12.271   3.941 -0.1761 -0.1830  0.0465
10517W        W28721  18.717   7.252  11.838 -0.2399 -0.0386  0.0633
10518W        W28722  12.536   0.229  12.791 -0.3519 -0.0325 -0.2272
10519W        W28723   3.371  16.879  11.355  0.0176  0.1387  0.2210
10520W        W28724  18.615  15.918  11.097 -0.1231  0.0239  0.1195
10521W        W28725  12.372   9.801   1.290 -0.3761 -0.0977 -0.0259
10522W        W28726  11.728  18.321  14.743  0.0145 -0.2068 -0.0174
10523W        W28727  13.946  17.774   1.826 -0.0571 -0.0664  0.1843
10524W        W28728   9.063   6.556  13.307  0.2321 -0.0102 -0.0672
10525W        W28729   9.119  13.746  12.949  0.0847  0.3187  0.0743
10526W        W28730  15.468   4.056  11.486  0.2182 -0.5468  0.2347
10527W        W28731   3.060   3.343   2.371 -0.0457 -0.0752  0.0189
10528W        W28732   2.838   1.942  14.110  0.0109 -0.0366 -0.0870
10529W        W28733   8.912  15.204   3.101 -0.1111  0.3369 -0.1646
10530W        W28734  16.434   5.746  14.012 -0.1614 -0.0301 -0.0754
10531W        W28735   8.521  16.292   1.951 -0.0511  0.1308  0.1028
10532W        W28736   1.590  13.452  11.565  0.0684  0.1177  0.0830
10533W        W28737  11.767   7.929   4.317  0.1930 -0.2541 -0.0478
10534W        W28738  13.068  13.001  11.838 -0.0148 -0.0774 -0.0157
10535W        W28739  10.504  11.911   1.457  0.1235 -0.2092 -0.1115
10536W        W28740  13.222  14.224  13.358 -0.0297  0.0217  0.1863
10537W        W28741  10.321  14.477  14.354 -0.4539 -0.1467 -0.0367
10538W        W28742  16.771   5.284   2.862  0.0499  0.3417  0.2158
10539W        W28743   9.353  11.303  12.749 -0.2728  0.0860  0.5273
10540W        W28744  18.066  16.109  12.830 -0.0919 -0.0635  0.2220
10541W        W28745   2.622   6.809  13.421  0.1834  0.1069  0.0738
10542W        W28746   2.974   3.538   1.924  0.1836 -0.0296 -0.0791
10543W        W28747  17.705  16.626  14.138 -0.2129  0.1332 -0.0423
10544W        W28748  14.157  15.828  11.695 -0.0488  0.0669 -0.0451
10545W        W28749   0.249  10.805   3.735 -0.2678  0.0817  0.0396
10546W        W28750   5.702   8.524  13.196  0.1331 -0.0848 -0.2575
10547W        W28751   9.899  16.365   1.527  0.3356  0.0492 -0.2776
10548W        W28752   8.197   2.585   1.600 -0.1467  0.1613 -0.1397
10549W        W28753   0.000   1.320   3.816  0.3820  0.0100  0.2403
10550W        W28754   8.787   7.929  12.582  0.1610 -0.2260 -0.3765
10551W        W28755  14.080  15.032   0.664  0.1403 -0.0621  0.3946
10552W        W28756   8.865  18.238   0.429  0.2793 -0.1620 -0.0237
10553W        W28757  11.536   3.621   3.131  0.0434  0.0074 -0.2794
10554W        W28758  14.304  17.291  13.077 -0.0091  0.1635 -0.2146
10555W        W28759  14.241   6.602   1.910  0.5184  0.0815 -0.1182
10556W        W28760  10.923   8.379   0.334 -0.1239  0.1069  0.0723
10557W        W28761  18.314   0.310   3.068 -0.1375  0.0332 -0.0139
10558W        W28762  13.456   1.740   3.521 -0.0160 -0.0066  0.0265
10559W        W28763  11.110   7.888   1.112 -0.1041 -0.1671 -0.0746
10560W        W28764  16.743  12.794  12.681  0.0457  0.0782 -0.1412
10561W        W28765   1.571  13.789   0.993  0.1091 -0.2411 -0.1759
10562W        W28766   8.738  17.269  13.136  0.0953 -0.2503  0.0763
10563W        W28767   2.300  18.728  13.504  0.1408 -0.2252  0.0089
10564W        W28768   7.293  18.832  13.671 -0.4169  0.0335 -0.0061
10565W        W28769   9.181   0.885   2.481 -0.4131 -0.2123 -0.3137
10566W        W28770   0.989   8.629   2.408 -0.0464 -0.1765 -0.2926
10567W        W28771  16.718  13.203  14.053 -0.1841 -0.0861 -0.2587
10568W        W28772   7.961   7.859  12.152 -0.2142 -0.3659  0.1533
10569W        W28773   5.027  17.206  11.905 -0.4146  0.2371  0.0655
10570W        W28774  18.563  13.299  12.136 -0.2687  0.1278  0.1365
10571W        W28775   2.547  13.824  11.148  0.3722 -0.1888 -0.3797
10572W        W28776   2.752  18.459  12.547  0.1700 -0.0575  0.5031
10573W        W28777   0.937   4.464   0.330  0.2077 -0.0599 -0.2431
10574W        W28778  12.793   0.253  12.094  0.0470  0.0282 -0.3549
10575W        W28779  13.195   8.561   0.357  0.1491 -0.3449  0.2837
10576W        W28780  10.246  17.152   4.202  0.2273  0.1934 -0.0162
10577W        W28781  14.499   6.284   2.210  0.0038 -0.2666  0.2317
10578W        W28782  17.040   0.222   1.817 -0.0054 -0.4345  0.3259
10579W        W28783   6.911   3.834  14.875 -0.0771  0.0322  0.0305
10580W        W28784   4.385   9.915  13.265  0.3162  0.2148  0.1594
10581W        W28785  15.105   9.619  14.662  0.2848 -0.0377 -0.0498
10582W        W28786  17.950  12.250   2.398 -0.0802  0.1702 -0.0035
10583W        W28787  14.430   2.175   0.451 -0.1777 -0.2871  0.1162
10584W        W28788  11.531   8.902   0.819  0.0869  0.1663 -0.4433
10585W        W28789  12.737  14.587   1.109 -0.0287  0.0203 -0.0327
10586W        W28790  10.479   3.133   2.206  0.0979 -0.0708  0.1608
10587W        W28791   4.221  18.877  12.727  0.0824 -0.1966  0.0042
10588W        W28792   6.008   3.812   4.259  0.0576 -0.0001  0.3106
10589W        W28793   1.739   3.768   1.050 -0.5333  0.3438  0.0503
10590W        W28794   2.992   4.891  14.210  0.0072 -0.2181  0.2832
10591W        W28795   0.198   0.436  11.697  0.0414  0.1275 -0.1657
10592W        W28796  14.869   8.602  14.614  0.2806  0.1039 -0.1400
10593W        W28797  12.823  10.296   4.783  0.0747 -0.2095  0.2230
10594W        W28798  10.691   3.358   3.748  0.0091 -0.3332  0.0416
10595W        W28799  14.024  10.196  11.225  0.1047  0.1413  0.2853
10596W        W28800   6.228   5.460  12.736 -0.0503 -0.0977 -0.2551
10597W        W28801   7.747  12.969  11.838 -0.0131  0.1188 -0.1318
10598W        W28802  14.936  16.007  12.209 -0.0506 -0.3411 -0.0320
10599W        W28803  17.337  18.477   4.362  0.0251 -0.1502  0.0694
10600W        W28804  13.824  14.389   1.208  0.0972  0.4199 -0.1113
10601W        W28805   7.864  13.120   3.942  0.2921 -0.0272  0.1273
10602W        W28806  13.743  17.111   2.541  0.2890 -0.1185 -0.1380
10603W        W28807   6.712  12.197   3.489 -0.0299  0.2865 -0.1778
10604W        W28808   9.855   5.806   4.209 -0.0987 -0.0905  0.1941
10605W        W28809  18.908  13.245   0.060  0.1392 -0.1047 -0.0332
10606W        W28810   1.456   2.076  13.457 -0.2512  0.2256  0.1507
10607W        W28811  11.145   2.596  13.284 -0.3318  0.2201 -0.0430
10608W        W28812   5.596   6.160   0.723 -0.1425  0.0879  0.2733
10609W        W28813  17.249  10.270  11.439  0.1108 -0.0821  0.1224
10610W        W28814  18.244   1.018  13.730 -0.2676  0.3779 -0.2554
10611W        W28815   7.960  15.137   3.661 -0.1069  0.0440 -0.2141
10612W        W28816  17.349  16.005  12.486 -0.2072 -0.0939 -0.0875
10613W        W28817  14.074  14.207   3.525  0.3963 -0.2368 -0.0683
10614W        W28818   1.140   8.764  12.884  0.1660  0.0564 -0.0143
10615W        W28819   8.653   6.254   1.231 -0.0919 -0.0368  0.1493
10616W        W28820   8.209   8.567  14.323  0.0524  0.0582  0.2230
10617W        W28821   5.543  17.981  13.194 -0.1690 -0.0752  0.0168
10618W        W28822  16.638   9.867   2.171  0.1053  0.0203  0.0085
10619W        W28823  16.368   8.311  14.561 -0.1291 -0.2161  0.0312
10620W        W28824   0.713  14.173   4.306 -0.2419 -0.0560  0.2250
10621W        W28825  16.228  11.880  12.773 -0.0443 -0.3314 -0.3481
10622W        W28826  12.413  11.372  12.938  0.1798 -0.1825  0.0584
10623W        W28827  16.759   3.314   0.286 -0.2338 -0.0023  0.1470
10624W        W28828  10.585   9.816   1.705 -0.1588 -0.2155 -0.1340
10625W        W28829   6.727  10.667  11.017  0.2973  0.0868 -0.0236
10626W        W28830  12.266  10.141   2.976  0.1937 -0.1530 -0.2458
10627W        W28831   1.399   2.715   1.832  0.0788 -0.1751  0.3113
10628W        W28832   7.055   0.062   3.372  0.3375  0.1339 -0.2011
10629W        W28833   4.593   5.516   0.713 -0.1466  0.2130  0.1280
10630W        W28834  16.640   9.494   0.694  0.3855  0.0902  0.0084
10631W        W28835   7.053   3.515   3.933  0.0271 -0.2741 -0.0772
10632W        W28836  17.818  11.929  11.376 -0.3859  0.0713 -0.0637
10633W        W28837   0.981   3.238   0.674 -0.3164  0.2314 -0.2638
10634W        W28838   1.240  18.223  13.028  0.2588  0.1312 -0.0200
10635W        W28839   5.719   5.129   3.427 -0.2491 -0.3216 -0.1103
10636W        W28840  14.824  15.402  11.543  0.0333 -0.4199  0.3852
10637W        W28841   3.714  11.885   3.148  0.4446  0.1799  0.0487
10638W        W28842   5.205   9.156   2.336  0.1792  0.1676  0.0892
10639W        W28843   4.927  17.440  14.592  0.3884 -0.0407  0.0173
10640W        W28844  15.731   1.010  14.963  0.0909 -0.2515  0.3229
10641W        W28845   1.886  10.543  13.072 -0.3723 -0.0613 -0.1430
10642W        W28846   8.938   9.417   1.227  0.1564 -0.0206 -0.2065
10643W        W28847   1.314  11.670   1.937  0.0935 -0.0725  0.1993
10644W        W28848   4.466   9.025  11.243  0.0473 -0.0689  0.1022
10645W        W28849   2.047  11.395   1.225  0.1130 -0.0248 -0.4513
10646W        W28850  18.344   6.973  12.100 -0.4041 -0.0975 -0.1144
10647W        W28851  17.239  15.616  11.102  0.5233 -0.3227  0.0768
10648W        W28852   0.195  10.449  11.231  0.0814  0.2190 -0.0225
10649W        W28853  12.644  15.070   0.973  0.0436 -0.3936 -0.1396
10650W        W28854   2.098  12.922   1.931 -0.3608  0.0354 -0.0259
10651W        W28855  18.171  17.575  15.011 -0.0954 -0.0243 -0.1510
10652W        W28856  12.982  16.671  14.833  0.0351 -0.3037  0.0373
10653W        W28857  17.319   1.026   3.515  0.2023  0.0464 -0.1897
10654W        W28858  16.567   1.356  14.856 -0.1810  0.3135  0.3851
10655W        W28859  12.175   7.016   3.000 -0.1094 -0.0442 -0.0301
10656W        W28860  12.703   6.001  10.922  0.3057  0.0301 -0.1542
10657W        W28861  17.864   3.241  13.251 -0.3776  0.1116  0.1998
10658W        W28862   5.483   4.626   4.182 -0.0941 -0.0851  0.2750
10659W        W28863  16.677   6.883  13.617 -0.2751 -0.1801 -0.0532
10660W        W28864  16.545  13.724  12.048 -0.2726  0.2538  0.0142
10661W        W28865  18.663  17.394  13.185 -0.0610 -0.2550 -0.0422
10662W        W28866  15.617  15.931  10.780  0.2366  0.1332  0.0425
10663W        W28867   0.870   3.607   1.425  0.0312  0.1682  0.0966
10664W        W28868  18.502  14.262  12.007 -0.0348  0.1182 -0.0209
10665W        W28869  18.510  15.367  10.617 -0.0617  0.0643 -0.0670
10666W        W28870   1.706   1.234  13.685 -0.0213 -0.3328 -0.1812
10667W        W28871  17.960  14.560  14.278  0.0522  0.0652 -0.2081
10668W        W28872  11.633   6.480   0.400  0.2333  0.2177 -0.1265
10669W        W28873  10.693  18.591  12.090 -0.0474 -0.0836  0.2045
10670W        W28874  17.983   9.399  13.175  0.2214 -0.0465  0.1156
10671W        W28875  18.287   0.261   5.275  0.0577  0.0746  0.0723
10672W        W28876   6.095   5.035   1.239 -0.1525 -0.0404 -0.0732
10673W        W28877  11.579   1.007   2.188  0.0072  0.0400 -0.1560
10674W        W28878  12.691  10.004  12.845 -0.2517 -0.3194 -0.0788
10675W        W28879   7.991  10.285  11.783 -0.0113  0.1347 -0.1553
10676W        W28880  10.594  13.535   2.977  0.4024  0.0724 -0.2670
10677W        W28881  12.775  16.044  12.927  0.1378  0.0571 -0.0406
10678W        W28882   5.663  18.006  14.951 -0.0244  0.2082  0.1063
10679W        W28883   1.255   2.625   3.559 -0.0668  0.0191 -0.2001
10680W        W28884   4.297  14.887  12.348  0.1436 -0.1718 -0.2816
10681W        W28885   4.280  16.447   0.269  0.0826  0.0309 -0.0436
10682W        W28886  12.764   9.578   0.311  0.3293  0.0239  0.4867
10683W        W28887  18.386  13.852  12.829  0.0958  0.2602 -0.0329
10684W        W28888  11.921  10.916  12.181  0.1878  0.1907 -0.0605
10685W        W28889   3.762   6.327   0.800 -0.2209 -0.0221  0.3635
10686W        W28890  17.337   3.179  14.163 -0.1342 -0.1265  0.0689
10687W        W28891  13.393  10.443  13.368  0.2471  0.2238 -0.0999
10688W        W28892   6.676   7.093  13.281  0.0066  0.1451 -0.0297
10689W        W28893  13.595  16.856   3.493  0.1956  0.3364 -0.1193
10690W        W28894   0.858  13.650  10.968  0.0043  0.1172 -0.0454
10691W        W28895   7.864  10.215   2.533  0.4071  0.0290 -0.2317
10692W        W28896  14.504   9.607   9.729  0.2023  0.0422 -0.1179
10693W        W28897   0.383  15.605  10.669 -0.1711 -0.1957  0.0325
10694W        W28898  11.564   3.760   1.848  0.1571 -0.3586  0.0546
10695W        W28899   7.297  16.414  12.651 -0.1679  0.0560  0.0481
10696W        W28900  10.771  12.142  11.695 -0.1275 -0.1958 -0.3533
10697W        W28901   4.096   3.588  11.902 -0.1015 -0.0434  0.3304
10698W        W28902  18.033   2.203  11.241  0.1154 -0.0213 -0.2542
10699W        W28903   7.921   8.536   2.272 -0.2069  0.0435  0.2823
10700W        W28904  13.701  17.026   0.428 -0.0937 -0.0370 -0.0868
10701W        W28905   1.052  15.648   0.051 -0.0593  0.1717 -0.2229
10702W        W28906   4.333   5.370   4.150 -0.2491 -0.1871  0.0812
10703W        W28907   7.058  18.606   2.649  0.0973 -0.1349  0.0077
10704W        W28908   7.684  16.706   0.433 -0.1745 -0.4582  0.3628
10705W        W28909  11.166   0.489   0.910 -0.0079  0.1783  0.0073
10706W        W28910  11.946  16.430   1.047  0.2186 -0.0304  0.3186
10707W        W28911   0.454  17.498   2.281  0.1147  0.0346  0.2169
10708W        W28912  13.983   2.221  13.858 -0.1759  0.2527 -0.2062
10709W        W28913  17.834   8.028  12.358 -0.1370  0.4702  0.1356
10710W        W28914   9.178   3.400  12.397 -0.2310 -0.2009  0.0226
10711W        W28915   2.298  18.634  12.674 -0.0710  0.2127  0.3321
10712W        W28916  13.019   2.330  10.311  0.0585  0.1723  0.2727
10713W        W28917   1.233  11.214  11.503  0.0472 -0.4222  0.1452
10714W        W28918   2.090   0.501  13.223 -0.0168 -0.2170  0.1933
10715W        W28919   5.799   4.687   3.222 -0.0650  0.0115 -0.0243
10716W        W28920   7.940  11.021   3.342 -0.1580  0.0945  0.0761
10717W        W28921   6.100  16.071  11.546  0.2287 -0.1391 -0.1766
10718W        W28922  14.002   3.858   3.511  0.1869 -0.1001  0.2898
10719W        W28923   8.660  12.843   2.417 -0.0844  0.1215 -0.1609
10720W        W28924   3.548  10.721   2.335 -0.3048 -0.1539  0.0646
10721W        W28925  11.496  13.319  10.252 -0.3953 -0.0602 -0.0472
10722W        W28926  18.476   7.488   4.153 -0.2428  0.4518  0.2336
10723W        W28927  12.021   8.235  14.033 -0.4001 -0.0445  0.2449
10724W        W28928   1.104   2.600   0.893  0.0654  0.1389  0.0432
10725W        W28929   3.249  18.456   0.520  0.2935 -0.1720  0.2265
10726W        W28930   2.101   4.531   2.515 -0.0206  0.1369 -0.1455
10727W        W28931  15.666   9.836  11.963 -0.2055 -0.3678 -0.3123
10728W        W28932  18.104   3.509   2.905 -0.0800  0.1043 -0.0273
10729W        W28933   3.620   5.660  12.626 -0.2311  0.3181 -0.0737
10730W        W28934  17.285   2.008   3.593 -0.3930 -0.0566 -0.1482
10731W        W28935   6.230   9.078   2.495 -0.0779 -0.1600  0.1942
10732W        W28936   8.958  10.572  14.862  0.0559 -0.1935  0.1663
10733W        W28937  14.461   4.541  14.974  0.0721 -0.1193  0.0038
10734W        W28938  10.153   2.834   0.727  0.1632 -0.3053  0.2060
10735W        W28939  18.438  12.267   0.796 -0.2988 -0.0478  0.1736
10736W        W28940   4.414   1.352   0.286  0.1789  0.0365  0.2467
10737W        W28941  11.860  10.466   0.004  0.0557  0.1066 -0.0114
10738W        W28942  10.450   3.628  11.371  0.3825 -0.0688 -0.1916
10739W        W28943   1.138  10.002   4.218  0.2330  0.0361  0.0379
10740W        W28944  11.174   8.243   1.481 -0.2811  0.2188 -0.4429
10741W        W28945  10.652   0.010   3.079  0.1473  0.2067 -0.1737
10742W        W28946   9.090   0.035  11.301  0.0912 -0.1298  0.0101
10743W        W28947   4.242  16.820  14.466 -0.4760 -0.1579 -0.2115
10744W        W28948   6.908   2.903  10.772  0.0735  0.0081  0.1294
10745W        W28949   2.401   9.194  10.931  0.0518 -0.2377 -0.1224
10746W        W28950   6.952   6.049   4.333 -0.2077  0.3785  0.1912
10747W        W28951  16.430   3.636   3.521  0.3604 -0.2450  0.0843
10748W        W28952  12.995   0.895   4.242 -0.0246  0.1447 -0.3121
10749W        W28953   1.723   2.090   4.258  0.1115  0.1935  0.0519
10750W        W28954   8.964  10.344   5.049 -0.3269  0.1778  0.3361
10751W        W28955  13.908   1.405   0.067 -0.0409 -0.0941  0.1423
10752W        W28956  10.123   2.602  10.070  0.3792 -0.0296 -0.1653
10753W        W28957   9.671   5.769   2.491 -0.0237 -0.0045 -0.0898
10754W        W28958  16.499  14.574  11.882 -0.2511 -0.3076 -0.0509
10755W        W28959   4.912   5.196  12.530  0.1333 -0.1627 -0.2533
10756W        W28960  18.568   3.970   0.778 -0.0998 -0.1070  0.0421
10757W        W28961  15.438  11.959   2.375  0.1347 -0.1367  0.1489
10758W        W28962   7.466   8.211  13.528 -0.1106  0.3227  0.0844
10759W        W28963   8.846   3.128  11.318 -0.1346  0.1012 -0.1513
10760W        W28964  10.350   0.557   0.971  0.0217 -0.1217  0.1047
10761W        W28965   3.609  10.077   3.613  0.1368  0.0785 -0.0355
10762W        W28966   6.713  10.304   3.042  0.0502  0.2451  0.0484
10763W        W28967  18.235   0.123  11.232  0.0679  0.0413  0.2039
10764W        W28968   0.456   2.231  10.125 -0.1922 -0.0926 -0.1003
10765W        W28969  12.986   3.915  14.706  0.1735 -0.0437  0.1287
10766W        W28970   4.769  14.972  10.853 -0.1855 -0.0231 -0.2567
10767W        W28971   1.587   6.422   3.278 -0.0159 -0.1569  0.2174
10768W        W28972   5.332   5.845   2.839  0.0234  0.0113  0.3186
10769W        W28973   7.687  15.821   1.215  0.0901 -0.1826 -0.0807
10770W        W28974   9.884  11.834   3.794  0.0487 -0.0520  0.3366
10771W        W28975   8.708  11.434   2.969  0.0118  0.0149  0.5320
10772W        W28976   5.879  18.735   0.662 -0.0643  0.1660 -0.1844
10773W        W28977  14.813   1.692  13.453  0.0611 -0.0184 -0.1146
10774W        W28978  18.915  15.167  12.361 -0.2407 -0.0004 -0.1315
10775W        W28979   7.642  16.111  13.662  0.1085  0.0263  0.1684
10776W        W28980  15.483   5.660   3.524  0.2273  0.0997 -0.1619
10777W        W28981   3.243   9.306   1.907 -0.0343 -0.2654 -0.0714
10778W        W28982  18.761   0.475   3.299  0.1298 -0.5484 -0.1723
10779W        W28983  14.794   4.169  11.962 -0.1807  0.1695 -0.0434
10780W        W28984   8.270  13.987  11.456  0.0249  0.2240 -0.0556
10781W        W28985   8.851   1.268   9.669  0.3624  0.2069 -0.2628
10782W        W28986  17.903  11.849   2.111  0.1544  0.0804  0.1765
10783W        W28987  13.144   5.846  13.340  0.0941 -0.0288 -0.0629
10784W        W28988   1.465  10.819   4.476 -0.0510  0.2150 -0.0442
10785W        W28989  13.117  11.071   2.731 -0.0729  0.0446  0.1489
10786W        W28990   7.214  11.377  11.574 -0.1272  0.0907 -0.3910
10787W        W28991   5.533   7.179   1.935  0.1157 -0.1008  0.0085
10788W        W28992  17.093   8.119   0.511 -0.1339 -0.0267 -0.0340
10789W        W28993  12.833  14.467  11.860  0.1169 -0.1467  0.0583
10790W        W28994   6.135   2.627  11.032  0.0278 -0.1411 -0.0761
10791W        W28995   7.290   3.676  12.512 -0.1346  0.0195  0.0491
10792W        W28996   0.845   4.963   0.716 -0.1726  0.3390  0.0996
10793W        W28997   1.378   3.227  14.378 -0.0065 -0.3874 -0.2735
10794W        W28998  11.691   0.351  13.989  0.0562  0.3206 -0.0004
10795W        W28999   8.284   9.972  12.010  0.0081  0.0734 -0.0108
10796W        W29000   3.496   0.277   0.374  0.0991 -0.2212  0.2976
10797W        W29001  16.376  10.536   0.447  0.0501 -0.3361 -0.1528
10798W        W29002   4.029   4.951  12.244  0.0639  0.0936 -0.1736
10799W        W29003   6.478  14.825  11.729 -0.1656 -0.4224  0.1700
10800W        W29004  15.901   4.801   2.541 -0.1051 -0.1614 -0.2633
10801W        W29005   5.806   2.634   2.364  0.2170  0.0045  0.0462
10802W        W29006   2.133  11.397  12.966 -0.1027 -0.0145  0.2199
10803W        W29007   5.707   8.551  10.899 -0.0089 -0.0016 -0.1384
10804W        W29008  10.490   5.892   3.207 -0.2479  0.2055  0.0527
10805W        W29009  12.192  16.806   0.757 -0.0637  0.2017 -0.2411
10806W        W29010   0.882  12.778  14.977  0.1157 -0.2180  0.1616
10807W        W29011  16.218   4.372  10.841 -0.4374  0.3940 -0.0111
10808W        W29012   3.831   2.746   4.041  0.1672 -0.0167 -0.1765
10809W        W29013   5.152  10.220  11.565 -0.0433  0.0656 -0.2379
10810W        W29014  16.408   7.315  14.708 -0.5514  0.1492 -0.0120
10811W        W29015   1.731  10.205   0.356  0.1538 -0.2249  0.0631
10812W        W29016  16.254   5.252  11.855 -0.0209  0.0279  0.4018
10813W        W29017  18.685   1.571  14.518 -0.0958 -0.1267  0.1335
10814W        W29018   8.919   3.563  11.841  0.2763  0.0322 -0.1337
10815W        W29019  15.246   1.495  11.033 -0.0214 -0.3535  0.0298
10816W        W29020  12.571   2.118  13.352 -0.0106  0.2577 -0.0278
10817W        W29021  13.240   1.269   3.303 -0.2633  0.0846 -0.2393
10818W        W29022   4.483  13.205   2.225  0.2042 -0.1275 -0.0236
10819W        W29023   3.075  13.027   3.906  0.2748 -0.2486 -0.3716
10820W        W29024   8.448  14.173   1.060  0.2507 -0.0559  0.1369
10821W        W29025  15.201   4.032   0.320  0.1581  0.4289 -0.0049
10822W        W29026  10.759  16.010  12.372  0.1241 -0.1319  0.1012
10823W        W29027  18.947   8.757   3.890  0.0232 -0.0779 -0.0535
10824W        W29028   3.087  11.453  14.718  0.0428 -0.1544 -0.1974
10825W        W29029  12.078   6.063  14.118  0.2772 -0.4161 -0.0110
10826W        W29030  18.198   5.468   9.815 -0.1539 -0.2490 -0.2545
10827W        W29031  13.157  16.187   1.846 -0.0736  0.1711 -0.0460
10828W        W29032   0.323   8.947  11.160  0.3026  0.0148  0.3498
10829W        W29033  13.058   5.306  13.418 -0.0060 -0.1577  0.0361
10830W        W29034  14.000   2.596  14.956  0.1602  0.0795 -0.1697
10831W        W29035  15.696  16.984   3.586 -0.1206 -0.1085  0.2723
10832W        W29036  14.845  12.249   2.768 -0.2530 -0.0182 -0.2815
10833W        W29037  12.327  15.990  10.572  0.1754 -0.4179 -0.1313
10834W        W29038  12.650  17.042  11.972  0.1341 -0.1679 -0.0988
10835W        W29039  13.903   3.435  14.589  0.3372  0.0967 -0.0641
10836W        W29040  11.218   9.761   1.062 -0.2578 -0.1983 -0.2094
10837W        W29041   4.834  10.538   2.780 -0.0845  0.0967 -0.0768
10838W        W29042  11.805   3.345   1.759  0.4589 -0.0473  0.0451
10839W        W29043   7.846   7.698   0.298 -0.2257  0.0201  0.0251
10840W        W29044   0.836  15.591  10.900 -0.0670 -0.0228  0.1178
10841W        W29045   0.459   0.000  11.261  0.4424  0.0888 -0.3154
10842W        W29046   7.816   1.297  13.339 -0.4377  0.2560  0.1919
10843W        W29047   8.877  15.047   5.294 -0.0775 -0.1455  0.1722
10844W        W29048  15.478  10.964  14.370  0.1194  0.1235 -0.0921
10845W        W29049  10.760   3.077   3.330  0.1792  0.1934 -0.0402
10846W        W29050  10.301  16.198   0.148 -0.2639 -0.0444 -0.0114
10847W        W29051   2.219  12.573  11.524 -0.1101 -0.2658 -0.2491
10848W        W29052   7.059   8.868  11.024 -0.2057  0.0985 -0.3567
10849W        W29053   5.564   6.009  12.528 -0.3250 -0.1381 -0.1099
10850W        W29054  13.877   9.333  13.951 -0.0804 -0.0192  0.2694
10851W        W29055   8.670  15.764  11.500  0.2056  0.2180  0.1896
10852W        W29056  17.294   2.345  11.779  0.1483  0.1568 -0.2631
10853W        W29057   7.447  18.176   3.752  0.1816  0.0208  0.2160
10854W        W29058  17.290  11.136   1.185  0.1344  0.0113  0.0759
10855W        W29059   1.755  12.399   2.721 -0.0145 -0.1680  0.0777
10856W        W29060  17.905   3.695  13.097 -0.0051  0.1074 -0.0462
10857W        W29061   5.586  11.462   2.420  0.0680 -0.0565 -0.1759
10858W        W29062   6.202   5.982   5.051  0.0457 -0.2744  0.2719
10859W        W29063  15.153   5.718  14.851  0.2270  0.1083  0.0502
10860W        W29064  10.569  11.029   5.186  0.1009  0.1544 -0.0746
10861W        W29065  17.929   8.647   4.583  0.1663 -0.2317  0.1237
10862W        W29066  13.867   1.977  10.437 -0.0404 -0.3354 -0.2183
10863W        W29067  12.937  13.181   0.707 -0.1821 -0.4312 -0.0700
10864W        W29068  17.014   8.594  14.806 -0.4046 -0.1393 -0.1107
10865W        W29069   4.396  13.829   1.419 -0.2836  0.2632 -0.2595
10866W        W29070  16.226   2.801  11.612  0.0411  0.1165  0.0823
10867W        W29071  17.733   5.895   4.446 -0.0378 -0.0871 -0.0746
10868W        W29072   8.602   2.265  10.761 -0.0625  0.0137 -0.1330
10869W        W29073  13.285   1.504   0.833  0.0223  0.0684  0.0794
10870W        W29074  14.473   4.480   1.995 -0.0974 -0.0394  0.0226
10871W        W29075   3.945  18.907  13.527  0.1754 -0.0781 -0.2526
10872W        W29076   2.077  13.714  14.762 -0.0071  0.0365  0.0371
10873W        W29077   0.402  12.070   4.036 -0.0970  0.0343 -0.1763
10874W        W29078   8.877  10.646  12.323  0.1109 -0.2630  0.3098
10875W        W29079   3.587   3.720  13.606  0.2261 -0.0637 -0.2517
10876W        W29080  14.321   1.812  11.785 -0.2715 -0.0552 -0.2055
10877W        W29081   8.751  16.616  13.526  0.0109 -0.0368  0.1658
10878W        W29082   8.059  17.827  11.609  0.1566  0.1335 -0.1897
10879W        W29083   5.122  18.385   0.488  0.3095  0.2093  0.2701
10880W        W29084   6.738  10.846   0.680  0.1562  0.0272  0.1450
10881W        W29085   4.448  10.355  12.415  0.0480  0.0808 -0.1334
10882W        W29086  11.734  17.216  11.748 -0.0619 -0.0355 -0.1646
10883W        W29087  15.212   7.687  11.085  0.3153 -0.0822 -0.2333
10884W        W29088   2.431   9.617   4.362 -0.0284  0.1765  0.1946
10885W        W29089  10.032   1.841  13.552 -0.0817  0.1556  0.2565
10886W        W29090   9.566   1.151   0.706 -0.0884  0.1508  0.3913
10887W        W29091   8.965   8.141  13.197 -0.0421  0.0490  0.0443
10888W        W29092  12.689   5.839   0.008  0.1667 -0.0697 -0.1200
10889W        W29093  14.655   8.831  13.749 -0.3491 -0.2864 -0.1430
10890W        W29094  11.779   9.608   4.658 -0.3846  0.1812  0.2278
10891W        W29095   7.969   4.975   0.361 -0.0357 -0.1354 -0.1011
10892W        W29096  18.539  13.392   0.510  0.1662 -0.2750 -0.0701
10893W        W29097  18.163  14.300  11.112 -0.0757 -0.4402  0.0827
10894W        W29098   5.213  15.969   2.297 -0.1209  0.1260 -0.1524
10895W        W29099   2.216   4.813   0.805  0.2578  0.1737 -0.0176
10896W        W29100   7.320   4.374  13.208  0.0236  0.0668  0.3967
10897W        W29101  12.392  13.683   3.144 -0.0250 -0.0864 -0.2080
10898W        W29102  14.549   9.584  13.535 -0.0241 -0.0869 -0.2538
10899W        W29103  13.643  15.146   0.958 -0.2444 -0.1664  0.0007
10900W        W29104   5.629   1.510  14.516  0.3178 -0.0972 -0.2768
10901W        W29105   1.750  18.366  11.164 -0.0399  0.1633  0.0820
10902W        W29106  17.086   5.278   1.948  0.0542 -0.0952 -0.5052
10903W        W29107   7.492  14.937   0.625 -0.0434  0.1337 -0.3120
10904W        W29108  11.012   5.664  12.180  0.1205  0.0665  0.1183
10905W        W29109  14.925  10.564   4.114 -0.1304  0.0391  0.0865
10906W        W29110   0.205  17.726   0.022  0.0040  0.2479  0.0767
10907W        W29111   9.210  16.709  11.901 -0.0791  0.2527 -0.0868
10908W        W29112   8.117  16.540  12.833 -0.0470  0.0583  0.2850
10909W        W29113   1.004   4.220  10.878  0.2532 -0.1120  0.1904
10910W        W29114   3.553  14.003   2.147  0.1290 -0.0742  0.4593
10911W        W29115  14.963   8.473  11.326 -0.3186 -0.0011 -0.0803
10912W        W29116   2.652  18.681  11.935  0.1044  0.0196  0.0051
10913W        W29117   8.184  14.817   0.299  0.1391  0.1100  0.3278
10914W        W29118  17.746   5.215  11.467 -0.3236  0.1401  0.0285
10915W        W29119   7.090  17.528   3.995  0.1505 -0.0190  0.1346
10916W        W29120   4.940  17.874  14.895 -0.1628  0.1079 -0.0653
10917W        W29121  14.264  12.756   2.367  0.1226  0.0027  0.1559
10918W        W29122  14.829   4.051   2.062 -0.0085  0.2781 -0.0690
10919W        W29123  13.871   7.536  11.480 -0.0676 -0.0345  0.0922
10920W        W29124  18.502   2.498   1.174 -0.0546 -0.2188 -0.0704
10921W        W29125  10.033  15.053  11.586  0.3491  0.2993 -0.1212
10922W        W29126   1.719  11.894   1.136  0.2539 -0.4640 -0.1009
10923W        W29127   4.920  10.933   1.998 -0.0232 -0.0887  0.2204
10924W        W29128   4.195   2.789  12.458 -0.0485  0.2782 -0.0095
10925W        W29129   8.865   9.937  13.862 -0.0067 -0.1059  0.1968
10926W        W29130   5.658  14.479  11.239  0.0104 -0.2219  0.1250
10927W        W29131  18.360   6.096  10.610 -0.3328  0.3539  0.2434
10928W        W29132  17.945  18.611   3.053  0.1308 -0.2582 -0.0252
10929W        W29133   3.130   5.777  11.836 -0.2960  0.0695  0.1957
10930W        W29134   8.408  16.415  12.113 -0.1148  0.1808  0.0638
10931W        W29135  17.606   2.622   4.149  0.0464 -0.1706  0.1475
10932W        W29136  12.450  12.248   1.425 -0.0223 -0.2540  0.0920
10933W        W29137  14.547  12.169   3.209  0.0068 -0.0675 -0.0372
10934W        W29138  15.174   6.871   1.687  0.0360 -0.1398  0.1976
10935W        W29139   3.205  17.542  13.635 -0.2630 -0.2992 -0.1095
10936W        W29140   8.907   4.071   2.334  0.3685 -0.1483 -0.4469
10937W        W29141   0.282  14.035   0.515  0.2119 -0.3297  0.0647
10938W        W29142  13.064   7.248  10.398  0.0953 -0.1830  0.2563
10939W        W29143   1.665   6.955  11.228 -0.1737  0.3442 -0.2981
10940W        W29144   4.555   1.054   3.825  0.1010  0.2619 -0.2039
10941W        W29145   5.802   9.430  14.587 -0.1351 -0.3060  0.0330
10942W        W29146   8.102   4.513  12.881  0.1986  0.0643  0.0204
10943W        W29147  10.772   4.753  13.189  0.0460 -0.3003  0.0073
10944W        W29148  14.904  11.364   4.208  0.3110  0.2484 -0.3429
10945W        W29149  18.762   3.459  14.187  0.3807 -0.2082  0.0733
10946W        W29150   2.989   3.908   0.552  0.0483 -0.1173  0.0150
10947W        W29151   4.373   6.865  10.770  0.1299 -0.1653 -0.0940
10948W        W29152   9.913   1.517   5.132  0.1411 -0.3144 -0.0929
10949W        W29153   6.842   9.345   1.849 -0.1190  0.0090 -0.1884
10950W        W29154  17.961   5.885   5.618 -0.0850  0.1351  0.0809
10951W        W29155  16.275  17.129  12.872 -0.1103 -0.0767  0.0846
10952W        W29156   1.074  17.998  14.613 -0.0912 -0.1263  0.1166
10953W        W29157   6.986   3.897   3.048 -0.3709  0.0595 -0.4601
10954W        W29158  18.943  17.168   2.133  0.1551  0.1579  0.0255
10955W        W29159   4.875  14.634  11.695 -0.0615  0.1738  0.1517
10956W        W29160   9.436  15.964   0.589 -0.2930  0.1785 -0.1440
10957W        W29161  13.693   1.803   1.095 -0.1191  0.0963  0.0983
10958W        W29162   4.888   1.231  10.907 -0.1761 -0.0248 -0.1130
10959W        W29163  17.201   3.058   4.016 -0.0926 -0.4771 -0.0866
10960W        W29164   8.137  15.541   3.375 -0.0037  0.3513  0.1921
10961W        W29165  13.978   8.629  14.428 -0.0864  0.0316  0.0076
10962W        W29166   3.125  15.538  12.063 -0.2639  0.3224  0.0970
10963W        W29167   6.955  11.226   0.501 -0.2660  0.1122 -0.2085
10964W        W29168  14.998  18.246  12.082 -0.1282 -0.0798 -0.2393
10965W        W29169   2.782  13.914  12.006  0.0703 -0.0546  0.1303
10966W        W29170   7.039  17.501   4.479  0.0752  0.2167  0.1240
10967W        W29171  10.919   0.285   2.771 -0.1434  0.3653 -0.3549
10968W        W29172  16.306   5.352   0.516  0.1243  0.0507  0.0514
10969W        W29173   3.091  12.196   5.273  0.2225  0.1238 -0.0017
10970W        W29174   9.895   1.346   3.601  0.4807  0.1184  0.5109
10971W        W29175   0.097  16.467  10.740 -0.1850 -0.1449  0.5241
10972W        W29176   9.811  16.544  13.203 -0.0250  0.1304 -0.1907
10973W        W29177  17.047   4.020   1.292  0.2257 -0.1318  0.0372
10974W        W29178   0.121   6.261   4.403  0.1967 -0.3446  0.0323
10975W        W29179   8.784   9.278  14.460 -0.1612 -0.0695  0.3307
10976W        W29180   7.209   2.392  12.307  0.3295 -0.1876  0.0242
10977W        W29181   9.914  12.776   3.057  0.0905  0.2017 -0.1238
10978W        W29182   8.474   3.845  13.011  0.1922  0.2844 -0.1883
10979W        W29183   4.827  17.379  13.490 -0.0247 -0.0634 -0.1073
10980W        W29184   1.655  15.688  12.989 -0.0417 -0.0327  0.0109
10981W        W29185  12.683   4.428   4.653 -0.0246 -0.2841  0.0642
10982W        W29186   1.675   2.466  14.943  0.1331 -0.2002  0.3752
10983W        W29187  10.640  15.957   0.460  0.1984 -0.1815  0.1596
10984W        W29188  14.025   2.037   9.928  0.2856 -0.0315  0.2036
10985W        W29189  16.120  11.993  10.913  0.1163  0.1725 -0.0818
10986W        W29190   3.127   6.899   3.745 -0.0432  0.2199  0.2438
10987W        W29191  12.013   6.254  11.743  0.0952  0.0246 -0.3020
10988W        W29192  14.602  11.786   4.322 -0.0872 -0.1459  0.0423
10989W        W29193  13.554   7.285   1.038 -0.1316 -0.0121 -0.1296
10990W        W29194   4.820  11.002   2.875  0.2181 -0.0383  0.0209
10991W        W29195  18.063   6.579  13.411  0.1795  0.1302 -0.0173
10992W        W29196  13.559  10.713   1.003  0.0428 -0.3020  0.1473
10993W        W29197  14.283   9.458  14.827  0.0865 -0.0798  0.1950
10994W        W29198   8.620  18.083   2.375 -0.0067 -0.1182  0.1437
10995W        W29199  14.076  16.614  11.579  0.1237  0.3174 -0.2495
10996W        W29200   7.566  12.263   0.902 -0.0144 -0.0790  0.2855
10997W        W29201  15.761  18.727  14.282 -0.0749  0.3433 -0.3813
10998W        W29202   8.897  17.091  13.592  0.0194 -0.1081  0.2133
10999W        W29203  14.138  11.342  14.361  0.1111 -0.2990  0.0618
11000W        W29204   4.605  12.383  13.049 -0.1882 -0.0113 -0.0807
11001W        W29205   2.327  17.258   2.389 -0.0655  0.0039 -0.1091
11002W        W29206  10.765  14.828   2.098 -0.2632  0.3666 -0.1112
11003W        W29207   2.680  16.904  14.025 -0.0864 -0.0318  0.0109
11004W        W29208   4.634  11.066   3.661 -0.0131 -0.4563  0.0076
11005W        W29209   1.839  11.499  13.475  0.1675 -0.1308 -0.2761
11006W        W29210   0.378  15.200  11.975 -0.4420  0.1000  0.1830
11007W        W29211   9.409  15.243   3.161 -0.0766 -0.0030  0.2484
11008W        W29212  16.122  18.464  14.063 -0.0112 -0.1243 -0.0061
11009W        W29213  14.612   2.655  10.717 -0.2933  0.0264 -0.2273
11010W        W29214  16.615  18.000   3.767 -0.1695  0.2578 -0.0384
11011W        W29215  17.341  11.312   3.993  0.2150 -0.0895 -0.0105
11012W        W29216  18.898   5.381  14.143  0.2527 -0.0840 -0.2212
11013W        W29217  14.000  14.620   0.406  0.0888 -0.0308  0.3278
11014W        W29218   2.956   8.536  11.445  0.0901 -0.4010 -0.0809
11015W        W29219  12.430   5.364  12.243 -0.0595 -0.3535  0.1111
11016W        W29220   2.881  15.746  11.100  0.0127  0.1974  0.0356
11017W        W29221  13.787  10.954   0.021  0.0012 -0.1146  0.2478
11018W        W29222   7.605   7.615   4.887 -0.1540  0.1479  0.0860
11019W        W29223   0.137   7.236   4.098  0.0425 -0.2608  0.1250
11020W        W29224  15.807  10.638  14.203  0.2302 -0.1777  0.0277
11021W        W29225  16.857   7.235  13.256  0.0921  0.2932 -0.1764
11022W        W29226  10.031  12.172   1.230 -0.0208 -0.0333 -0.1090
11023W        W29227  18.939   1.218  11.983  0.0439  0.2642 -0.0286
11024W        W29228   8.623   2.026  14.925  0.1038 -0.1910 -0.1711
11025W        W29229   3.881  15.528   1.386  0.0907  0.2527  0.1485
11026W        W29230  12.866   8.579  14.530  0.1839 -0.2638  0.0052
11027W        W29231  18.699  16.928  12.911  0.1105 -0.0370  0.1586
11028W        W29232   9.518  12.230   3.706 -0.0996 -0.1916 -0.0839
11029W        W29233  15.862   0.734   1.764  0.5833 -0.2654  0.1858
11030W        W29234   4.547  14.881  12.833  0.1015  0.0404  0.3481
11031W        W29235   3.728   2.555   2.862 -0.0392  0.2660  0.0644
11032W        W29236  15.732  12.323   1.492 -0.1408 -0.1461  0.0355
11033W        W29237  11.544  16.287   1.926  0.2302  0.1032 -0.3217
11034W        W29238   9.949   6.244  12.323  0.1471  0.0550 -0.3521
11035W        W29239  16.085   1.445  11.650 -0.5843 -0.3429  0.1263
11036W        W29240   7.424  14.596  13.310 -0.2644 -0.1747  0.0548
11037W        W29241  13.228   4.149  11.012 -0.0867  0.3173 -0.1053
11038W        W29242   6.253  15.887  12.770  0.2056 -0.1933  0.1758
11039W        W29243  15.740  16.738   0.544  0.1236  0.2021 -0.2139
11040W        W29244  14.246   5.731   5.115 -0.1272  0.4333  0.0722
11041W        W29245   1.937  17.352  14.601 -0.2024 -0.2964  0.0711
11042W        W29246  13.551   6.005   3.353 -0.2096 -0.0412  0.0343
11043W        W29247  14.510   0.256  13.394 -0.1923 -0.0106 -0.2262
11044W        W29248   3.600  11.676  14.047  0.1094 -0.2094  0.0989
11045W        W29249  12.383   6.737  10.261  0.1634 -0.0853  0.2220
11046W        W29250  11.387  17.917  12.146 -0.0287  0.0264  0.0648
11047W        W29251   7.765   0.923  10.880 -0.0937 -0.0693  0.1052
11048W        W29252   4.223  17.186   4.693  0.0406  0.2014  0.2020
11049W        W29253   9.891   1.862  14.641 -0.0537 -0.2225  0.1318
11050W        W29254  10.729  16.246  11.872  0.1448 -0.0665 -0.1623
11051W        W29255   3.572  10.850  10.785  0.3129 -0.0760 -0.1632
11052W        W29256  12.113  14.747   0.423 -0.0640 -0.2577  0.0517
11053W        W29257  18.484  16.034   3.887  0.1103  0.0430 -0.0581
11054W        W29258   6.746  12.636  12.446  0.0270 -0.1270 -0.1181
11055W        W29259  18.146   7.575   0.535 -0.0272  0.3017  0.1257
11056W        W29260   0.659   9.807   0.548 -0.1573  0.0579 -0.1541
11057W        W29261  17.511   8.053   1.350 -0.0095  0.2099  0.3858
11058W        W29262   4.398   7.273   1.405 -0.1347  0.3075 -0.2589
11059W        W29263   2.600  10.269   0.395 -0.2543  0.0030  0.5226
11060W        W29264  12.684   5.029   1.267  0.0038 -0.0379  0.1095
11061W        W29265   3.337   2.490   3.335 -0.0181 -0.1424  0.0355
11062W        W29266  12.748   8.953  12.904 -0.1338  0.0146 -0.0197
11063W        W29267  16.914   7.827  13.015  0.1570  0.0688  0.2753
11064W        W29268  10.480   6.776  11.736 -0.0022 -0.0693  0.3651
11065W        W29269   6.960  10.715   3.793  0.2404 -0.1006 -0.0235
11066W        W29270  15.018  17.635   4.975  0.0468 -0.3656  0.1726
11067W        W29271  11.947  14.160  12.512 -0.0946  0.4619 -0.0258
11068W        W29272  12.948  17.623   1.528  0.0561  0.3639 -0.1380
11069W        W29273  15.042   0.993   3.667  0.0254  0.2418  0.2345
11070W        W29274   2.976  15.960  13.895  0.1841  0.0049  0.0492
11071W        W29275   8.675  14.683   1.168 -0.0219  0.2538 -0.0859
11072W        W29276   1.365  13.752  13.390  0.0425  0.0472 -0.2158
11073W        W29277   0.525   9.364   1.132  0.0331 -0.2155  0.2212
11074W        W29278  14.275   4.866   9.280 -0.1545  0.2374  0.0616
11075W        W29279   1.906   1.985  13.898 -0.4143 -0.1411 -0.2388
11076W        W29280   2.435  12.673  10.924  0.0359  0.0107  0.1846
11077W        W29281   5.043  14.859  13.903 -0.0547  0.2485  0.1830
11078W        W29282   5.833  14.691   4.274 -0.0209 -0.0964  0.0830
11079W        W29283  10.029   7.150   3.025 -0.0293  0.0462  0.0628
11080W        W29284   8.254  17.319   5.115  0.1599  0.0217 -0.2375
11081W        W29285   0.337   2.572  13.416 -0.1469  0.1970 -0.2718
11082W        W29286  17.039   6.016  14.728  0.1836 -0.2457  0.0444
11083W        W29287  15.585  14.995  11.862 -0.0131  0.2797  0.0033
11084W        W29288   3.488   6.747   9.880 -0.1074  0.0533 -0.1357
11085W        W29289  14.046   0.126  13.463  0.2095 -0.3095  0.1748
11086W        W29290   8.115  16.229  12.454  0.2031 -0.4254 -0.2360
11087W        W29291  14.734   6.534  13.781 -0.2063  0.1587 -0.1866
11088W        W29292  18.596  11.542  12.454  0.2701  0.1253  0.0083
11089W        W29293  16.345  15.793   4.683  0.3193  0.1382  0.1666
11090W        W29294   9.482   2.958  12.634  0.2070  0.1218 -0.2320
11091W        W29295  14.946  13.305   4.025  0.1439  0.4261  0.0124
11092W        W29296  11.614   8.133   1.179  0.0586  0.0567  0.1220
11093W        W29297  15.836   5.962  13.291  0.0272  0.1913  0.0889
11094W        W29298   2.737  11.775   0.168 -0.0264  0.0483  0.1943
11095W        W29299  10.294   9.897   0.965 -0.2190  0.1522 -0.0559
11096W        W29300  11.195   6.739   3.517  0.0273 -0.0278 -0.1202
11097W        W29301   6.258   7.786   3.658  0.1290 -0.0588  0.0226
11098W        W29302   8.617   9.577  12.819  0.1922  0.3112  0.0913
11099W        W29303  14.805   9.627   4.887 -0.0815  0.0078 -0.0179
11100W        W29304  17.544  18.652  11.390  0.0734  0.2297  0.1371
11101W        W29305  15.651   2.454  13.259 -0.2024  0.0278  0.2183
11102W        W29306   7.291   9.449  12.977  0.1677 -0.1029 -0.0194
11103W        W29307   8.112   8.620   5.384  0.0593  0.0491 -0.2293
11104W        W29308   0.663  17.328   0.033  0.2123 -0.2707 -0.1468
11105W        W29309   6.221  14.327  11.499 -0.2365  0.0279  0.0832
11106W        W29310   1.525   3.139   3.315  0.0644 -0.1278  0.1473
11107W        W29311   6.992   0.132   0.401 -0.2183 -0.2302 -0.1241
11108W        W29312  18.404  15.008   1.539 -0.3196 -0.0983 -0.2215
11109W        W29313   5.919  12.643  13.745 -0.0199  0.2955  0.1579
11110W        W29314  13.275   6.594  13.598 -0.0558 -0.1333  0.2572
11111W        W29315  16.883   7.776  11.549 -0.3285 -0.2121  0.2949
11112W        W29316  14.377   1.663  11.279  0.2666 -0.1116  0.1323
11113W        W29317   0.929   1.224   0.532  0.1114  0.1469  0.1562
11114W        W29318   6.329   1.139  14.886 -0.1306  0.0292 -0.0826
11115W        W29319  13.084   5.572  13.843  0.3980  0.1628  0.3368
11116W        W29320  12.052   0.108   2.150 -0.1258  0.0184  0.0031
11117W        W29321   8.306   8.777  11.563  0.0642  0.1605 -0.3806
11118W        W29322   7.473   3.137   2.889  0.1572  0.2627 -0.1090
11119W        W29323  11.443  15.750  14.144 -0.0390  0.0857  0.1427
11120W        W29324  18.723   4.779   2.445 -0.0986 -0.0801 -0.1194
11121W        W29325   5.821   1.964  14.584 -0.1305  0.1145  0.0604
11122W        W29326  17.405   4.605  13.809  0.0018 -0.1573  0.1470
11123W        W29327   3.364   5.297   1.501 -0.1178 -0.0015 -0.2653
11124W        W29328  11.997  11.803   4.466 -0.1621  0.0471  0.2073
11125W        W29329   2.633  10.526  12.299  0.2976 -0.4924 -0.1028
11126W        W29330   0.446  13.493   1.405  0.1483 -0.1194 -0.0052
11127W        W29331  12.286  18.788  14.488  0.1319 -0.1845 -0.0490
11128W        W29332  12.068   2.017  11.362 -0.1452  0.1817  0.2312
11129W        W29333  12.133  18.532   2.250  0.3644 -0.0117 -0.2106
11130W        W29334  17.375  10.519  12.615  0.1196  0.3714  0.3068
11131W        W29335  10.997   2.357   3.952  0.2878 -0.0039 -0.1834
11132W        W29336   3.633   1.964  12.198  0.0270 -0.0700 -0.1949
11133W        W29337   3.108   6.824  13.429  0.1327  0.1785 -0.3599
11134W        W29338  14.018   7.901  11.834  0.0518 -0.2188 -0.1498
11135W        W29339  15.418  15.192   1.707 -0.2917 -0.2136  0.0835
11136W        W29340  15.637   3.064   1.568 -0.1291 -0.2197 -0.1260
11137W        W29341  13.898   7.807  12.669 -0.1822 -0.1190  0.2933
11138W        W29342  15.119   6.761  12.723 -0.3398 -0.1443 -0.2113
11139W        W29343   3.357   8.367  14.614  0.0951  0.4936  0.0565
11140W        W29344  13.074   7.485  14.138 -0.0266  0.1124  0.1452
11141W        W29345   6.223   6.542   2.734  0.0919  0.1834 -0.0317
11142W        W29346  17.869   2.607  10.955  0.1037 -0.3798 -0.2279
11143W        W29347  17.349   6.904  14.789  0.0774  0.0757 -0.1705
11144W        W29348   2.839  16.266  10.915  0.1794  0.2751  0.1718
11145W        W29349  11.059   0.526  13.015 -0.3160  0.0060  0.0284
11146W        W29350  17.998   6.078   2.351  0.0213 -0.2291  0.0488
11147W        W29351   9.137  16.675  13.881  0.1627 -0.1565 -0.1381
11148W        W29352   8.709   2.536  12.575  0.3319  0.2444  0.0746
11149W        W29353  12.394   9.434  13.184  0.1362 -0.0425  0.0704
11150W        W29354  15.710  14.202  13.701 -0.3369 -0.1063  0.2369
11151W        W29355  12.415  10.571   4.877  0.1241  0.0356  0.0068
11152W        W29356   3.451  12.000  12.732  0.1420 -0.0039 -0.0049
11153W        W29357   7.830   0.749   2.104 -0.1108 -0.0920  0.2461
11154W        W29358  11.490  12.004  12.426 -0.4108 -0.2170  0.0480
11155W        W29359   5.491  14.424   2.976 -0.2337  0.1450 -0.0463
11156W        W29360   6.511  13.257  13.281  0.2202 -0.1428 -0.0244
11157W        W29361   5.324  13.898   0.113 -0.1025 -0.2162 -0.2388
11158W        W29362   0.949  12.253  13.013 -0.1678 -0.0778 -0.2485
11159W        W29363   7.948   7.189   3.605  0.2012 -0.0526  0.1852
11160W        W29364  17.188  15.413   2.640  0.3546  0.2963 -0.0376
11161W        W29365  10.093  10.501   0.287  0.3832  0.2562  0.1559
11162W        W29366  10.399   6.335  11.864  0.1710  0.1590 -0.0657
11163W        W29367  10.553   1.969  10.577 -0.1510 -0.3254  0.0883
11164W        W29368  17.736  17.557  13.300  0.0583 -0.1279 -0.2426
11165W        W29369  15.652  11.818   3.979  0.0030  0.0177 -0.0004
11166W        W29370  12.060   1.090  13.122 -0.0995 -0.3239  0.5041
11167W        W29371  14.159   6.959  12.124  0.0872 -0.0591 -0.1492
11168W        W29372  16.899   4.123   0.355  0.0015  0.1031 -0.1970
11169W        W29373   1.196  18.308  14.964  0.1602  0.1951  0.2394
11170W        W29374  12.479  17.413  10.569  0.2651  0.1647  0.1266
11171W        W29375  13.045   6.794  13.150 -0.0850  0.1385  0.0001
11172W        W29376  18.385   8.417   4.650  0.1483 -0.1567  0.0174
11173W        W29377  14.105   6.497  11.855 -0.1117 -0.0346  0.2317
11174W        W29378   2.074   6.117  13.710  0.2826  0.0146  0.1974
11175W        W29379   5.499  16.149   0.730  0.0444 -0.0265 -0.1977
11176W        W29380   9.625   0.421  10.382  0.0237  0.0925 -0.0709
11177W        W29381   5.971  13.070  14.503  0.2124  0.4608 -0.0191
11178W        W29382  15.923   4.401  13.726 -0.0392  0.4539  0.2897
11179W        W29383   6.018   5.376  10.859  0.1742  0.0865  0.2993
11180W        W29384   2.625   6.657   2.979 -0.1136  0.1509 -0.0899
11181W        W29385   9.083   0.145   3.456 -0.0101 -0.3538 -0.4549
11182W        W29386   9.085  17.021   3.434 -0.0288  0.0589  0.0625
11183W        W29387   6.401  15.176   0.932 -0.0918  0.2542 -0.1830
11184W        W29388  11.195   3.588   1.131  0.0032  0.3152  0.1433
11185W        W29389   1.138  16.734   4.055 -0.0230 -0.0391 -0.0040
11186W        W29390  13.940  15.553   0.390 -0.3447  0.5141 -0.0081
11187W        W29391  17.917   5.251   3.206  0.0068  0.0089 -0.1204
11188W        W29392   7.353  16.761   9.488 -0.1349  0.2055  0.0210
11189W        W29393   3.512  17.110   4.065  0.0985 -0.1589  0.2208
11190W        W29394   4.069  16.194   0.871  0.0075 -0.0060  0.1563
11191W        W29395   1.892  13.390   3.274 -0.0796  0.4152 -0.1373
11192W        W29396  13.245  16.666  11.107 -0.1597  0.1702  0.1028
11193W        W29397  13.543   0.079   9.951 -0.3401  0.2672  0.0335
11194W        W29398  15.323   5.159   0.864 -0.0432  0.0805  0.0665
11195W        W29399  14.673  14.658   5.430  0.4240  0.0866 -0.1144
11196W        W29400   7.223   9.234   4.297  0.1919 -0.1002 -0.2063
11197W        W29401   0.125   0.274  14.896 -0.3042  0.4593 -0.1188
11198W        W29402  16.004   2.670  13.891 -0.1781  0.2527  0.0501
11199W        W29403   3.425  14.845  14.318  0.3030 -0.0440 -0.1259
11200W        W29404  17.269  13.512  13.938 -0.2342  0.2305  0.1391
11201W        W29405   8.531  12.279  12.136 -0.2481 -0.2153 -0.1593
11202W        W29406   1.541   5.659   1.365  0.1345  0.1625  0.2346
11203W        W29407   4.935  12.175   4.065 -0.0470 -0.4829 -0.0654
11204W        W29408   4.898  17.645   4.471  0.0565 -0.3842 -0.0142
11205W        W29409   0.455  18.440   3.678 -0.0595  0.0596 -0.3449
11206W        W29410  16.374  18.732  10.528 -0.3826  0.0443 -0.3257
11207W        W29411   1.010   7.650   4.083  0.1553 -0.1301 -0.2274
11208W        W29412  17.982   7.343  12.346 -0.1726 -0.0334  0.0814
11209W        W29413  10.964   3.372   2.624  0.3458  0.1941  0.0820
11210W        W29414  12.469   1.727  13.652 -0.3259 -0.0987 -0.2020
11211W        W29415   0.709   6.897   5.555 -0.0579  0.1658 -0.1905
11212W        W29416   3.911   8.348  10.979 -0.0034  0.2140 -0.1877
11213W        W29417  15.409   1.058  13.882 -0.2236 -0.2125  0.0814
11214W        W29418  18.254   4.776   1.197 -0.1264 -0.0002 -0.1052
11215W        W29419   0.546  11.004   1.382 -0.1626  0.0680  0.1164
11216W        W29420   3.218   3.190   0.384  0.1555 -0.1109  0.1552
11217W        W29421  15.697   9.610   2.305  0.2958  0.2347  0.0413
11218W        W29422   9.280   2.796   0.896 -0.4570  0.0457  0.0401
11219W        W29423   5.262  13.432   2.722  0.1457 -0.2174 -0.3307
11220W        W29424   5.784  15.632  14.645  0.0075 -0.3543  0.4952
11221W        W29425   8.176   9.759   0.995 -0.0754  0.1735 -0.1374
11222W        W29426  13.744   4.425  10.485  0.0401  0.0197 -0.0761
11223W        W29427  18.730  10.896   0.353 -0.2610  0.0965  0.2319
11224W        W29428   2.715   9.172   3.221 -0.1859  0.3164  0.1196
11225W        W29429   2.365   3.472  11.693  0.0388 -0.1092 -0.0485
11226W        W29430   3.560   7.353   1.560 -0.1046 -0.2042 -0.0674
11227W        W29431  17.259  16.917   3.618 -0.1104 -0.0675  0.0690
11228W        W29432  18.929  14.940   0.210  0.3005  0.0247 -0.1481
11229W        W29433  11.140  11.619   0.274 -0.0056 -0.3505 -0.1774
11230W        W29434  16.017   3.434   3.669  0.3602 -0.3934 -0.2356
11231W        W29435   2.064  17.116  11.678 -0.0485 -0.0976  0.0459
11232W        W29436   3.759   1.170  12.982 -0.2048 -0.2104 -0.0711
11233W        W29437   3.766   1.124   2.615 -0.0112 -0.0769 -0.1309
11234W        W29438   5.444   4.970  12.464  0.1478  0.0551 -0.1348
11235W        W29439   1.477   9.549   3.771  0.4872  0.1527 -0.1674
11236W        W29440  16.093   6.460   2.104  0.0376 -0.0771  0.3214
11237W        W29441   9.884  18.077   3.876 -0.0532 -0.1303 -0.0512
11238W        W29442   7.822   8.660  13.333  0.0569 -0.0538 -0.2185
11239W        W29443  10.130   9.060  14.138  0.1519  0.0663 -0.0611
11240W        W29444   3.853   8.839  13.416  0.4223  0.2001 -0.1194
11241W        W29445  17.227  15.611  14.913 -0.0195 -0.4393 -0.0797
11242W        W29446  16.727  10.453  14.089 -0.1164  0.2785  0.2865
11243W        W29447   1.147   0.451   3.819  0.1488  0.1570 -0.2898
11244W        W29448  10.484   2.721   5.296 -0.2827  0.0738  0.1989
11245W        W29449  12.478  17.341   4.766  0.1117  0.0047  0.0838
11246W        W29450   6.812   6.296  12.257 -0.0446  0.1263 -0.0749
11247W        W29451   0.071  15.553   1.238  0.2841  0.0188 -0.0341
11248W        W29452  14.999  12.963   3.472 -0.0209  0.2167 -0.4550
11249W        W29453  18.688   4.793   4.394 -0.0645 -0.1446  0.1258
11250W        W29454   8.492   9.942   2.077 -0.3402  0.4252  0.3852
11251W        W29455  14.578  14.520  13.099  0.1535 -0.0753 -0.0634
11252W        W29456   7.378  10.976  13.269 -0.2222 -0.4234 -0.0496
11253W        W29457   7.801   0.837  14.066 -0.0116 -0.0152 -0.1977
11254W        W29458   4.852   9.523  13.289  0.0556 -0.2133 -0.0536
11255W        W29459   9.668   0.092  11.346  0.2097  0.2720  0.3023
11256W        W29460   3.308   7.643   0.525 -0.2297 -0.0700 -0.1073
11257W        W29461   8.333   1.826   0.253  0.0646 -0.1602  0.0011
11258W        W29462   6.163   1.308   2.925  0.1646  0.0189  0.0270
11259W        W29463  18.212   6.179   4.322  0.3577  0.0312 -0.1612
11260W        W29464  16.232  12.060   0.663 -0.2871  0.1244  0.2895
11261W        W29465   2.761   8.194   3.131  0.0367 -0.0007 -0.4773
11262W        W29466   6.339  10.649   0.449 -0.0678  0.2576 -0.1173
11263W        W29467  16.088  17.646   0.639  0.1990  0.3100  0.0774
11264W        W29468   2.921   5.795  12.335  0.0873 -0.2198 -0.0843
11265W        W29469   6.997   5.269   2.227  0.0809 -0.0672 -0.3282
11266W        W29470  16.959   3.935  10.961  0.2441 -0.0234 -0.0124
11267W        W29471   3.811   5.081  13.210  0.0616  0.1390 -0.2186
11268W        W29472  11.625   5.176  11.622  0.2769 -0.0684 -0.0325
11269W        W29473   6.192   5.152   2.539  0.0067 -0.0682  0.0826
11270W        W29474   7.415  11.099  13.933  0.1003 -0.1885 -0.1796
11271W        W29475   0.465  10.411  12.263  0.1036 -0.1329  0.0691
11272W        W29476  14.477   5.830  11.082 -0.0239  0.3568  0.0820
11273W        W29477  15.007  13.233   0.771  0.2810 -0.1496 -0.0996
11274W        W29478   1.801  11.727  12.665 -0.0107 -0.0383 -0.0198
11275W        W29479  14.199   2.949   1.294  0.1325 -0.1409 -0.2354
11276W        W29480   0.744  14.589  12.646  0.1386 -0.1858 -0.2791
11277W        W29481   2.881   9.798  11.385  0.0598 -0.1435 -0.0956
11278W        W29482   2.680  13.616  10.628 -0.0435 -0.0106  0.0526
11279W        W29483  17.786  11.887  12.568  0.2838 -0.3337 -0.2295
11280W        W29484   2.417   3.327  10.287 -0.0334  0.2309  0.1934
11281W        W29485   0.154   1.709   2.791 -0.0477 -0.0896  0.0384
11282W        W29486   5.750   3.140   4.059  0.1217 -0.1375  0.4014
11283W        W29487   1.377  11.981  11.417 -0.0263 -0.4323 -0.2066
11284W        W29488   8.060  12.400  11.360  0.0389  0.0977  0.0748
11285W        W29489  16.440  10.111  14.473  0.3847  0.2184  0.1647
11286W        W29490  14.703  13.946  11.846 -0.0951 -0.0741  0.1620
11287W        W29491   0.657   9.468  12.240 -0.2043  0.1219  0.1475
11288W        W29492  17.145   1.355   0.431  0.1067 -0.1965  0.1437
11289W        W29493   2.466  10.685  11.774 -0.1674 -0.2002 -0.3311
11290W        W29494  14.419   1.505   0.403 -0.2837 -0.0412 -0.2521
11291W        W29495   3.377  17.199  10.744  0.2284  0.0448  0.0958
11292W        W29496  11.857   7.417   2.763  0.0306  0.0596  0.0127
11293W        W29497   8.127   8.151  13.413  0.0032 -0.1203  0.1003
11294W        W29498   3.984   8.545  11.467 -0.1567  0.0130 -0.0770
11295W        W29499  16.347   3.044  13.727 -0.1489  0.3161 -0.3828
11296W        W29500  10.299  13.446  12.741 -0.0817 -0.0371  0.0564
11297W        W29501   0.919   9.580   1.365 -0.0788  0.1171 -0.0333
11298W        W29502   9.306  10.979  11.264  0.1687 -0.1920 -0.2772
11299W        W29503  14.288   2.147  12.501  0.2143 -0.2070  0.1616
11300W        W29504  10.204   6.706  12.151 -0.1795 -0.2351  0.0656
11301W        W29505   6.077   9.663   1.451 -0.1820 -0.0380  0.0415
11302W        W29506  14.517   3.588  12.703 -0.0970  0.4027 -0.0925
11303W        W29507   0.127   0.290  10.911 -0.2218  0.1476  0.0906
11304W        W29508   8.561   3.450   1.594  0.0952  0.2271  0.2245
11305W        W29509  11.032   8.457  11.797 -0.0532  0.0498  0.1371
11306W        W29510  18.581  15.482   9.204 -0.1036  0.1189 -0.0393
11307W        W29511   6.470   8.178  12.635 -0.2406  0.2206 -0.0704
11308W        W29512  14.344   8.050  13.958 -0.2181 -0.2164  0.1427
11309W        W29513  17.107  16.055   2.011 -0.2201 -0.0081  0.1940
11310W        W29514  12.363   2.328  12.652  0.2094  0.0276  0.0915
11311W        W29515   4.718  12.426  14.052  0.0800  0.0826 -0.1730
11312W        W29516   7.473   3.821  10.993 -0.1326 -0.3398 -0.1111
11313W        W29517  17.441   0.938  14.632  0.0411 -0.0404 -0.0424
11314W        W29518  16.964  13.879   0.242 -0.1773 -0.0838  0.0019
11315W        W29519   0.863  12.947  14.055 -0.0161  0.2632 -0.1400
11316W        W29520   0.498   6.053   2.001 -0.0618  0.1140  0.0727
11317W        W29521  10.601   3.703   2.704  0.1434 -0.2587 -0.1686
11318W        W29522   6.991  16.910  13.279  0.0098  0.2498  0.1919
11319W        W29523   8.029   6.395   2.826 -0.3709 -0.0822  0.1215
11320W        W29524   4.936   6.434  14.976 -0.0674  0.1454 -0.1664
11321W        W29525   4.651   3.716   3.962  0.3798  0.1102 -0.0291
11322W        W29526   2.275   5.394   4.538  0.0395 -0.2336 -0.0181
11323W        W29527  10.145   2.067   4.488 -0.6297  0.3873 -0.0077
11324W        W29528  16.375   5.898  12.580 -0.1338 -0.1727  0.3504
11325W        W29529   3.939   4.120  13.795  0.1984 -0.1067 -0.1349
11326W        W29530   9.022  12.160   3.600 -0.0559 -0.4881  0.1018
11327W        W29531   7.131  11.676  13.524 -0.1380  0.0500 -0.1164
11328W        W29532   0.517  13.302   3.978 -0.3771  0.0673 -0.1211
11329W        W29533  18.729   3.510   4.102  0.0302  0.0560  0.0497
11330W        W29534  13.279  13.966   0.376  0.0512  0.0481  0.0782
11331W        W29535  10.839  11.438  12.358  0.0095 -0.0462  0.0769
11332W        W29536   1.922   1.265  12.200  0.0825 -0.3158 -0.0678
11333W        W29537   4.959  12.016  12.912  0.1562  0.1686  0.1630
11334W        W29538   4.164  17.996  11.284 -0.4042 -0.2672  0.0468
11335W        W29539  16.767   4.789   2.689 -0.3992  0.0400  0.1935
11336W        W29540  15.167  14.211   0.344 -0.1171 -0.2240 -0.2883
11337W        W29541  16.436   8.622  11.181 -0.0662  0.0750 -0.2546
11338W        W29542   7.398   9.709   3.417  0.0352 -0.0241 -0.2493
11339W        W29543   0.253   2.064  10.611  0.2544  0.0607  0.0637
11340W        W29544   1.774   5.275  13.843 -0.1490 -0.2485  0.1229
11341W        W29545   8.615   1.104  11.920  0.4399  0.2077  0.0386
11342W        W29546  11.623  15.444  12.451 -0.1753  0.3431 -0.1562
11343W        W29547   5.186  12.323  13.909  0.0526  0.2065  0.1220
11344W        W29548  15.336   5.044   5.000 -0.0405  0.0933  0.0260
11345W        W29549  16.907   6.486   1.360 -0.0071 -0.0221 -0.0507
11346W        W29550  11.563  14.446  14.849 -0.2202 -0.0491  0.1240
11347W        W29551  15.537  12.599   1.999  0.1244  0.2802 -0.2441
11348W        W29552  18.643   7.629   3.529 -0.1331 -0.1433 -0.0079
11349W        W29553  15.887  15.390   2.674 -0.0869  0.0085  0.1866
11350W        W29554   6.820  13.288   3.041 -0.2974  0.1081  0.2337
11351W        W29555   1.738   1.612  12.665  0.1500  0.0372  0.0723
11352W        W29556   7.867  18.930   0.933 -0.0055 -0.1438 -0.1969
11353W        W29557   7.500   8.419   1.495  0.0126  0.3304  0.4953
11354W        W29558  16.853   9.304  11.292 -0.1090  0.0828 -0.2167
11355W        W29559   9.217  11.257  14.879  0.2242 -0.0106 -0.2616
11356W        W29560   7.796   9.872  12.147 -0.0891 -0.0310 -0.2500
11357W        W29561   1.484   6.799  14.350 -0.0318 -0.1530  0.1179
11358W        W29562   4.526  14.047  13.790 -0.3204  0.3531  0.1123
11359W        W29563   2.511   5.451   1.479 -0.0745 -0.0089 -0.0776
11360W        W29564  13.007   6.735  11.220  0.0164 -0.0770 -0.4151
11361W        W29565   0.917  10.272  11.972 -0.1175 -0.0685 -0.1734
11362W        W29566   8.744  17.753  12.185  0.0263  0.0253  0.0422
11363W        W29567   5.316  10.407   3.627 -0.0994  0.1634  0.4337
11364W        W29568   4.971  14.277  10.717 -0.1167 -0.2219  0.1853
11365W        W29569   8.057  14.521   1.288  0.1403 -0.0218 -0.0234
11366W        W29570   6.965   2.916   4.416  0.1447 -0.3615  0.0970
11367W        W29571  12.513  16.169  11.125 -0.0738  0.1829  0.1903
11368W        W29572   7.337  17.854   2.821 -0.0492  0.1472 -0.1992
11369W        W29573  17.970   2.077   3.061 -0.1361  0.2499  0.1463
11370W        W29574   2.331   9.472   3.199  0.0540 -0.2563 -0.1264
11371W        W29575  10.275  13.797   2.158  0.2141 -0.2122  0.0460
11372W        W29576  17.331  11.448   2.561  0.0798  0.0161 -0.1800
11373W        W29577   6.233   7.049   0.548 -0.0778  0.0961  0.1199
11374W        W29578  11.900   6.103  13.329 -0.0928  0.0174  0.1354
11375W        W29579   9.148   6.239  12.328 -0.1275 -0.0539 -0.0709
11376W        W29580   8.336   5.732   3.305 -0.0992  0.0607 -0.0101
11377W        W29581  14.620   6.138   2.967  0.1310  0.0353  0.2503
11378W        W29582  14.735  12.757  12.735 -0.3241  0.2124 -0.0016
11379W        W29583   9.815  14.093   1.118  0.2215  0.2008  0.0787
11380W        W29584  16.817   4.639   2.232  0.5118 -0.0959  0.3051
11381W        W29585  12.523   4.829   3.323 -0.0251  0.1349  0.2148
11382W        W29586  11.160   3.781  11.338 -0.3089  0.0998  0.1008
11383W        W29587   1.022   3.777  14.609  0.0206  0.1274 -0.1522
11384W        W29588   7.653   2.175   1.658  0.1802 -0.0680  0.0109
11385W        W29589  17.623   3.639   1.640 -0.2928  0.0138 -0.2313
11386W        W29590   5.306  18.769  13.321 -0.0458  0.1999  0.0978
11387W        W29591  13.113   3.098  14.835  0.2161  0.4084 -0.0546
11388W        W29592  13.522   9.968   0.692  0.1889  0.1375  0.2087
11389W        W29593   4.299   8.528   1.370  0.2126 -0.1464 -0.2868
11390W        W29594  10.689   4.931   0.830  0.1573  0.2718 -0.0936
11391W        W29595   5.497   6.776   1.463 -0.0707  0.1718  0.0183
11392W        W29596  10.289  18.427  14.934 -0.0544 -0.1099 -0.2068
11393W        W29597  13.962   2.373   0.384  0.0666 -0.3908  0.2421
11394W        W29598  18.691   9.310  13.799 -0.0148  0.1897 -0.0691
11395W        W29599   1.295  12.228  13.432  0.2686  0.3851  0.1930
11396W        W29600  11.176   1.037  14.870  0.2239 -0.4246  0.0907
11397W        W29601  15.596   5.876  14.283  0.2187 -0.2803 -0.0408
11398W        W29602  11.286   0.282  11.568  0.0271 -0.0234 -0.0344
11399W        W29603  18.725  17.627   9.253 -0.0155 -0.1103  0.0013
11400W        W29604   8.963   5.817  12.662  0.1970 -0.3276 -0.1343
11401W        W29605   4.590   9.967   3.015  0.0918  0.3235  0.0349
11402W        W29606   5.206  10.445   1.966  0.0300  0.0126 -0.0419
11403W        W29607   7.274   2.725  14.427  0.0399  0.1531  0.2167
11404W        W29608   1.781  10.678   0.792 -0.3206 -0.3911  0.2029
11405W        W29609  10.684   2.944  10.746 -0.2137 -0.2489 -0.1200
11406W        W29610   4.091  16.376  14.033 -0.0853 -0.1411  0.0850
11407W        W29611  17.730  10.449   2.205 -0.2607  0.0102  0.0302
11408W        W29612   3.368  14.992   1.661 -0.0973  0.0787 -0.2089
11409W        W29613  13.584   0.521  11.806  0.1408  0.0297  0.0310
11410W        W29614  17.147  14.976  13.123 -0.0622 -0.0713  0.0286
11411W        W29615   6.883   0.710   3.835  0.2658 -0.3713 -0.0057
11412W        W29616  12.167  15.216   4.101 -0.2812 -0.1827  0.1769
11413W        W29617   6.331   1.229  14.385  0.1144 -0.0542 -0.0267
11414W        W29618   5.517  13.101   3.180 -0.0433  0.1532  0.0170
11415W        W29619  16.109  16.351   4.747 -0.1614  0.1551 -0.0067
11416W        W29620  14.859   0.773   3.240 -0.0016  0.0680 -0.0243
11417W        W29621  13.282   2.671  11.342 -0.2673  0.1881  0.3121
11418W        W29622   7.737  12.492   0.299 -0.1335  0.1983 -0.1386
11419W        W29623  11.271   7.048   0.967  0.3055  0.0098 -0.0181
11420W        W29624   5.385   6.630   2.210  0.0347  0.1573  0.0561
11421W        W29625  11.439   9.569   0.247  0.0634  0.0259  0.0023
11422W        W29626  11.197  14.428   2.824  0.0773 -0.1026 -0.0121
11423W        W29627  14.290  13.961   3.163 -0.0680  0.1990 -0.1599
11424W        W29628   3.889  15.320  10.781 -0.0293  0.0540 -0.0857
11425W        W29629   6.647   3.646   3.668 -0.3561 -0.0709 -0.3914
11426W        W29630   4.955  13.866  11.161  0.1989 -0.1538 -0.1337
11427W        W29631   9.524   2.567   2.880 -0.0646  0.3420  0.0339
11428W        W29632   1.697   2.608   0.406  0.3628 -0.0211  0.3532
11429W        W29633   0.519   8.713  14.898 -0.3708  0.5374  0.0950
11430W        W29634  10.610  11.236   4.200 -0.1451  0.3191 -0.0229
11431W        W29635  10.719   7.925   4.711  0.0854 -0.0290  0.3832
11432W        W29636   6.717  11.912   1.564  0.1651  0.1855  0.2259
11433W        W29637   9.291   5.477   4.228  0.1651 -0.0718 -0.1496
11434W        W29638   7.745  16.600  12.517 -0.0897  0.0871  0.0894
11435W        W29639  14.182  10.464   5.362  0.1328 -0.0582 -0.2416
11436W        W29640  18.001  17.886   0.358 -0.1267 -0.0669 -0.0582
11437W        W29641   8.885  14.067   5.581  0.1511  0.0521  0.0222
11438W        W29642  11.442   8.393   0.664 -0.3283 -0.0742  0.0674
11439W        W29643   3.747  12.755  14.073  0.0230 -0.0315 -0.1983
11440W        W29644   7.054   0.822  12.189  0.5113 -0.3757 -0.1852
11441W        W29645   1.830   5.056  14.356 -0.0124 -0.0395  0.1192
11442W        W29646   5.779   5.789  11.175  0.0977  0.2745 -0.1420
11443W        W29647   1.189   2.696   0.005 -0.0018 -0.0817  0.0329
11444W        W29648  12.804   2.903  13.771 -0.1732  0.0970 -0.0538
11445W        W29649  13.521  10.807  12.143 -0.0596 -0.4123 -0.1791
11446W        W29650  14.303  15.966   0.358 -0.1866  0.0236 -0.0017
11447W        W29651   1.355  10.303   0.655 -0.2800  0.0332  0.2176
11448W        W29652   3.785   8.310  10.239 -0.0877 -0.1034  0.0426
11449W        W29653   8.242   2.406  12.353  0.0467 -0.1150 -0.0186
11450W        W29654  16.926  12.759  14.498  0.1513  0.1479  0.0161
11451W        W29655  10.992  17.419   1.958 -0.1896  0.1003 -0.0320
11452W        W29656  13.672   0.269  12.898 -0.1944  0.2180 -0.2162
11453W        W29657  15.456  14.732   1.497  0.2487  0.4924 -0.0276
11454W        W29658   0.578   4.496  12.218 -0.3630  0.0320 -0.1089
11455W        W29659  16.920  18.098  11.393  0.1046 -0.1955  0.1626
11456W        W29660   2.521  12.705   2.006  0.0232 -0.0631  0.3902
11457W        W29661   6.778  11.649   4.180 -0.1950 -0.1743  0.2399
11458W        W29662   2.314  18.016   3.755  0.0910 -0.0275  0.3758
11459W        W29663   3.036  13.085  13.055  0.1600 -0.1393 -0.0735
11460W        W29664  14.719  10.818   4.477 -0.0032  0.2962 -0.1302
11461W        W29665   9.625   1.934  13.140  0.3333  0.3417 -0.0167
11462W        W29666  18.017  12.552  13.657 -0.4233 -0.2849  0.3789
11463W        W29667  13.594  13.268  14.851 -0.0926 -0.0001  0.0417
11464W        W29668  17.175   3.607   0.459  0.0591 -0.0395 -0.0307
11465W        W29669   5.265   7.941   2.715 -0.1224  0.0736  0.2810
11466W        W29670   8.317   5.304   2.387 -0.0877  0.0883 -0.0758
11467W        W29671   8.208  17.283   0.232 -0.0659  0.0223 -0.1163
11468W        W29672   1.521  18.367   3.601 -0.0349 -0.1684 -0.1710
11469W        W29673   7.817   3.844   4.582  0.1364  0.1437 -0.2503
11470W        W29674   7.348   4.321   2.836  0.3482 -0.3642  0.1504
11471W        W29675  16.294   5.225  10.389 -0.2811  0.3561  0.0110
11472W        W29676   1.503  12.570   4.453 -0.1025 -0.1455  0.0817
11473W        W29677   1.328   5.039  13.018  0.1204  0.0822 -0.2068
11474W        W29678  13.688   5.973  13.281  0.1507  0.0590  0.0728
11475W        W29679   0.186   8.829  12.101 -0.1952  0.1526 -0.1173
11476W        W29680   9.816  12.042  14.087  0.1146 -0.1459  0.1822
11477W        W29681   0.117  15.464   3.221  0.1910  0.1209  0.1080
11478W        W29682  12.537  13.324   5.032  0.0186  0.2057 -0.2359
11479W        W29683   3.773   2.525  12.229  0.2248 -0.0542 -0.0885
11480W        W29684  14.436  15.352   0.458  0.1441  0.3672 -0.0693
11481W        W29685   9.354   5.515  10.776 -0.1839  0.2224 -0.0080
11482W        W29686  11.389  17.743  11.548  0.1270 -0.2379 -0.0291
11483W        W29687   5.186   1.484  11.208  0.1923 -0.3800  0.3777
11484W        W29688   5.558   5.077   4.879 -0.2753  0.1889  0.0564
11485W        W29689   8.753   1.117  13.321  0.1689  0.2379  0.0511
11486W        W29690   9.572   4.685  14.090  0.1150  0.0497  0.1030
11487W        W29691  18.140   7.801   3.565 -0.3080 -0.1152 -0.1078
11488W        W29692  16.659  12.787   4.587  0.0124 -0.0009 -0.0474
11489W        W29693  15.672  18.502   0.225 -0.1992  0.1161  0.0532
11490W        W29694   3.870   7.405  13.139 -0.0394  0.0534 -0.0015
11491W        W29695   5.666  18.761  12.941  0.0301 -0.0352 -0.0190
11492W        W29696   2.374  12.183   3.614  0.1512  0.0134 -0.2046
11493W        W29697  10.597  15.172   5.072 -0.3217 -0.1389  0.3159
11494W        W29698  13.178   9.042   2.082 -0.0017  0.1328  0.0873
11495W        W29699   2.329   8.189   2.956 -0.0631  0.0178 -0.0681
11496W        W29700  10.009  18.563  14.429  0.0984 -0.0253  0.1819
11497W        W29701  12.500   5.674  14.584  0.1444  0.1233  0.2217
11498W        W29702  10.368  12.538  13.107  0.0922 -0.3676 -0.0829
11499W        W29703  15.110  15.665  14.962 -0.2517  0.0149 -0.0222
11500W        W29704   0.732  15.151  10.679 -0.1977  0.0052  0.0129
11501W        W29705   7.236   0.052  14.452 -0.0770 -0.0062 -0.0804
11502W        W29706   2.353   5.011   1.849 -0.2595 -0.1415  0.2743
11503W        W29707  11.397  10.347   3.342  0.3109  0.2104  0.0410
11504W        W29708   5.190   0.185  14.123 -0.1160 -0.3712  0.0239
11505W        W29709   6.765   0.136   2.936  0.0595  0.0240 -0.0981
11506W        W29710   1.721   1.243   0.962 -0.1715 -0.0207  0.2295
11507W        W29711   4.718   4.296  10.506 -0.0229 -0.2831  0.0576
11508W        W29712   4.733   3.754   3.023 -0.2296  0.2429  0.0361
11509W        W29713  10.407  11.881  14.372  0.0526  0.0106 -0.0931
11510W        W29714  12.647   0.309   1.252  0.0077 -0.2022 -0.2247
11511W        W29715   3.120  17.542   3.965 -0.1555  0.1817 -0.1244
11512W        W29716  13.888   0.499   0.349  0.1899  0.0163 -0.1949
11513W        W29717   0.696   3.395  13.199 -0.2115  0.0068  0.0623
11514W        W29718  12.667  17.154   1.491 -0.1401 -0.0200  0.0493
11515W        W29719   9.231   9.823   1.417  0.2335  0.3330 -0.2415
11516W        W29720  10.575  13.415   1.902 -0.1194 -0.1494  0.1193
11517W        W29721  13.591   6.002  10.673 -0.0886 -0.1136 -0.0987
11518W        W29722  14.227  17.417  11.263  0.1777 -0.0601  0.0775
11519W        W29723  14.552  16.617   3.489  0.0116  0.1056  0.3130
11520W        W29724  13.967  11.105  13.279  0.0159 -0.1765 -0.1287
11521W        W29725  13.328   0.595   0.504 -0.0529 -0.1604  0.1579
11522W        W29726  15.083   0.207  13.221 -0.3027  0.3143  0.2433
11523W        W29727   1.198  15.617   0.516 -0.2331  0.0144  0.0029
11524W        W29728   6.820   3.163   3.624 -0.2319  0.2533 -0.0691
11525W        W29729   5.691   1.086  11.857 -0.1846 -0.2344 -0.0977
11526W        W29730  16.035  18.649   0.757  0.1630 -0.2974  0.2254
11527W        W29731   5.025   2.426  14.815 -0.1569  0.2101  0.2958
11528W        W29732  10.598  11.715   4.346  0.1510 -0.1410  0.0143
11529W        W29733   8.119  15.986   4.694  0.3359  0.0012  0.1171
11530W        W29734   8.466  10.665  14.937  0.1443 -0.3822 -0.0882
11531W        W29735  12.136  14.465  13.768  0.1227  0.1742 -0.0181
11532W        W29736   6.593   3.812  13.335  0.1830  0.0012  0.0279
11533W        W29737   0.572   6.290  10.604 -0.2261 -0.0089 -0.0085
11534W        W29738  12.603   7.657  13.479  0.1387  0.1019  0.3679
11535W        W29739   6.280   2.462   0.160 -0.2407 -0.0387  0.0587
11536W        W29740  12.838  12.914   2.133 -0.2514  0.1940  0.0551
11537W        W29741  18.305  18.807   2.583  0.2379 -0.0381 -0.0613
11538W        W29742  15.582  13.443   2.829  0.0100  0.2237 -0.2195
11539W        W29743   3.190   1.897  11.804  0.1739  0.3939 -0.1083
11540W        W29744  18.218   1.439   0.422  0.1860  0.1266 -0.0508
11541W        W29745  10.734   0.737   2.700 -0.2566 -0.0393  0.1365
11542W        W29746   9.892  11.022   2.577  0.1709 -0.1001 -0.2626
11543W        W29747   2.071   1.980  12.571  0.0267  0.0063 -0.0117
11544W        W29748   5.449  10.902  14.366  0.0611 -0.1495 -0.1290
11545W        W29749  14.715   6.310  12.587  0.3615  0.0381 -0.1653
11546W        W29750  16.999   7.307   0.887 -0.2129  0.1333  0.1871
11547W        W29751  12.833   0.325  14.198 -0.0978 -0.4602  0.0213
11548W        W29752   8.066  18.821   2.412 -0.2450  0.2831 -0.1859
11549W        W29753   3.417  13.956  14.274 -0.4078 -0.3410 -0.1895
11550W        W29754  15.471  15.034  11.101 -0.3456  0.0557 -0.0883
11551W        W29755  14.317   1.259  10.905 -0.2377  0.0102  0.2447
11552W        W29756   8.410  18.081   1.214  0.2011 -0.1299  0.0660
11553W        W29757   6.698  10.279   3.773 -0.0911  0.4362  0.1720
11554W        W29758   2.161  17.522  11.159  0.0697 -0.1706  0.0286
11555W        W29759  12.188  10.405   3.856  0.1151  0.1121  0.2389
11556W        W29760  18.515  14.248  13.676  0.1947 -0.0690  0.1809
11557W        W29761   2.948  10.535  11.904 -0.1421  0.2959 -0.1595
11558W        W29762  16.181  17.036   0.292  0.1112 -0.1255 -0.0827
11559W        W29763   8.229   4.385   2.710 -0.1051  0.3484 -0.1087
11560W        W29764  17.677  14.360  14.853 -0.1100 -0.0608  0.0555
11561W        W29765  10.618   8.636  13.315  0.2561 -0.3236  0.0755
11562W        W29766   1.252   3.280   1.648  0.3202  0.2328 -0.0470
11563W        W29767   1.343   9.275   3.337  0.0288  0.0545 -0.0878
11564W        W29768   2.810   9.542   3.532  0.0719 -0.0931  0.0290
11565W        W29769   6.313   1.166  11.961 -0.3743  0.1143  0.2263
11566W        W29770   4.839   5.084   2.445 -0.0007 -0.0770 -0.1965
11567W        W29771  17.702  18.854  14.464  0.2546  0.1588  0.0164
11568W        W29772   9.093  15.701   3.051  0.1857  0.1888  0.1393
11569W        W29773   7.290   0.108   2.875 -0.1418 -0.0202  0.2505
11570W        W29774  12.263  10.113   2.120  0.1333  0.1781  0.0568
11571W        W29775   4.466  16.422   2.285  0.2364 -0.0553  0.0437
11572W        W29776   6.193   1.775  14.245  0.2237 -0.0636 -0.0792
11573W        W29777   4.213  11.953   2.881  0.0573 -0.1463 -0.2003
11574W        W29778   3.187  13.172  11.209  0.0426 -0.0325 -0.1427
11575W        W29779   3.728   4.139  13.330 -0.0341 -0.2647  0.5135
11576W        W29780  13.048   2.267  11.448 -0.4531 -0.1444  0.1732
11577W        W29781   8.928  17.652  14.691 -0.1853 -0.1788  0.0233
11578W        W29782   3.046   5.180   3.134  0.5161 -0.0543  0.0642
11579W        W29783   4.826   8.992   3.682 -0.0436 -0.1384  0.0222
11580W        W29784   1.293   4.439  11.680  0.1007  0.0580  0.0050
11581W        W29785  10.831  11.913   2.323 -0.0004  0.0475  0.0553
11582W        W29786   2.033   0.133  10.258  0.2723 -0.0500  0.0736
11583W        W29787   0.713   7.702  10.316  0.0705 -0.1201  0.1102
11584W        W29788   8.606   7.394  13.963  0.2426  0.1918 -0.0519
11585W        W29789  15.036  10.606   3.522 -0.0435  0.0152  0.5160
11586W        W29790   5.878   8.724   0.534 -0.2313  0.0228 -0.0931
11587W        W29791   0.135   5.240  13.169  0.1298 -0.0208  0.0125
11588W        W29792   7.510   6.882  12.696 -0.0692  0.0864  0.0872
11589W        W29793   9.676  10.027   4.295 -0.2252  0.0205  0.0072
11590W        W29794   2.599  12.215   0.477 -0.0628  0.2000 -0.0832
11591W        W29795  18.420  14.234   3.296  0.1322 -0.0005 -0.1773
11592W        W29796  10.539   7.879   3.767  0.1966 -0.0310 -0.3498
11593W        W29797   5.281  17.225  12.755 -0.1792 -0.0188 -0.0607
11594W        W29798  10.923   4.301  13.052 -0.2853  0.0029 -0.1093
11595W        W29799  14.041   6.027   5.438  0.1750  0.0464  0.0742
11596W        W29800   0.948  16.660  14.572 -0.2434 -0.4616 -0.0339
11597W        W29801   5.431  16.028  13.181 -0.3448 -0.1581 -0.1377
11598W        W29802   4.638  15.871   1.646 -0.0760 -0.0022  0.0935
11599W        W29803   6.673  11.115   5.376  0.0301 -0.4100  0.0895
11600W        W29804  12.558  17.521   1.826  0.0127 -0.1053 -0.1757
11601W        W29805  11.232  17.230   3.437 -0.0250 -0.1346 -0.1619
11602W        W29806  12.000  12.223  14.045  0.4630  0.0560  0.0358
11603W        W29807  15.361  18.079  10.855 -0.2320 -0.0854 -0.3264
11604W        W29808  16.747   6.823  11.159  0.1533  0.0505  0.0078
11605W        W29809  13.893   9.156   2.094  0.3245 -0.0823 -0.1671
11606W        W29810   7.885   0.691  12.155  0.1658 -0.2159 -0.0824
11607W        W29811   8.238  17.210  13.154  0.1018  0.0066 -0.0464
11608W        W29812  12.663   5.788   3.462 -0.1450  0.0546  0.0844
11609W        W29813  11.081  15.597  14.538  0.6480  0.1666  0.0809
11610W        W29814  15.993  18.116  14.434  0.1765 -0.2813 -0.0620
11611W        W29815   9.543  10.705  13.504 -0.0649  0.1248  0.0234
11612W        W29816  10.358   9.685  10.823  0.0545  0.0190 -0.3474
11613W        W29817  12.900   9.360   3.632 -0.0153  0.1147 -0.1222
11614W        W29818  18.798   2.131  11.876 -0.3214  0.0364  0.0778
11615W        W29819   3.164   2.291  14.943 -0.1011  0.1715  0.0670
11616W        W29820   9.356   4.019   0.574 -0.0669  0.0074 -0.0750
11617W        W29821   6.440   8.242  12.080  0.1354 -0.1470 -0.0899
11618W        W29822  11.799   4.644   0.420 -0.2087  0.2653  0.1463
11619W        W29823   6.745   6.656   1.340  0.0593  0.1793 -0.0933
11620W        W29824   5.916  14.909   0.780 -0.1703 -0.0393 -0.1395
11621W        W29825   0.519  14.684  13.474  0.0058  0.1904  0.0033
11622W        W29826  15.365  15.545   0.469  0.1472 -0.2187  0.0400
11623W        W29827   9.013  18.539   4.167 -0.0866  0.0098 -0.1903
11624W        W29828   4.457   9.895  14.589  0.1765 -0.2029 -0.1753
11625W        W29829   7.648   7.380   1.373  0.1818 -0.2985  0.1648
11626W        W29830   7.387   5.391   1.464 -0.0518 -0.0056  0.1216
11627W        W29831  16.890   2.033   0.455 -0.0276  0.3967  0.3075
11628W        W29832   0.170   8.852   3.445 -0.0038 -0.2439 -0.0781
11629W        W29833  18.621  13.613  11.278 -0.3004 -0.3267 -0.1490
11630W        W29834   5.129   2.771  14.444 -0.1278  0.2110  0.0837
11631W        W29835  17.557   1.248  13.129  0.3730 -0.1306 -0.2009
11632W        W29836   8.612   2.723  11.469 -0.3079 -0.1074 -0.0905
11633W        W29837   3.477   5.503  11.506 -0.1996 -0.0082  0.2389
11634W        W29838   8.021  12.794  13.279  0.0053 -0.1251  0.0645
11635W        W29839   0.107   9.982  14.311  0.2805 -0.4108 -0.1470
11636W        W29840  12.948   1.256  11.748  0.3232 -0.4128 -0.2377
11637W        W29841  11.939  18.584   0.162 -0.0958 -0.0576 -0.0220
11638W        W29842  13.227   2.178   3.347 -0.0338 -0.0843  0.2423
11639W        W29843   3.015   8.666   0.483  0.1566  0.0965 -0.3874
11640W        W29844   2.862   8.272  14.723  0.2218  0.0848 -0.2705
11641W        W29845  13.048  14.730   4.356  0.2063 -0.1659  0.0062
11642W        W29846   3.741   7.546   2.381 -0.0713  0.2927  0.0189
11643W        W29847   4.894   7.816  14.261 -0.1408  0.1328 -0.1158
11644W        W29848   8.714   5.121   0.135 -0.1270  0.1149 -0.2918
11645W        W29849  15.708   8.039  14.527  0.2058 -0.1857 -0.1057
11646W        W29850  14.578  12.221  10.413  0.1239 -0.0431  0.0209
11647W        W29851   1.140  13.220  14.434  0.1262 -0.0853  0.0202
11648W        W29852   5.172  14.308  14.706  0.1468 -0.0288 -0.2541
11649W        W29853   3.961   7.750  11.040 -0.2376  0.1138 -0.0041
11650W        W29854   9.572  12.689   5.891 -0.0561  0.2138 -0.1454
11651W        W29855   5.210   0.360   2.646 -0.0283  0.1253 -0.3437
11652W        W29856   9.756  12.820  11.114 -0.0650 -0.1959  0.3680
11653W        W29857  10.766  10.243   4.057 -0.3167  0.1646  0.2967
11654W        W29858   8.247  15.894   1.244 -0.0951  0.2911  0.0684
11655W        W29859   3.623   1.522  13.957 -0.0114 -0.2801  0.0815
11656W        W29860   9.687  16.371   0.956  0.2385  0.1237  0.0867
11657W        W29861   6.065   8.724   3.448  0.0577  0.2221  0.0539
11658W        W29862  13.451   4.998  13.068  0.2614 -0.0950  0.0523
11659W        W29863   1.240  16.809   0.908 -0.3651  0.0712  0.0310
11660W        W29864   8.882   6.431   5.109 -0.0828 -0.1417  0.1685
11661W        W29865  15.877  17.788  13.991 -0.1531 -0.0337  0.3346
11662W        W29866  17.568  14.014   2.971  0.3988  0.0342 -0.2115
11663W        W29867  13.536   1.556  13.849 -0.1015  0.5827 -0.2405
11664W        W29868  16.578  16.602   4.020  0.0303 -0.1804  0.1625
11665W        W29869  14.977   4.632   4.701 -0.0038  0.1595  0.0080
11666W        W29870   3.835  15.009  14.039 -0.0572 -0.0474  0.2801
11667W        W29871   4.968  16.622   1.099  0.3274 -0.1591 -0.1344
11668W        W29872  17.066   2.174  12.850 -0.0124 -0.2993  0.0999
11669W        W29873  10.928  10.851   4.148  0.0086 -0.0477 -0.0608
11670W        W29874  13.130  15.999   4.663  0.5715  0.1449 -0.2502
11671W        W29875   3.465   9.578   3.618 -0.1270  0.2418 -0.1457
11672W        W29876  15.595   0.781   0.374  0.2149  0.1727  0.0071
11673W        W29877   2.491   3.289  14.144  0.1536  0.1267 -0.0652
11674W        W29878   2.470  17.476  14.756  0.1243  0.0747  0.1514
11675W        W29879  18.595  12.535   3.058 -0.1189 -0.1171  0.0415
11676W        W29880  12.194   0.285  13.703 -0.0955 -0.2499  0.0550
11677W        W29881  16.678   3.085   3.325 -0.1040 -0.0470 -0.0471
11678W        W29882   5.590  15.799   1.114  0.7345 -0.1891 -0.1637
11679W        W29883   3.042   7.819  10.900  0.0366  0.0927 -0.0713
11680W        W29884   4.423   9.884  14.121 -0.0550 -0.0065  0.0778
11681W        W29885  13.002  12.424   5.639  0.1922 -0.3844  0.1240
11682W        W29886   3.619   9.250  11.675  0.0043  0.0005  0.1807
11683W        W29887   9.135   4.169  11.640  0.0206 -0.1298  0.4226
11684W        W29888  11.578  15.538   4.155  0.3888  0.1557 -0.0726
11685W        W29889  10.663  16.822  12.907 -0.0843 -0.1922  0.0406
11686W        W29890  11.578  10.248  13.585 -0.0213  0.2685  0.0020
11687W        W29891  17.093   4.998   0.562 -0.1371  0.0354 -0.1184
11688W        W29892   1.918   5.717  11.594  0.0776 -0.1425  0.0077
11689W        W29893   2.356   8.424   3.462  0.1198 -0.0445  0.2393
11690W        W29894  16.598   5.041  12.446  0.0566 -0.0224  0.0034
11691W        W29895   2.129  10.179   9.868 -0.2678 -0.0152  0.1387
11692W        W29896  14.209   4.194  11.328 -0.1918  0.0260  0.0862
11693W        W29897  18.470  12.914   1.989 -0.0442  0.2045 -0.1317
11694W        W29898   3.467   1.111  12.527  0.1563  0.0699  0.1844
11695W        W29899  16.447  18.810  14.229  0.0084 -0.1061 -0.3253
11696W        W29900  12.969   1.074  10.566  0.2598  0.2533  0.0819
11697W        W29901   1.320  10.544  12.174 -0.2379  0.1407  0.2455
11698W        W29902   9.918   4.185   3.947 -0.0693  0.3538  0.1248
11699W        W29903   1.840   5.388  14.795 -0.2931 -0.0175  0.2879
11700W        W29904  18.953   3.034  11.314  0.2578 -0.1210 -0.2256
11701W        W29905  18.083  18.289  10.565  0.1033  0.1389 -0.1210
11702W        W29906   3.403  16.743  13.361 -0.2145  0.0123  0.0910
11703W        W29907  12.653  10.550   2.926 -0.1270 -0.3947 -0.1699
11704W        W29908  12.127   5.853   3.608  0.3107  0.2804  0.2317
11705W        W29909   7.162  10.978  14.506  0.1185 -0.1371 -0.1702
11706W        W29910   6.078  11.799  11.032  0.0195 -0.0524 -0.0004
11707W        W29911   6.535   8.461  11.668  0.1891  0.0322 -0.0481
11708W        W29912  11.615  17.244   4.252  0.2439  0.0886  0.1994
11709W        W29913  10.413  16.021  14.210 -0.0502  0.0656 -0.2225
11710W        W29914  17.313   8.608  11.056  0.0290 -0.0615 -0.0282
11711W        W29915  16.303  15.898  12.511 -0.2125 -0.1897 -0.1104
11712W        W29916  16.708  17.000   1.144  0.0552 -0.1267 -0.1809
11713W        W29917   6.312  10.124   2.516 -0.0910  0.1241 -0.1391
11714W        W29918   0.148   5.970  12.205 -0.3801  0.2112 -0.0131
11715W        W29919  10.112   2.172  11.911  0.1029 -0.1436 -0.0882
11716W        W29920  16.733   5.241  10.710  0.2542 -0.3021 -0.3419
11717W        W29921   2.801   1.189  13.533 -0.1924 -0.2737  0.0901
11718W        W29922  10.861   9.522  13.985 -0.0057 -0.0928 -0.0316
11719W        W29923  18.269   7.943   2.152  0.0085 -0.1323 -0.0642
11720W        W29924   4.672  17.090  13.813  0.3072  0.0171  0.1785
11721W        W29925   1.899   9.116   5.330  0.0430 -0.0399  0.2335
11722W        W29926   4.122  18.789   3.343 -0.0809 -0.2612 -0.4806
11723W        W29927  11.384   5.035   2.494  0.2347  0.1734 -0.1322
11724W        W29928  12.667   5.960   3.988  0.0314  0.1646  0.2878
11725W        W29929  10.687   1.709  11.425  0.1228 -0.0052  0.3987
11726W        W29930  11.254   0.962   1.066 -0.0903  0.0400  0.0198
11727W        W29931  17.560   9.599  12.500  0.1783 -0.3710  0.0235
11728W        W29932  15.163   2.041   2.241  0.0051  0.5799  0.1442
11729W        W29933   7.106   1.708   0.291 -0.0820 -0.2706  0.0558
11730W        W29934   1.383   7.366  12.579  0.0813 -0.1930  0.0719
11731W        W29935   6.697   4.603  12.531 -0.4423 -0.1991 -0.1011
11732W        W29936   9.506   9.292   4.325  0.4294  0.3149 -0.0039
11733W        W29937   7.003   7.377  13.560 -0.0733 -0.0976 -0.1812
11734W        W29938   2.882  16.680  11.292 -0.0090 -0.5192 -0.0314
11735W        W29939  17.051  17.984  12.711  0.1215  0.1135 -0.0479
11736W        W29940   4.203  18.637   1.816  0.3573 -0.0832  0.1027
11737W        W29941   7.168  15.739  10.552 -0.3231  0.0688 -0.1232
11738W        W29942   5.498   4.263  12.916 -0.2453  0.0645  0.2902
11739W        W29943  12.934   0.716  11.445  0.1152 -0.1297  0.2149
11740W        W29944   9.378  17.988  14.911 -0.2141  0.1843  0.1690
11741W        W29945  14.783   9.227   1.162 -0.1815 -0.2344 -0.0790
11742W        W29946   0.077   4.107   1.117  0.0697  0.3132 -0.4398
11743W        W29947  17.525   4.464  12.535  0.2228 -0.0394 -0.0978
11744W        W29948   6.642   6.310  14.917 -0.0521 -0.0568  0.0143
11745W        W29949   5.101   3.891   4.336  0.0246 -0.1364  0.0767
11746W        W29950  17.950   5.426   0.959  0.0058 -0.0694 -0.0302
11747W        W29951  17.486   5.878   3.826 -0.1606 -0.1710 -0.1361
11748W        W29952  12.964  11.511   1.281  0.1804 -0.1494  0.0578
11749W        W29953   9.960  16.434  14.849 -0.1354 -0.1143  0.3022
11750W        W29954  11.406   9.334  14.041 -0.0011 -0.0801  0.1451
11751W        W29955   5.829  10.976   0.129 -0.0915  0.0683  0.2472
11752W        W29956  15.470  18.589  12.704  0.1499 -0.1441  0.1465
11753W        W29957   1.983   8.002  12.891  0.1125  0.0523  0.1621
11754W        W29958  18.002  12.607  10.619  0.0503  0.0292  0.0233
11755W        W29959  16.364   9.913  11.419  0.0848 -0.0059 -0.0512
11756W        W29960   1.195  15.875   4.838  0.2018 -0.2667  0.0425
11757W        W29961  14.376   1.687   3.954  0.2441  0.1782 -0.3994
11758W        W29962   9.151  18.773  13.556 -0.0037 -0.0782  0.4327
11759W        W29963  16.196   3.485  13.662 -0.0933 -0.1090  0.0519
11760W        W29964   6.869   8.121  14.025  0.0722 -0.1462 -0.1034
11761W        W29965   0.854   9.603  14.039 -0.0042  0.1778 -0.2962
11762W        W29966   5.389  14.377   5.439  0.1832 -0.1504 -0.0328
11763W        W29967   0.930  14.316   3.132  0.3280 -0.0683  0.0146
11764W        W29968  10.642  11.005   4.624 -0.1025  0.1853 -0.0089
11765W        W29969   8.501  11.570  14.280 -0.4813  0.1117 -0.1326
11766W        W29970  13.497   8.809   0.710 -0.1532 -0.1674 -0.0157
11767W        W29971  18.906  10.214   3.671  0.0120 -0.1863  0.2294
11768W        W29972   8.956   0.236  14.138 -0.0931 -0.0188  0.0348
11769W        W29973  14.070   7.437   1.176 -0.0563 -0.2739  0.2262
11770W        W29974  17.096   8.996  13.984  0.0898  0.2403  0.1199
11771W        W29975  10.030   3.968  13.161 -0.1353 -0.3594  0.0078
11772W        W29976  16.910   3.299   1.934 -0.1617 -0.0190  0.0195
11773W        W29977   2.782  17.978  14.669  0.0319  0.0938 -0.0412
11774W        W29978  13.857   0.431  14.569  0.0743 -0.0209 -0.0551
11775W        W29979   3.092   8.099   1.402 -0.1393 -0.0448 -0.0023
11776W        W29980  11.756  10.103   0.800 -0.0451 -0.3681  0.1647
11777W        W29981   7.502  16.310   1.469 -0.2251 -0.0442 -0.3837
11778W        W29982   9.670   8.160  12.777  0.0385 -0.3200  0.0785
11779W        W29983  15.140   6.006   9.842 -0.0280  0.0516  0.2138
11780W        W29984   4.749   0.415  12.060 -0.0817 -0.1208  0.0179
11781W        W29985  10.581   6.084  14.300  0.0202 -0.0804  0.1811
11782W        W29986   7.947   5.673  11.128  0.2563  0.2616 -0.1363
11783W        W29987  16.073  16.685   3.726 -0.0055 -0.0519  0.5996
11784W        W29988   5.544   5.920   3.766 -0.0932  0.0945  0.1313
11785W        W29989  11.162  14.168  10.931 -0.0589  0.1281  0.0260
11786W        W29990   2.542  13.705   0.035 -0.2385  0.1347  0.1984
11787W        W29991  10.930  13.097   2.937  0.2004 -0.1352  0.2481
11788W        W29992   1.896  18.424  11.761  0.0010 -0.1406  0.0593
11789W        W29993   1.894  15.786  10.866 -0.2216  0.1374  0.1632
11790W        W29994   8.482   2.690   4.216  0.0701 -0.0181  0.3188
11791W        W29995  11.808  14.746  11.797 -0.0789 -0.2652 -0.0992
11792W        W29996   7.574   6.469  13.921  0.0204  0.0292  0.2542
11793W        W29997   3.545  17.711  13.214 -0.2516  0.2449 -0.1874
11794W        W29998   6.377  13.516  14.640  0.0147  0.1433 -0.0583
11795W        W29999   5.070  10.228  13.744  0.1308  0.1429 -0.0504
11796W        W30000  17.888  14.279   3.250  0.1497 -0.3863  0.0484
11797W        W30001   2.469   7.077  13.875  0.0101  0.1757  0.0616
11798W        W30002  13.022   1.129   1.949  0.1941 -0.0048  0.0423
11799W        W30003   7.027   1.336  11.357  0.0584  0.0731 -0.0407
11800W        W30004   7.871   2.889   0.602  0.1624 -0.0928 -0.2444
11801W        W30005   1.784  10.813   1.635  0.1340  0.0856  0.0451
11802W        W30006  18.327  14.367  12.964  0.1657  0.2035 -0.0681
11803W        W30007   3.113   4.479   2.227 -0.2382  0.0490  0.2024
11804W        W30008   5.248  13.775  10.820 -0.2891 -0.2158 -0.0224
11805W        W30009   8.853  12.461  13.759  0.2341  0.2332 -0.0086
11806W        W30010   2.241   7.972   4.853 -0.4570 -0.0934  0.1494
11807W        W30011   7.138  12.306   4.638  0.0825  0.0224 -0.2237
11808W        W30012  11.723   2.061  14.596  0.1626 -0.0575  0.0211
11809W        W30013  11.237   9.442  12.598  0.0004  0.0962 -0.1506
11810W        W30014   3.337  10.382  13.902 -0.3168 -0.1716 -0.0349
11811W        W30015  12.157   4.319  14.675 -0.0714  0.4458  0.4579
11812W        W30016   6.693  14.121  11.409 -0.3022  0.2286 -0.1154
11813W        W30017  15.622   4.258  10.569 -0.1756  0.1278 -0.1102
11814W        W30018  11.879  13.164  14.379  0.3273 -0.0869  0.4017
11815W        W30019   4.205   3.707  12.470  0.1008 -0.1518 -0.1270
11816W        W30020  10.547   0.342  13.844 -0.1010 -0.0879 -0.1494
11817W        W30021  16.573   7.676  11.910 -0.0731  0.2556 -0.0084
11818W        W30022  13.262  13.812  14.492  0.0850 -0.1893  0.3394
11819W        W30023   3.620   7.015   3.715  0.5093 -0.0961  0.0340
11820W        W30024   1.560  10.015   3.953 -0.0369  0.0762 -0.2841
11821W        W30025  12.414  16.596  10.083 -0.0100  0.0359  0.1852
11822W        W30026   9.761  18.353   0.061 -0.1598 -0.0800 -0.0554
11823W        W30027   9.482   5.079   3.008 -0.2826 -0.2753 -0.0245
11824W        W30028   2.557   9.285   4.687  0.0409  0.0610  0.0519
11825W        W30029  10.492   7.262  14.343 -0.0336  0.1152  0.0197
11826W        W30030   8.908   7.149   1.574  0.2551  0.0483  0.2248
11827W        W30031  12.618   6.471  13.043  0.2483  0.0038 -0.1973
11828W        W30032   7.966  17.998   3.599 -0.1927 -0.0493  0.2258
11829W        W30033   5.349   3.398   3.619 -0.2158 -0.0865  0.1526
11830W        W30034  10.435  15.255  11.866 -0.0138 -0.0507  0.0158
11831W        W30035   6.770  12.453   0.392  0.0641 -0.1172  0.0455
11832W        W30036  14.884  15.728  10.347 -0.0351  0.1781  0.1188
11833W        W30037  14.242  16.333  12.633 -0.4979  0.0154  0.1700
11834W        W30038  14.713  17.056  13.183  0.1039  0.0205  0.1674
11835W        W30039   5.654  16.788  11.227 -0.1718 -0.1140 -0.1778
11836W        W30040  10.939   4.796  11.056 -0.0601 -0.2486  0.3527
11837W        W30041   9.381   7.244   9.786 -0.1694 -0.0988  0.1109
11838W        W30042  14.410  10.014  14.353  0.2408  0.2749  0.0707
11839W        W30043   7.076   9.330   0.343  0.0736 -0.1616 -0.3719
11840W        W30044   5.999   6.008   4.594  0.1176 -0.2594  0.1681
11841W        W30045   0.188   3.099  10.405 -0.3466  0.0308  0.0168
11842W        W30046   1.353   9.942   0.031 -0.0533 -0.1214  0.2635
11843W        W30047   5.964  12.687  12.380  0.0407 -0.0910  0.2684
11844W        W30048  16.801   5.856   3.049 -0.1641 -0.0771 -0.1338
11845W        W30049   4.324   7.905   9.633  0.2509 -0.0453  0.0644
11846W        W30050   3.267  13.452  12.209  0.2904 -0.0287  0.1506
11847W        W30051   1.392  17.667  11.816  0.1078 -0.1386  0.1423
11848W        W30052  11.293   9.281   0.630  0.2509 -0.3119  0.0753
11849W        W30053   5.071  17.014   0.572 -0.3934 -0.0841  0.1027
11850W        W30054  13.974  16.898  12.961  0.0598 -0.0620 -0.2247
11851W        W30055   6.545  15.946   4.542  0.0602 -0.3106 -0.1350
11852W        W30056   6.259   2.730   2.490 -0.0762  0.0415  0.5330
11853W        W30057  14.103  16.937   4.289  0.3254 -0.3019 -0.2316
11854W        W30058   3.093  18.607  10.857  0.0402 -0.0423 -0.3878
11855W        W30059  14.587   2.172  14.955 -0.1221  0.2787 -0.0062
11856W        W30060  12.040  15.380   3.058 -0.0224  0.0703 -0.2653
11857W        W30061  16.116  16.971   2.242  0.2910 -0.0099 -0.0536
11858W        W30062  15.277   8.592   2.448  0.1800 -0.1363 -0.0281
11859W        W30063   2.270  14.729   1.870 -0.1009  0.0620 -0.1597
11860W        W30064  18.118  10.033   0.412 -0.0874 -0.1547  0.0124
11861W        W30065  16.159  12.693   0.718  0.2463 -0.0032  0.1231
11862W        W30066   2.146  16.424  13.799 -0.0762  0.1807 -0.0677
11863W        W30067  12.106  10.375   1.690  0.1506 -0.3725  0.0800
11864W        W30068  10.945  14.280  14.881  0.0201  0.2126 -0.0543
11865W        W30069   9.303   9.718   2.770 -0.0309 -0.1696 -0.0718
11866W        W30070   9.450  18.696   3.261 -0.0786  0.0900 -0.4382
11867W        W30071   6.724  13.794   1.046  0.1273 -0.0612  0.1348
11868W        W30072   8.693  14.056  12.969 -0.0197  0.0661 -0.0574
11869W        W30073  11.577  10.314   1.668  0.3083 -0.0482  0.0096
11870W        W30074  10.105   4.921   1.881  0.3994  0.1434  0.2869
11871W        W30075  17.078  12.237   1.217  0.5059 -0.0953 -0.0293
11872W        W30076   9.032   2.453   1.183  0.1283  0.1974  0.1426
11873W        W30077  11.056   7.966  14.240 -0.1170  0.2652 -0.2732
11874W        W30078  10.262   0.743  11.028 -0.1526 -0.1426  0.0925
11875W        W30079  17.313  13.146  10.155  0.4825 -0.1849  0.0842
11876W        W30080   6.351  14.403   0.405  0.1546  0.0306  0.0526
11877W        W30081   5.735  15.703   3.408  0.0753  0.1044  0.1962
11878W        W30082   3.226   8.106  11.300 -0.1678  0.0025  0.0784
11879W        W30083   4.614   4.659   4.352  0.0488 -0.0005  0.0889
11880W        W30084   0.375  12.080   1.586  0.2991 -0.4951 -0.1425
11881W        W30085  12.934  14.810   3.897  0.1380 -0.0380  0.2855
11882W        W30086   2.864   6.794   9.855  0.2265 -0.1365 -0.0593
11883W        W30087   8.593  15.004   3.933 -0.0942 -0.1895 -0.3029
11884W        W30088   4.443  16.594  10.816  0.1067  0.1450  0.1287
11885W        W30089  10.779   7.122   1.179 -0.0413  0.2925  0.3139
11886W        W30090   8.860  16.859  11.516 -0.1666  0.0752 -0.0289
11887W        W30091   8.653  11.505   1.335 -0.1840  0.2030  0.2678
11888W        W30092   2.561   2.234   3.885  0.2239  0.0066 -0.0155
11889W        W30093  12.769   6.309   2.363 -0.2142 -0.4040  0.1300
11890W        W30094  13.166  13.746  10.742 -0.2304  0.3133  0.0107
11891W        W30095  15.073  14.730   4.100  0.0167  0.3421 -0.1305
11892W        W30096   6.627  14.914   1.352  0.2048 -0.3461  0.4164
11893W        W30097   5.053   6.710  12.885  0.0337  0.2196  0.0121
11894W        W30098  14.503  12.690   1.225 -0.2929  0.0691  0.0857
11895W        W30099   0.111  15.335  11.476 -0.0926  0.1986 -0.1104
11896W        W30100   4.505   8.098  14.181 -0.0593  0.0487 -0.1771
11897W        W30101  18.343   3.763  13.905  0.1134  0.0856 -0.0158
11898W        W30102  12.518   1.303  13.406 -0.0927  0.1291  0.1483
11899W        W30103   8.007  11.707   0.850 -0.0200 -0.0350 -0.0838
11900W        W30104   6.023  17.111   3.746 -0.1474 -0.1362  0.2442
11901W        W30105   8.693   3.837   3.150 -0.4847  0.0613  0.3402
11902W        W30106  17.811  18.776  10.546  0.2706 -0.2315 -0.1105
11903W        W30107   7.272   5.728  14.484  0.1054 -0.3270  0.0631
11904W        W30108   7.267  14.601   4.074  0.0413  0.1683 -0.1130
11905W        W30109  18.446   1.266  14.176  0.0711  0.0218 -0.2110
11906W        W30110   8.408   5.771  12.413 -0.0790  0.2373  0.1129
11907W        W30111   6.430   0.084  12.710  0.1297 -0.3804 -0.2388
11908W        W30112  17.019   8.818   1.135 -0.0430  0.0064  0.0376
11909W        W30113  14.494  14.317  10.511 -0.1981  0.0855 -0.1228
11910W        W30114   2.303  12.487   1.636  0.0802 -0.0946  0.1621
11911W        W30115   4.536   4.290   0.535 -0.0562 -0.2219  0.1444
11912W        W30116   2.126  13.066  13.185 -0.4034  0.1643  0.0894
11913W        W30117   0.821  11.159  11.258  0.3410  0.1820  0.0327
11914W        W30118  13.698  10.315   2.346 -0.1682  0.0592  0.0074
11915W        W30119  11.978   7.923  12.308 -0.0262  0.0962 -0.0612
11916W        W30120   6.507   9.080   3.791  0.1760  0.2012  0.1936
11917W        W30121  10.576   2.035   4.068  0.0424  0.2598  0.2704
11918W        W30122   6.199  15.339  12.891 -0.5215 -0.2219 -0.2037
11919W        W30123   4.579   4.966   3.978 -0.0036 -0.1668 -0.2241
11920W        W30124   4.855  18.247  10.646  0.0116 -0.0437  0.1977
11921W        W30125   8.543   1.279  10.874 -0.0737 -0.0470  0.1428
11922W        W30126   2.885  10.036   1.593 -0.0963 -0.1106 -0.1365
11923W        W30127   8.894  17.626  14.209  0.1331  0.3064 -0.5009
11924W        W30128   0.403  16.086  12.682  0.0598 -0.1903 -0.1770
11925W        W30129  13.996   3.708  10.585  0.1348 -0.1308  0.0000
11926W        W30130   2.984   4.406   1.675 -0.1314 -0.2572 -0.1721
11927W        W30131  10.923  13.773  10.623  0.0088  0.1339 -0.1501
11928W        W30132   1.810  14.882   4.123 -0.0532 -0.2529  0.0612
11929W        W30133   2.675  13.570  12.480  0.2345 -0.0224  0.1934
11930W        W30134   6.982  13.317  10.616  0.0886  0.0216  0.1319
11931W        W30135   7.386  16.713   4.304  0.2211 -0.0849  0.1111
11932W        W30136  17.796   5.799   0.554 -0.3459  0.1190  0.1274
11933W        W30137  16.467  10.769  11.395  0.1754 -0.1712 -0.2022
11934W        W30138  18.258   3.509  10.638  0.0601 -0.4387  0.1005
11935W        W30139   0.482  10.247   5.144 -0.1339  0.2239  0.0469
11936W        W30140  15.339  16.835   1.629  0.2435 -0.2615 -0.2982
11937W        W30141   2.206   4.910  12.611 -0.2091  0.1140 -0.2587
11938W        W30142  14.623  15.040  11.829  0.2476 -0.0941 -0.0578
11939W        W30143  14.208   0.044  14.670  0.2877  0.1474  0.2629
11940W        W30144  18.065   5.775  10.874 -0.0148  0.4972 -0.3096
11941W        W30145   1.080  15.903  13.813  0.2585  0.1225  0.0928
11942W        W30146   6.086  17.468  14.170 -0.0774 -0.5079  0.1684
11943W        W30147  16.708  12.079  14.673 -0.0833  0.1883 -0.0651
11944W        W30148   6.690   1.597  11.083  0.1890  0.0883  0.1630
11945W        W30149   0.316   0.817  12.042  0.0362 -0.4460  0.0430
11946W        W30150   7.852  12.024   2.943 -0.1576  0.0291  0.2135
11947W        W30151  11.368  11.915  14.596 -0.2114  0.0578  0.0670
11948W        W30152  12.668   4.916   0.453 -0.0915  0.0188 -0.1068
11949W        W30153   1.707  14.925   2.120  0.2637  0.2242 -0.2477
11950W        W30154  15.001   0.672   2.758  0.1651 -0.0965 -0.1520
11951W        W30155   7.707  13.755  13.229 -0.0125  0.6060  0.2107
11952W        W30156  16.555   0.104   1.525  0.2113  0.3805 -0.0233
11953W        W30157   4.893  17.114   1.850 -0.2635  0.5492 -0.1101
11954W        W30158   4.978  16.330   1.548 -0.3345 -0.0830 -0.1473
11955W        W30159   3.943  16.040  13.059  0.3330  0.0118  0.4729
11956W        W30160   0.619  15.034   5.117 -0.2295 -0.0829 -0.0535
11957W        W30161  17.618   5.043  14.588 -0.1222  0.2818  0.1946
11958W        W30162   8.069  14.040   4.180 -0.0166  0.2405 -0.1194
11959W        W30163   4.238  10.411   2.055 -0.0895 -0.0201  0.0650
11960W        W30164  15.455   9.719  11.363  0.6543  0.0476  0.0430
11961W        W30165  13.046   9.061   3.989 -0.1751  0.0977  0.1515
11962W        W30166  17.277  16.489  12.213  0.0762  0.1504 -0.3182
11963W        W30167   6.455   9.016  14.845  0.2189 -0.0031  0.2870
11964W        W30168  11.945  18.376   0.986  0.0335  0.2626 -0.0086
11965W        W30169   4.968   7.485   0.850  0.1374 -0.1056 -0.1517
11966W        W30170   2.866   1.466   0.926  0.0150 -0.4692 -0.0533
11967W        W30171  10.328   8.777   2.556  0.2366  0.0165 -0.0654
11968W        W30172  15.418   8.841  10.437 -0.2326 -0.0226 -0.3584
11969W        W30173   1.683  18.021  12.898 -0.3697  0.0321  0.1059
11970W        W30174  12.112   0.365   2.584  0.0312  0.2034 -0.0501
11971W        W30175   6.382   6.936   3.568  0.2279 -0.2102  0.1070
11972W        W30176   9.963   9.295  11.481  0.2399 -0.0811 -0.0135
11973W        W30177  15.925   8.463  14.657 -0.2887 -0.0802 -0.1280
11974W        W30178   6.769  16.486  13.498 -0.1607 -0.1096 -0.1620
11975W        W30179  14.496   3.753   3.017  0.2740 -0.4081  0.0422
11976W        W30180  16.365  14.523   0.287  0.2234 -0.2199  0.2641
11977W        W30181   3.609  16.784  11.775  0.1897  0.1427  0.3573
11978W        W30182  13.385   0.036   1.858 -0.0613 -0.1275 -0.1201
11979W        W30183  17.777  13.721  10.310 -0.1852 -0.2137 -0.1430
11980W        W30184  10.469   8.337   4.273 -0.3507 -0.1202  0.1751
11981W        W30185   4.155  12.438   1.723 -0.1303  0.1307  0.1490
11982W        W30186  11.893  15.759  12.769  0.1318 -0.2486 -0.1715
11983W        W30187   2.059   4.961  14.873  0.0712 -0.3778 -0.0953
11984W        W30188   4.487   6.696   4.577  0.0945 -0.0700 -0.1616
11985W        W30189  15.739  18.642  11.377 -0.0701  0.1080 -0.1320
11986W        W30190   9.067  14.684   0.328 -0.2653  0.2053  0.0704
11987W        W30191  15.481   1.757   3.356  0.2609  0.2665 -0.1234
11988W        W30192   2.303   6.385  12.763 -0.0661 -0.0783  0.0774
11989W        W30193   3.035  14.277   2.201 -0.3465  0.1368 -0.4578
11990W        W30194   7.316   1.119   1.451  0.1614 -0.2221 -0.1409
11991W        W30195   1.885   3.180   5.646 -0.1487 -0.0304 -0.1436
11992W        W30196   9.246  17.726  11.911 -0.0857 -0.1965  0.0616
11993W        W30197   5.408   7.796   4.575  0.0319 -0.2540 -0.0795
11994W        W30198   7.818  14.499  12.876 -0.1768 -0.0631 -0.0078
11995W        W30199   2.895  18.535  14.481  0.0428  0.0920  0.0304
11996W        W30200   8.893   6.891  10.737 -0.3375 -0.1559  0.1749
11997W        W30201  13.887   0.933   2.156 -0.0487 -0.2103  0.4412
11998W        W30202   6.204   1.457  12.723 -0.4749 -0.1265  0.1448
11999W        W30203   3.576  16.542   4.419  0.1161 -0.0998 -0.0519
12000W        W30204   5.106  17.070  14.887  0.1196  0.2443 -0.0200
12001W        W30205  12.517   0.626  13.989 -0.0634  0.0173  0.1241
12002W        W30206  11.467  11.629   4.063 -0.0399 -0.1924  0.2030
12003W        W30207  12.581  15.151   1.455  0.0793  0.0447 -0.0853
12004W        W30208   5.423   8.968  14.638 -0.1870 -0.0496 -0.0198
12005W        W30209   1.853   4.755   1.156  0.1735 -0.0167 -0.1673
12006W        W30210   2.007  13.594  11.863 -0.0049 -0.0424  0.2777
12007W        W30211  14.319  11.060   2.306  0.0824  0.3177 -0.0722
12008W        W30212   5.879  17.205  13.736 -0.0770 -0.0442 -0.1430
12009W        W30213  12.036  14.276   0.619  0.0464 -0.0536 -0.0481
12010W        W30214  10.240  14.209   2.478 -0.0302 -0.0470  0.1187
12011W        W30215  17.904   2.804  14.437 -0.0799  0.1565  0.3185
12012W        W30216  15.560  13.495   0.791  0.1318 -0.2966 -0.5162
12013W        W30217  10.347   7.827  11.540  0.1275  0.1402  0.0758
12014W        W30218   6.020   7.288  12.336  0.0493  0.0077  0.3066
12015W        W30219   1.107  17.207  13.048  0.0329  0.1138  0.0819
12016W        W30220  11.289  13.408  14.951 -0.2752  0.0434 -0.0338
12017W        W30221  11.183  11.551   3.481  0.1161 -0.1910 -0.2244
12018W        W30222   7.409   6.131  13.334  0.0710 -0.0614 -0.1060
12019W        W30223   7.247   1.983   4.635 -0.0813 -0.0349  0.1936
12020W        W30224  16.629  17.107  11.480  0.1762 -0.1291 -0.2462
12021W        W30225   3.390   0.962   0.190 -0.1871 -0.5208 -0.3260
12022W        W30226   7.455   3.016  13.328 -0.3486 -0.0549 -0.2998
12023W        W30227  11.016  14.214   1.663 -0.1931 -0.0094  0.0253
12024W        W30228  15.887  12.720  13.349  0.0436 -0.0168 -0.1795
12025W        W30229   2.583  14.028   2.439 -0.2903  0.1241  0.1287
12026W        W30230   5.593   5.680   0.551  0.0577  0.0394 -0.3215
12027W        W30231   0.733  10.732   3.949 -0.1282 -0.2144  0.0918
12028W        W30232  15.472   0.626  11.080 -0.2124 -0.3398  0.2724
12029W        W30233  12.960  16.198  12.112 -0.0266 -0.1066  0.2300
12030W        W30234   6.574   9.078  14.031 -0.2685 -0.2063  0.0468
12031W        W30235  10.302   1.128  14.574  0.0194  0.0263 -0.1181
12032W        W30236   0.245   8.638  13.875  0.0450 -0.2164  0.1004
12033W        W30237  13.574  16.241  13.472  0.0817  0.1832 -0.2574
12034W        W30238  10.470  14.696  11.816 -0.0131 -0.0334  0.0685
12035W        W30239   3.356  11.853  14.429  0.0635  0.1077 -0.1558
12036W        W30240   9.041  17.691   2.448  0.2548  0.1014  0.0570
12037W        W30241   8.909  16.845  14.875  0.1218 -0.1521  0.0687
12038W        W30242  15.627  13.641  11.698 -0.1526 -0.1904  0.1329
12039W        W30243   7.747   3.858   0.078  0.1381 -0.1935  0.3386
12040W        W30244   1.807  13.558  12.448  0.0226 -0.1024 -0.0190
12041W        W30245  17.840   4.538   0.124  0.0266  0.0698 -0.1302
12042W        W30246   6.749   9.915   0.777  0.4573 -0.0008 -0.2872
12043W        W30247   8.577   9.521   3.905  0.1623 -0.2266 -0.0368
12044W        W30248   5.164   5.046  11.685  0.0853 -0.1432 -0.1457
12045W        W30249   5.873  11.264   4.213  0.1802  0.3796  0.2362
12046W        W30250   2.151  12.578   3.880  0.0554  0.1976  0.2135
12047W        W30251  12.668  18.811   1.465 -0.1804  0.0441 -0.0401
12048W        W30252   4.688   6.992  11.645  0.0164 -0.2433  0.2245
12049W        W30253  16.433  11.716  11.289 -0.1969 -0.1106 -0.0078
12050W        W30254   1.280  15.074  12.314  0.3061  0.2516 -0.2305
12051W        W30255  17.452  16.524   2.850 -0.0835  0.0816 -0.1224
12052W        W30256  12.569   9.711  12.272  0.1305 -0.4387 -0.0707
12053W        W30257   2.053  18.165   0.894 -0.2281  0.0798  0.0039
12054W        W30258   7.115   6.826   4.108 -0.0214 -0.0423 -0.1594
12055W        W30259  16.091   9.932   2.901 -0.3740 -0.0977 -0.4213
12056W        W30260  15.137  10.032  14.351 -0.2792 -0.0235  0.3644
12057W        W30261  12.430  18.014  11.823 -0.1763  0.5152 -0.0362
12058W        W30262   2.894  12.251  14.510  0.2199 -0.0053  0.0187
12059W        W30263   8.062  16.425   3.702  0.0673  0.0157  0.3215
12060W        W30264  18.183  18.114   0.774 -0.2851 -0.2325 -0.0759
12061W        W30265  17.515   9.003   4.740  0.1213  0.0890 -0.0999
12062W        W30266  18.657   9.669  14.577 -0.0195 -0.0619 -0.1239
12063W        W30267  16.268   9.470   0.244  0.1786 -0.3382  0.4012
12064W        W30268  15.793  11.140  13.365 -0.3110 -0.1504  0.2136
12065W        W30269   2.084   9.932  12.695  0.4169 -0.1145 -0.0448
12066W        W30270  13.893  11.527  11.245  0.2628  0.1510 -0.2799
12067W        W30271  16.405   6.596   3.523  0.1517  0.0235 -0.1391
12068W        W30272   8.648   4.643  14.147 -0.2061  0.0263  0.1990
12069W        W30273   4.350   4.595  12.090  0.0046  0.0667 -0.0313
12070W        W30274   0.862  13.439   3.104 -0.0834 -0.0404 -0.1090
12071W        W30275   8.892   5.739   3.995 -0.0677 -0.3802 -0.0589
12072W        W30276   5.044   3.069  12.473 -0.0263  0.0775 -0.3973
12073W        W30277  16.020  17.172   5.120 -0.1034 -0.0219  0.0268
12074W        W30278  17.086  15.126   2.247  0.1853  0.2080  0.3968
12075W        W30279  16.308   5.405  12.361  0.0830 -0.1387 -0.3442
12076W        W30280   3.277   3.191  11.427 -0.0321  0.1720 -0.5531
12077W        W30281   6.580   9.892  13.929  0.1147 -0.0822  0.0687
12078W        W30282  12.860   6.241  11.292 -0.0987 -0.0709  0.2047
12079W        W30283   1.214  15.067   1.986 -0.0224  0.0209 -0.0613
12080W        W30284  17.161  10.396  10.985 -0.1981  0.2637  0.0163
12081W        W30285   2.989   2.618   1.802 -0.1445  0.2413  0.1895
12082W        W30286   4.380   4.139  14.221 -0.2579 -0.1696 -0.0886
12083W        W30287   7.705  13.980   4.620  0.1059 -0.1503  0.0060
12084W        W30288  12.753   5.141  14.042 -0.0146  0.1850  0.0767
12085W        W30289   6.546  10.469  10.600  0.0128  0.0248 -0.0729
12086W        W30290   5.028   5.897   3.672  0.1539  0.0741  0.0219
12087W        W30291   5.188  18.819  12.798  0.0801  0.0411 -0.2210
12088W        W30292   2.030   5.337   0.671 -0.0345 -0.2961  0.0432
12089W        W30293   0.348   2.682  11.287 -0.0485 -0.1791 -0.1761
12090W        W30294  16.286  12.439   1.663 -0.0770 -0.1658 -0.2071
12091W        W30295   8.440   2.431   3.377 -0.2167  0.0713 -0.0548
12092W        W30296  15.149  13.369  10.848  0.0195  0.0996 -0.0805
12093W        W30297   0.491   4.959   1.090 -0.2002  0.1184 -0.0510
12094W        W30298  12.193  15.244  14.004  0.2435 -0.0426  0.1361
12095W        W30299   8.253   5.946  11.401 -0.1747 -0.2864 -0.0269
12096W        W30300   7.273   2.677   3.671 -0.0145 -0.2226  0.3316
12097W        W30301   5.800  10.885   5.465  0.4349 -0.1164  0.2000
12098W        W30302  17.397   0.414   2.101  0.2835  0.2426  0.0609
12099W        W30303   0.028  12.941   3.726 -0.0888 -0.4510  0.0045
12100W        W30304  13.642   1.509   3.051  0.1721 -0.0013 -0.5490
12101W        W30305   8.905   9.648   4.235 -0.1628  0.1121 -0.1571
12102W        W30306  16.607  15.974   0.265  0.2548 -0.0100 -0.0510
12103W        W30307   8.150   2.789  11.353  0.1390  0.0656  0.1716
12104W        W30308  14.578   4.689   3.290 -0.0140  0.1185  0.0243
12105W        W30309   5.779   6.772   1.921 -0.2013  0.0704  0.2502
12106W        W30310   2.860  15.847   0.184  0.0678  0.2002 -0.4422
12107W        W30311  15.073  10.047   4.097 -0.3169 -0.0890  0.0878
12108W        W30312  11.794  11.484  14.806  0.1662 -0.1136 -0.0503
12109W        W30313   9.617  14.677  12.716  0.2533  0.1420 -0.2193
12110W        W30314  17.924   3.976   0.184  0.2170  0.1750  0.2157
12111W        W30315  17.590   9.472  10.832 -0.1410 -0.0813 -0.2089
12112W        W30316   5.765   4.195   0.241 -0.0249  0.1892 -0.0544
12113W        W30317  15.659   2.693   0.727 -0.3428  0.0723 -0.2341
12114W        W30318  11.578  10.007  11.940 -0.0819  0.2157 -0.0183
12115W        W30319  14.611   7.704  14.257  0.3926 -0.2952  0.1734
12116W        W30320  10.912   2.935  14.400  0.0336 -0.1446  0.2359
12117W        W30321  12.732   4.615   0.913  0.2736  0.0005  0.2592
12118W        W30322   3.281  11.570  10.804  0.1848 -0.1564  0.1796
12119W        W30323   6.729  14.787   0.743  0.0118  0.1799  0.0963
12120W        W30324  10.372  16.336   3.341  0.2118  0.0571 -0.3782
12121W        W30325  10.384   2.489  12.706 -0.2154 -0.2310  0.1487
12122W        W30326  12.363  18.826   0.014 -0.0212  0.2619 -0.0543
12123W        W30327  15.346  10.474  14.203  0.0168  0.1010  0.0530
12124W        W30328  14.349   0.717  12.730 -0.1057 -0.2952 -0.2125
12125W        W30329  18.090   4.727   5.153  0.2710 -0.2612 -0.1682
12126W        W30330   0.457   7.495  11.260  0.0389 -0.2968  0.3585
12127W        W30331  14.870   0.365   4.023 -0.1903 -0.1212  0.0563
12128W        W30332   4.142   9.141   1.710 -0.1757 -0.2809  0.1274
12129W        W30333   3.136  14.366   1.700  0.2926  0.1696 -0.0264
12130W        W30334  14.635   7.275   0.141  0.1679 -0.0098  0.3280
12131W        W30335   3.156   5.199  11.821 -0.0171 -0.0144  0.2306
12132W        W30336  13.972  18.451   9.360  0.1801 -0.4683 -0.1083
12133W        W30337   4.297  11.361  11.603 -0.1659 -0.2657  0.0492
12134W        W30338   0.136  11.456  12.744 -0.0884 -0.1970 -0.0740
12135W        W30339   4.887   4.120   1.181 -0.1467  0.0991 -0.3332
12136W        W30340  16.388  13.984  13.271  0.0030  0.1021 -0.1174
12137W        W30341  14.778   7.145  14.111  0.2755 -0.1226  0.2635
12138W        W30342   0.669   5.513  11.814  0.0974  0.0929  0.1021
12139W        W30343  18.332   9.793  11.941 -0.0431 -0.0210  0.3840
12140W        W30344   6.098   0.772  11.577  0.0582 -0.2366 -0.0477
12141W        W30345  16.733   2.823   0.083 -0.0057 -0.0786 -0.1498
12142W        W30346   4.522  17.852  10.659  0.0809 -0.3615 -0.1068
12143W        W30347   2.768   1.091   4.299 -0.1402  0.2321  0.1463
12144W        W30348   8.300   9.566   3.015 -0.1141 -0.0373 -0.0340
12145W        W30349  14.515   8.122   4.145 -0.3578 -0.0139  0.0880
12146W        W30350   5.959   5.610  14.890  0.0199 -0.1930 -0.0593
12147W        W30351   6.730   2.034  13.524  0.0232 -0.2567  0.3353
12148W        W30352   8.823   8.993  11.559 -0.0692  0.1352 -0.1592
12149W        W30353  10.930   9.201  11.285  0.2164 -0.0307  0.0869
12150W        W30354   5.450   3.995   1.455  0.1022 -0.2018  0.1212
12151W        W30355   4.150   6.023   1.027  0.2493 -0.1242  0.0092
12152W        W30356   9.890   2.359  14.441 -0.0793 -0.1344 -0.1404
12153W        W30357  15.633  11.851   4.487  0.0927 -0.1126  0.1201
12154W        W30358  10.789  10.256  11.565 -0.0434 -0.1302 -0.6259
12155W        W30359  18.025  15.276  11.511  0.3147  0.1267  0.0320
12156W        W30360  14.288   9.324   0.739  0.0410 -0.1026  0.1129
12157W        W30361   9.817   5.120  12.897 -0.0488  0.1072  0.1911
12158W        W30362   7.977   4.349   4.456  0.0444  0.0646 -0.2775
12159W        W30363   5.426  18.925   3.936 -0.2143 -0.2204  0.2518
12160W        W30364   1.156  16.950   0.417 -0.2073  0.2377 -0.1603
12161W        W30365  14.341  13.460  13.692  0.0551 -0.2208  0.1564
12162W        W30366   3.517   6.994  11.236 -0.0768  0.0269 -0.1101
12163W        W30367  13.984   1.799   2.795  0.0103  0.1937  0.4085
12164W        W30368   8.108  13.376  13.879  0.1896 -0.2607 -0.4859
12165W        W30369  10.226  14.044  11.207  0.0061  0.0003  0.2184
12166W        W30370   5.689  11.485   0.103 -0.0525 -0.0928  0.2133
12167W        W30371   7.325   0.402   0.794  0.0250  0.1478 -0.0255
12168W        W30372   8.833  15.241   9.720  0.0698  0.3657  0.1918
12169W        W30373  18.393   9.563  13.413 -0.1403  0.3162 -0.0274
12170W        W30374  15.710   3.556   1.410  0.0119  0.1706  0.2430
12171W        W30375   5.278   9.481  10.902 -0.4830 -0.1094  0.2013
12172W        W30376  17.168  15.783  12.061  0.1200 -0.0377  0.1311
12173W        W30377  18.951  15.788  11.513  0.6419  0.1388 -0.3417
12174W        W30378  12.711  11.268   0.807  0.2117 -0.3778 -0.0380
12175W        W30379   5.989   4.937  14.545  0.0749 -0.1576 -0.2901
12176W        W30380   0.214  10.067  12.870  0.0248  0.0311  0.0457
12177W        W30381   4.708   0.514  13.905 -0.1398 -0.0824 -0.0599
12178W        W30382  10.783   4.122  10.108  0.3234  0.0022 -0.1792
12179W        W30383   8.145  12.981   1.342  0.0772 -0.0346  0.0465
12180W        W30384  18.415   4.382   4.460  0.3501 -0.2461  0.0917
12181W        W30385   5.730   4.956   2.715  0.0705  0.1041 -0.0572
12182W        W30386   7.499  14.336   1.285 -0.0541 -0.0230 -0.3086
12183W        W30387  14.712   7.578  13.265 -0.2884  0.1128 -0.1145
12184W        W30388   0.596  14.981  14.004 -0.1895  0.0563  0.1337
12185W        W30389   6.810  13.852  10.811  0.1688 -0.0186  0.0061
12186W        W30390  11.481  14.044  14.122 -0.0566 -0.2195 -0.0548
12187W        W30391  14.577  15.689   2.824 -0.0408 -0.0273  0.2744
12188W        W30392   4.760  10.259  14.683  0.2828 -0.3491 -0.0752
12189W        W30393   7.347  17.460   3.145  0.2181  0.1514  0.0918
12190W        W30394   4.400  16.422  14.830  0.1719 -0.0484 -0.0008
12191W        W30395  18.257  13.158   9.941 -0.1601 -0.1571 -0.0846
12192W        W30396   1.339   0.804   4.128 -0.0633 -0.2439  0.1809
12193W        W30397   7.639  16.899   2.293  0.1629  0.3461 -0.0724
12194W        W30398  14.354   5.653  13.815 -0.2881  0.1317  0.1688
12195W        W30399   0.098  12.576  10.187  0.0158 -0.2114 -0.0562
12196W        W30400  13.089   6.700   1.443  0.1448 -0.0824 -0.2406
12197W        W30401   1.501  18.598   2.603 -0.2748  0.0397 -0.0085
12198W        W30402  15.312  14.863   2.413 -0.0869  0.1194 -0.1087
12199W        W30403   6.843  13.066   3.872 -0.2037  0.0961  0.4388
12200W        W30404  18.382   6.571   5.053  0.1396  0.0011 -0.3077
12201W        W30405   0.790  11.273  10.689 -0.2947  0.1298 -0.0929
12202W        W30406  15.459  15.380  12.200  0.2034 -0.3824 -0.2463
12203W        W30407   5.682  14.728   2.171 -0.2199  0.0455 -0.2266
12204W        W30408   9.250  10.763   1.369 -0.0131 -0.3073  0.2452
12205W        W30409   8.078   6.066  11.822  0.0414  0.1091 -0.2419
12206W        W30410   2.385   7.540   2.459  0.1922  0.1135 -0.0857
12207W        W30411   5.925  16.360  12.932 -0.0891 -0.1138 -0.2034
12208W        W30412   6.581   6.730  10.453  0.1155  0.2416  0.1071
12209W        W30413  10.969  13.182  13.942  0.0248  0.0689 -0.0875
12210W        W30414   1.784  17.549  11.480  0.1455 -0.0932  0.0927
12211W        W30415  16.457  10.020  13.485  0.1107 -0.1199 -0.1957
12212W        W30416   0.433   6.066   2.799 -0.0572 -0.0076 -0.0633
12213W        W30417   8.214   4.469  13.827 -0.2714  0.4595 -0.2600
12214W        W30418   0.615  16.269   4.777 -0.1653  0.1966  0.2545
12215W        W30419   5.643   8.681  13.767 -0.1118 -0.3018  0.0680
12216W        W30420   4.476  15.337  13.221  0.1184 -0.1791 -0.0884
12217W        W30421   7.458   1.395   1.034  0.2502 -0.5362 -0.0697
12218W        W30422  11.631  14.492  13.929 -0.1199 -0.1798 -0.0031
12219W        W30423   5.355  11.256  13.848 -0.0760 -0.0504  0.0117
12220W        W30424  15.454  12.141  10.779 -0.1707 -0.1372 -0.1257
12221W        W30425  17.940  16.906   2.260  0.0926  0.1602 -0.0190
12222W        W30426   3.658  17.480   4.939 -0.3528 -0.1566  0.1737
12223W        W30427  15.155  13.611   0.505 -0.1116 -0.0645  0.1668
12224W        W30428  16.867   6.764   3.969  0.0022  0.0450  0.0861
12225W        W30429   2.194  17.178   1.893 -0.3258  0.0590  0.1079
12226W        W30430  14.423  17.390  14.014  0.1463 -0.1087  0.0625
12227W        W30431  10.178  17.574   2.513 -0.0591  0.0505 -0.2690
12228W        W30432  12.049   8.216   3.498  0.0233  0.0503 -0.1752
12229W        W30433  18.378  18.507   4.462 -0.0682  0.0570  0.0790
12230W        W30434  12.604  17.251   3.448  0.0529 -0.1682  0.1083
12231W        W30435  12.101  14.860  11.068 -0.2664 -0.0777  0.1227
12232W        W30436   6.536   2.683   2.858  0.2905  0.2152 -0.1469
12233W        W30437   8.777   9.325   3.287 -0.1787  0.1719 -0.1214
12234W        W30438   9.661  11.491  14.356 -0.4558 -0.0106 -0.1311
12235W        W30439   6.386  10.604  13.169 -0.1248 -0.0819 -0.2319
12236W        W30440   3.591   8.897  12.331  0.4045  0.3539 -0.0058
12237W        W30441   8.677   7.851   2.073  0.2235  0.1579  0.5770
12238W        W30442   7.657   5.383  10.826  0.5251 -0.0947 -0.0412
12239W        W30443   5.760  11.202   0.790 -0.1229 -0.0169  0.1388
12240W        W30444   9.259  13.534   2.861 -0.2626 -0.1470  0.0768
12241W        W30445   0.013  16.405  10.214  0.1706  0.0967  0.0358
12242W        W30446   0.372   9.546  11.071  0.0130 -0.2468  0.3584
12243W        W30447  17.992   8.525  12.512  0.2052 -0.2746  0.1210
12244W        W30448   3.206  18.628  14.068  0.0277  0.2026  0.1479
12245W        W30449   1.525   9.030   2.933 -0.3229 -0.4658 -0.0823
12246W        W30450  10.351   9.699   2.118  0.0289  0.1738  0.1907
12247W        W30451  16.392   4.750  14.221  0.1090 -0.0598 -0.2135
12248W        W30452   8.668   2.256   2.995  0.1390  0.2213  0.0279
12249W        W30453  16.953   2.833   2.660  0.0054 -0.2550  0.2028
12250W        W30454   1.635  16.804  13.420 -0.0784 -0.2284  0.0409
12251W        W30455  17.582  15.492  11.547  0.2864  0.1726  0.0015
12252W        W30456  12.032   5.139  12.441  0.2012 -0.2221 -0.0648
12253W        W30457  10.955  17.397  11.570 -0.0918 -0.1612 -0.1485
12254W        W30458  11.654  11.493   0.255 -0.1487 -0.0841 -0.0095
12255W        W30459   6.118   7.091  13.297 -0.3923 -0.0171 -0.0693
12256W        W30460   2.180   8.564   3.913 -0.1352 -0.0404 -0.1000
12257W        W30461   1.399   2.413   1.346  0.0178 -0.1325 -0.0793
12258W        W30462  10.473   6.255   1.494  0.3076 -0.1331 -0.1254
12259W        W30463   1.179   1.045   2.309  0.0937 -0.1311  0.0874
12260W        W30464  11.833   2.415   1.125  0.2053  0.1056  0.0258
12261W        W30465  18.912   1.090   2.265  0.1098  0.1409  0.1780
12262W        W30466  11.242  10.917  10.944  0.1767  0.0144 -0.1352
12263W        W30467   6.500   4.550  13.797 -0.2050 -0.2683 -0.0456
12264W        W30468  11.135  11.270   4.345 -0.1317 -0.3066  0.0834
12265W        W30469  18.176   1.944   9.859  0.1552 -0.0938  0.2781
12266W        W30470   9.724   4.648   2.192  0.1433 -0.3152  0.2445
12267W        W30471   7.973  12.360  14.258  0.0788 -0.0943 -0.1001
12268W        W30472  15.134   6.572   2.968 -0.2486 -0.1645 -0.1232
12269W        W30473  18.890  16.846   2.537 -0.0157  0.2603  0.0341
12270W        W30474  17.923  15.832   1.969  0.2410 -0.0795 -0.0709
12271W        W30475   4.235  17.646   1.603  0.1543  0.0262  0.1765
12272W        W30476   2.081   2.864  12.010  0.1809 -0.4189 -0.2614
12273W        W30477  12.505  13.241  11.354 -0.1223 -0.2970  0.1474
12274W        W30478   0.606  18.159   1.084  0.3668 -0.0266  0.0533
12275W        W30479   2.325  16.643   5.481 -0.0571 -0.0299  0.0379
12276W        W30480  11.918   8.103  10.991  0.0120  0.0321  0.0291
12277W        W30481   3.504   1.891   4.337  0.2236  0.3182 -0.0382
12278W        W30482  10.016   4.053   3.490 -0.1142 -0.3888  0.0664
12279W        W30483   9.593   1.821  13.745 -0.2717  0.2109 -0.0048
12280W        W30484   2.884   2.381  12.581 -0.1226 -0.2604  0.1944
12281W        W30485   9.365  18.318  13.782  0.0817  0.2472 -0.0883
12282W        W30486   4.162   9.648   1.511  0.0686  0.2332  0.4062
12283W        W30487   6.318  17.499  10.153 -0.0062 -0.2849  0.0368
12284W        W30488   0.394   4.862  14.884 -0.1038  0.1188 -0.2351
12285W        W30489   3.721   8.730  11.840 -0.0440 -0.0381  0.0724
12286W        W30490   5.742  11.692  12.460 -0.0290 -0.2653  0.0662
12287W        W30491   7.150   4.875   1.466  0.1168 -0.2566 -0.0468
12288W        W30492   6.207  11.552  13.990 -0.1078 -0.2607 -0.0345
12289W        W30493   2.739   1.647   5.453 -0.0947 -0.0772 -0.1386
12290W        W30494  11.119   3.778   4.626 -0.0257  0.2928 -0.4060
12291W        W30495  11.888   3.115  13.766  0.2754 -0.0132 -0.1016
12292W        W30496  13.160  16.528   0.956  0.4529  0.0181  0.0367
12293W        W30497   3.419  15.818  10.271 -0.0458  0.1784 -0.1044
12294W        W30498  12.580   8.927   0.915 -0.0662 -0.1007  0.0024
12295W        W30499   3.539  16.133  11.692 -0.4188 -0.1821 -0.0448
12296W        W30500   0.036  12.443  12.359 -0.0985  0.1450 -0.2444
12297W        W30501   4.986  10.742  14.439 -0.2958  0.3463 -0.0373
12298W        W30502  18.269   3.544  11.586 -0.1612 -0.0622 -0.2726
12299W        W30503  11.327   5.717   0.143  0.0418 -0.1162 -0.0367
12300W        W30504   3.146  13.715   5.585 -0.0397  0.3207  0.2252
12301W        W30505   7.445  15.633  11.607 -0.1523  0.1280  0.3150
12302W        W30506  11.920   2.702   2.865  0.1824  0.0075 -0.3915
12303W        W30507  11.922   6.431  11.294 -0.2372  0.0340 -0.0751
12304W        W30508  14.004   0.169  14.098 -0.0883  0.1175  0.1177
12305W        W30509   8.953   7.653   0.208 -0.3950 -0.1776 -0.0403
12306W        W30510   4.581   2.522  12.799 -0.3012 -0.0339  0.1246
12307W        W30511   6.957   8.031  12.795  0.3974 -0.3408  0.0128
12308W        W30512   4.565   0.972  14.059 -0.0204  0.0902 -0.1982
12309W        W30513   9.901  10.861   0.065 -0.0872 -0.0724  0.0317
12310W        W30514  13.588  14.329   3.598  0.2583 -0.1898 -0.2840
12311W        W30515  17.807   4.801  11.796  0.1160  0.0149  0.4174
12312W        W30516   6.065   7.017  13.767 -0.2046 -0.1242  0.1619
12313W        W30517   6.106  15.646   1.778  0.1939  0.1170  0.0046
12314W        W30518   1.327   9.253  13.038  0.4204  0.0071  0.2921
12315W        W30519  14.694   8.145   1.402  0.1215  0.0365 -0.2578
12316W        W30520   6.727  13.666  14.233 -0.1406  0.2119 -0.2983
12317W        W30521   8.636  14.541  12.986 -0.1004  0.0343 -0.2637
12318W        W30522  15.936   3.166   2.003 -0.0969  0.1306  0.4618
12319W        W30523   8.238   8.270   3.132 -0.0246  0.2118  0.0813
12320W        W30524   1.196   0.263  13.380 -0.0031 -0.0694  0.1803
12321W        W30525   2.984  16.286   0.925 -0.0522  0.2856  0.2713
12322W        W30526  15.998   4.058   4.199  0.0722  0.0297  0.0282
12323W        W30527  18.670  14.669   2.831 -0.2269 -0.2728 -0.1433
12324W        W30528   6.080   4.316  13.942 -0.1223 -0.1413 -0.0719
12325W        W30529   0.445   4.256   3.047  0.1405  0.3929  0.1632
12326W        W30530  18.896  12.419  13.101  0.0918  0.1448  0.0386
12327W        W30531   8.387  11.886  10.331  0.3802 -0.0877  0.2316
12328W        W30532  17.084   4.972   0.054  0.3926  0.1696  0.0245
12329W        W30533   0.942  14.044  14.202  0.0427  0.0479 -0.1942
12330W        W30534  11.902  18.278  12.592  0.0554  0.0348 -0.0832
12331W        W30535   5.781  12.072   5.158 -0.3924 -0.1353  0.0106
12332W        W30536   8.493   3.702   2.109 -0.0167 -0.6333 -0.2825
12333W        W30537   7.157   7.698   2.036  0.1020 -0.1552 -0.3489
12334W        W30538   4.352   7.652   1.082  0.0723 -0.0508  0.3217
12335W        W30539   1.777   0.353  13.939  0.1370  0.4602 -0.1778
12336W        W30540   2.912  18.884   9.523  0.3615  0.0981 -0.4123
12337W        W30541  10.424  16.714  14.749  0.3371 -0.4957 -0.1951
12338W        W30542  18.318   4.242  13.650 -0.0227 -0.0037 -0.2067
12339W        W30543  17.273  11.075   3.514  0.1886  0.0771 -0.0286
12340W        W30544  10.526   8.333  14.112  0.2787 -0.0038 -0.0063
12341W        W30545  15.429  13.702  10.585  0.0437 -0.3766  0.3154
12342W        W30546  10.857   0.479  11.255 -0.1625  0.1511  0.2611
12343W        W30547   2.213   3.387   1.316 -0.3520  0.0474 -0.3919
12344W        W30548   3.637  13.178   0.117 -0.1734 -0.1818  0.2656
12345W        W30549  14.931  15.128   0.761  0.1972 -0.0304  0.2098
12346W        W30550  15.672  12.305  14.148 -0.4360  0.1034  0.1224
12347W        W30551   9.542   4.907   0.633  0.0229  0.1155 -0.2518
12348W        W30552  11.966  17.906   1.443  0.3415  0.0115 -0.1704
12349W        W30553   9.007   6.436  10.963  0.1203 -0.0725  0.0003
12350W        W30554   0.096  14.493   0.669  0.0101 -0.1063  0.0610
12351W        W30555   7.262   8.828  11.520 -0.0244 -0.1471 -0.0271
12352W        W30556  18.209  11.159  12.766  0.1372 -0.0847 -0.2055
12353W        W30557   8.533   6.214  14.762 -0.0392  0.0432 -0.2378
12354W        W30558  15.514  18.466   2.792  0.0384 -0.0376 -0.0667
12355W        W30559  18.717   6.383  12.116 -0.3335 -0.2307 -0.1128
12356W        W30560  10.485  17.659  10.818  0.1994  0.0348  0.2134
12357W        W30561   9.447  17.127   2.104  0.1606  0.7185 -0.0174
12358W        W30562  15.852   3.109   0.675  0.1026 -0.1555  0.0304
12359W        W30563  10.867  13.177  11.941 -0.1067 -0.2101 -0.0119
12360W        W30564  18.720  14.121   0.819 -0.1274  0.1948 -0.0567
12361W        W30565   8.970   4.088  10.693  0.3631 -0.1855 -0.0551
12362W        W30566   1.935  10.002  13.265 -0.2869 -0.1882 -0.2311
12363W        W30567  13.216   1.258   0.070  0.0346  0.2906 -0.0778
12364W        W30568   6.549   0.707   0.973 -0.1921  0.2525 -0.0965
12365W        W30569   6.682  12.047   2.405 -0.2594 -0.0286  0.0115
12366W        W30570   5.025  13.305   2.215  0.0303  0.0342 -0.1116
12367W        W30571  18.514  14.742   0.511  0.0865  0.6106 -0.1661
12368W        W30572  15.955  14.031   1.392  0.1793 -0.2386  0.1227
12369W        W30573   2.672   7.220  11.242  0.1616 -0.0045 -0.1486
12370W        W30574  18.601  16.791  14.769  0.1637 -0.0125 -0.1528
12371W        W30575  15.078  17.877  14.222  0.2915  0.0884  0.1054
12372W        W30576  12.363   1.281  11.900  0.1446 -0.1552  0.0804
12373W        W30577  18.543  14.195   2.723 -0.0240  0.0069 -0.2624
12374W        W30578   6.759  12.320   1.909 -0.0560  0.0541 -0.1111
12375W        W30579  17.608  17.043  13.271 -0.0213 -0.2510 -0.1525
12376W        W30580   8.943   4.284   0.902 -0.4151  0.1004 -0.0904
12377W        W30581  14.133  11.198  13.886 -0.1793  0.2071 -0.0310
12378W        W30582   1.897   1.775  12.151  0.1198  0.0773 -0.0413
12379W        W30583   6.690  10.132   1.275 -0.1175  0.1052  0.0373
12380W        W30584  17.662   2.047  11.567 -0.2435  0.2163 -0.0067
12381W        W30585   4.554   6.246   4.693 -0.0662  0.1494  0.2579
12382W        W30586  15.720   4.696  10.874  0.2019  0.1689  0.4241
12383W        W30587  15.329   0.639   1.990  0.1807 -0.3080 -0.1369
12384W        W30588   4.229  18.040   3.094 -0.2299  0.4109  0.1261
12385W        W30589   8.391   0.483  14.895 -0.1819 -0.0527  0.0061
12386W        W30590  11.590   8.052   3.376 -0.2908 -0.0307  0.3164
12387W        W30591   0.916   4.648   1.475  0.1924  0.0407 -0.1821
12388W        W30592  15.307   9.617  13.738 -0.2015  0.0849  0.3085
12389W        W30593  14.740  14.822  14.001  0.0009  0.0986  0.2964
12390W        W30594  13.837   5.470   4.222  0.1047 -0.1820 -0.4342
12391W        W30595   1.581   0.406  14.453 -0.1052 -0.1368  0.1100
12392W        W30596   8.337   6.514  14.303  0.1357  0.1473  0.0399
12393W        W30597   5.304   2.938   4.451 -0.0203 -0.1601  0.0672
12394W        W30598  18.879   6.132  13.573 -0.0409  0.0760  0.2826
12395W        W30599  13.326  15.444  11.628 -0.0516  0.1478 -0.2112
12396W        W30600   0.457  13.786  11.185  0.1257 -0.2003 -0.1019
12397W        W30601   7.822   5.684  14.205 -0.2490 -0.0603 -0.1194
12398W        W30602   3.528   5.739   1.635 -0.1099 -0.1249 -0.2318
12399W        W30603   5.601  17.911  11.748 -0.0210 -0.1975  0.0621
12400W        W30604   4.662  10.525   1.778 -0.0543  0.0661 -0.0819
12401W        W30605  13.271  16.185  12.557 -0.1146  0.0745  0.0765
12402W        W30606  15.783  18.210  12.630  0.1879 -0.3788 -0.2272
12403W        W30607  18.671  17.458   0.166 -0.4202 -0.0448 -0.1445
12404W        W30608   0.928   9.505   1.859 -0.1395  0.3731 -0.1005
12405W        W30609  13.221   3.881   1.221 -0.1587  0.0477  0.0343
12406W        W30610  12.736   7.953  11.709 -0.3269  0.0074  0.1191
12407W        W30611  13.168   7.013  13.823 -0.2082  0.5096  0.1428
12408W        W30612  12.852   5.336   3.383 -0.4430  0.3175  0.1542
12409W        W30613   4.664  12.344   2.349  0.3092 -0.3313  0.2380
12410W        W30614  18.837   7.596  14.615 -0.0828  0.0698 -0.1825
12411W        W30615  14.814   9.453   2.629  0.0786  0.0626  0.1836
12412W        W30616   8.225   2.093   2.721 -0.0526  0.0475  0.2973
12413W        W30617  13.395   7.525   3.538  0.0899 -0.0236  0.0320
12414W        W30618   8.495   3.930   0.152 -0.0743 -0.0384  0.2363
12415W        W30619   1.703  16.177   1.475 -0.4280 -0.1155  0.0029
12416W        W30620   1.461  12.765  12.708  0.2830  0.1687 -0.2186
12417W        W30621   7.941   9.929   2.163  0.1430  0.1400 -0.0548
12418W        W30622   9.203   7.264   4.110  0.0261 -0.0701 -0.3481
12419W        W30623  14.056  15.109  11.973  0.1237 -0.1260 -0.0812
12420W        W30624   8.035  12.568   0.687  0.0162 -0.1729  0.1241
12421W        W30625   4.032   6.118   1.722 -0.0821  0.0154  0.1814
12422W        W30626   9.944  15.426  10.591  0.3313 -0.0930 -0.2740
12423W        W30627  12.486   3.526  12.134 -0.3931  0.1266  0.1817
12424W        W30628   4.009   8.854   2.936  0.3104 -0.1205  0.4703
12425W        W30629   5.658  10.798   2.166  0.0249  0.2308  0.0475
12426W        W30630  14.491   2.889   2.454 -0.3138 -0.2290 -0.1902
12427W        W30631   8.505   5.601  11.182  0.1289  0.1991  0.1029
12428W        W30632   4.119  16.158  14.461 -0.1507 -0.0119 -0.0641
12429W        W30633   8.735  13.450  13.869  0.0249 -0.3720  0.2726
12430W        W30634   4.557  13.608   0.577  0.0238 -0.2913 -0.4669
12431W        W30635   0.968  14.683   9.861  0.2704  0.0171 -0.1583
12432W        W30636   4.045  18.802   4.214  0.2628  0.1043 -0.0353
12433W        W30637   6.772   7.113  11.272  0.1430 -0.2777  0.2311
12434W        W30638   2.088   8.900   4.865 -0.2687 -0.0846  0.0351
12435W        W30639   9.729   3.524  12.319  0.1252  0.1258  0.3583
12436W        W30640   0.733   6.769   4.335  0.4073  0.2979 -0.1952
12437W        W30641   1.410  14.294  11.943 -0.3070 -0.2037 -0.0996
12438W        W30642  15.541  12.152  12.122  0.4580 -0.1228  0.2700
12439W        W30643   9.812   8.157   1.400 -0.0811 -0.0995 -0.2642
12440W        W30644  12.215  12.320   3.950 -0.1215 -0.2174 -0.0241
12441W        W30645  18.725   4.361   2.761 -0.2912  0.1630 -0.0154
12442W        W30646   2.365  14.400  12.749 -0.1194 -0.0249  0.0259
12443W        W30647  11.064   7.655   3.859 -0.1044 -0.2790 -0.0351
12444W        W30648   4.784   2.721  11.080  0.3923 -0.0786  0.2473
12445W        W30649   9.608   8.869  14.869  0.0401  0.1051  0.0440
12446W        W30650  15.154   5.755  10.259 -0.0991 -0.1054  0.1042
12447W        W30651   5.248  10.694   2.964  0.0099 -0.0121 -0.0223
12448W        W30652  13.786   3.285   0.596 -0.1943 -0.0506 -0.2201
12449W        W30653  18.639   3.859   1.318  0.0377  0.0842 -0.1078
12450W        W30654   4.344  11.266   2.791  0.3440  0.0935 -0.0258
12451W        W30655  15.804   6.573   4.346 -0.2852 -0.2496  0.1496
12452W        W30656   7.509  15.203  13.803 -0.0378  0.0760  0.0429
12453W        W30657   8.103  15.178  11.092  0.2247 -0.1050 -0.0187
12454W        W30658   6.379  18.116  11.471  0.0278  0.2123 -0.3079
12455W        W30659   4.026   7.633  14.743 -0.1787 -0.1930 -0.2028
12456W        W30660   4.047  12.781  11.382 -0.2811  0.2096  0.3145
12457W        W30661   8.479   6.789  12.448  0.3060  0.1386 -0.3183
12458W        W30662  10.077   4.153  14.585 -0.1390  0.0789 -0.0552
12459W        W30663   7.756  14.819   4.021  0.1044  0.0301 -0.0623
12460W        W30664  14.626   0.246   1.005 -0.0552 -0.1219 -0.1704
12461W        W30665   3.397  18.531   3.932 -0.1519  0.0287  0.0343
12462W        W30666   0.914  10.199   0.318 -0.3008 -0.2506  0.1237
12463W        W30667  16.661   4.740  13.817  0.3066  0.0177 -0.1632
12464W        W30668   9.227   1.072   2.976 -0.1898 -0.4167 -0.2132
12465W        W30669   0.393   4.570  13.874 -0.1270 -0.0346 -0.0832
12466W        W30670  11.641  14.797  11.329  0.0526 -0.1422 -0.2284
12467W        W30671  13.464  17.417  11.913  0.0810  0.0123 -0.0265
12468W        W30672   5.724  17.048   1.357  0.4512 -0.1904 -0.2800
12469W        W30673  16.870   1.164   1.991 -0.2248  0.2162  0.0412
12470W        W30674  15.219  11.507   1.287 -0.1919 -0.0868  0.1132
12471W        W30675   4.652   5.378  14.247  0.4069  0.1662  0.0737
12472W        W30676   4.248   4.883  13.612  0.0576 -0.0978  0.1762
12473W        W30677   9.653   2.702  10.349 -0.0862 -0.2356  0.0201
12474W        W30678   6.431   8.627  11.223  0.1397  0.3009 -0.0434
12475W        W30679  18.082   9.331  11.738 -0.1833 -0.1063 -0.1149
12476W        W30680  16.553  11.315   0.124  0.3330  0.1109 -0.0599
12477W        W30681   3.844   9.959   4.349  0.2627 -0.1270  0.4683
12478W        W30682  18.564  10.607   4.965  0.0499 -0.1779  0.0758
12479W        W30683   3.218  10.938  12.225 -0.1530  0.2213  0.0383
12480W        W30684  13.411  16.411  10.220 -0.1174  0.1936  0.0946
12481W        W30685   4.482  16.019  12.372 -0.1439 -0.1672 -0.2942
12482W        W30686   8.265  11.952   4.900  0.1354  0.3841  0.0813
12483W        W30687  15.252  10.004  12.549  0.1923  0.1393 -0.0662
12484W        W30688   9.347  12.426  14.286 -0.5597 -0.5406  0.1163
12485W        W30689   0.734   5.747   1.600 -0.0275  0.2887  0.1432
12486W        W30690   3.775  14.435   3.398  0.0272  0.1466  0.2098
12487W        W30691  13.411  14.898   2.694 -0.0471 -0.0305 -0.0005
12488W        W30692  12.584   1.478   2.243  0.0500 -0.0445 -0.0603
12489W        W30693  14.825  17.874   0.924 -0.1432 -0.0973 -0.4597
12490W        W30694  14.413  11.244   1.706 -0.2580  0.2869 -0.0412
12491W        W30695   1.241   6.506  14.019  0.0285 -0.1885 -0.1021
12492W        W30696  11.130  14.644  11.098  0.1411 -0.1173  0.0350
12493W        W30697  13.176   9.297  12.843 -0.0582  0.1446 -0.0709
12494W        W30698  12.652   7.321  13.902 -0.0705  0.1178 -0.0595
12495W        W30699  16.284  14.367  10.679  0.2353  0.2193  0.0900
12496W        W30700  14.050   7.119  13.919  0.1028  0.1572 -0.0529
12497W        W30701  18.073  16.737  14.787  0.3543 -0.0234  0.1214
12498W        W30702  18.120  12.640  12.517  0.2373  0.1409  0.2875
12499W        W30703   2.220  15.307  11.769 -0.1131 -0.0868  0.3008
12500W        W30704   5.862  15.350   9.777  0.1789  0.1271  0.0028
12501W        W30705   3.979   5.905  13.658  0.2293 -0.1321 -0.0896
12502W        W30706  14.805   0.470   1.845 -0.1660  0.8469 -0.0777
12503W        W30707  11.002   0.340   4.400  0.0897  0.2248 -0.0619
12504W        W30708   7.761   3.276  14.666 -0.0842 -0.0263 -0.0626
12505W        W30709  10.943   1.615  14.914 -0.1411  0.0916  0.0652
12506W        W30710  10.167   5.341   4.058 -0.0133  0.3928 -0.1072
12507W        W30711   8.302   3.200   3.653 -0.1787  0.0678  0.2143
12508W        W30712   6.328  16.274   5.492 -0.1611  0.1502 -0.1614
12509W        W30713  17.796   5.449  14.250  0.0825  0.2336 -0.0870
12510W        W30714   9.432   7.507   2.163 -0.4453 -0.0410  0.0474
12511W        W30715   9.864   8.372   0.039  0.2091 -0.1690 -0.1425
12512W        W30716  18.064   5.992   1.041  0.1127 -0.1761  0.0716
12513W        W30717   9.456  17.519   0.547  0.0834  0.1078 -0.0013
12514W        W30718   1.907   1.076   0.168  0.1943  0.1040 -0.0370
12515W        W30719   3.753   6.237   2.367 -0.0126  0.0838  0.0589
12516W        W30720   9.303  16.258  13.079 -0.1246 -0.0004 -0.1617
12517W        W30721   2.681   4.785   1.508  0.2484  0.0593 -0.0760
12518W        W30722   0.154   2.840  14.758 -0.0135  0.1237 -0.0690
12519W        W30723  16.319   5.745  11.976 -0.1137 -0.2097  0.1568
12520W        W30724   9.768   2.065   0.867  0.0111  0.0506  0.0547
12521W        W30725  16.817  18.208   2.495  0.1917 -0.2152 -0.0444
12522W        W30726  10.833   0.429  11.821  0.1219 -0.1493  0.1403
12523W        W30727   6.612  12.464  13.164 -0.1998 -0.1189 -0.1387
12524W        W30728   1.920   9.530   4.069 -0.2134  0.2307  0.1268
12525W        W30729  13.221   1.377  12.153  0.1398 -0.0712  0.1122
12526W        W30730  18.063   9.021  12.771  0.0486  0.0949 -0.2129
12527W        W30731   6.988  14.420  12.713 -0.1249  0.0285 -0.1549
12528W        W30732  12.404   9.260   0.507 -0.1049  0.1041 -0.1219
12529W        W30733  16.225  12.748   4.293 -0.1418 -0.0146  0.0149
12530W        W30734  16.434   3.448  12.665  0.0991  0.1045 -0.1351
12531W        W30735   4.905   4.731  10.369 -0.2173  0.3090  0.1851
12532W        W30736   8.899   1.032   4.180  0.2514 -0.4009 -0.2819
12533W        W30737   2.089   8.767   0.086  0.1498  0.0705 -0.1051
12534W        W30738   0.919   7.471  14.761 -0.1666  0.0444  0.3466
12535W        W30739  18.488   7.533   9.738  0.0790 -0.3264  0.0239
12536W        W30740  12.671  17.899  12.594  0.0616  0.1628 -0.0433
12537W        W30741  14.161  11.395  11.657 -0.1988  0.2129  0.1782
12538W        W30742  11.154   6.180  12.760  0.0811 -0.1052  0.1779
12539W        W30743   7.850   1.821  13.394  0.0157  0.0807 -0.0801
12540W        W30744  11.074   0.612   3.540  0.0372  0.0250  0.0528
12541W        W30745  14.656   5.334  10.851 -0.2596 -0.1274 -0.1396
12542W        W30746  13.733  12.677  12.916  0.0729 -0.1091 -0.2618
12543W        W30747  17.719  15.793  14.756 -0.4354 -0.1069 -0.3833
12544W        W30748  16.441   2.991  14.243  0.1023 -0.1009 -0.1676
12545W        W30749  11.787  12.345   0.796  0.2329  0.0475 -0.0805
12546W        W30750  13.601   0.174   0.609 -0.1606  0.1231  0.0467
12547W        W30751  15.076   7.768  12.905 -0.1429 -0.0058 -0.0356
12548W        W30752   0.130   1.006   3.331 -0.2502 -0.2474 -0.1912
12549W        W30753   6.316   4.103  12.939  0.3042  0.0052 -0.1143
12550W        W30754   4.710   3.041  11.450  0.1760  0.3344  0.0062
12551W        W30755  12.641   4.969  10.681  0.1046  0.2081 -0.0916
12552W        W30756  12.237  17.006  14.958  0.1125 -0.2973  0.1583
12553W        W30757   7.807   4.105   2.948  0.1252  0.1683  0.1512
12554W        W30758  11.472  16.531  14.600 -0.2309  0.2145  0.0735
12555W        W30759   9.097   6.383  12.835 -0.2314 -0.1187 -0.2473
12556W        W30760  15.780   0.809   2.272  0.0561 -0.0168  0.0723
12557W        W30761   6.389   5.760   3.754 -0.2267  0.0872  0.0020
12558W        W30762   2.349  13.429   4.064  0.1332 -0.2528  0.1524
12559W        W30763  15.664  13.641  13.662  0.0458 -0.0260  0.1452
12560W        W30764  13.148  15.291  14.201 -0.0282 -0.1650 -0.0344
12561W        W30765  18.755   3.004  13.388 -0.2085 -0.1218 -0.1600
12562W        W30766   0.801  15.024  11.738  0.0011 -0.1860  0.0225
12563W        W30767   5.158  13.061   0.096  0.0294 -0.0679  0.0480
12564W        W30768   9.234   6.917   1.170  0.2514 -0.0374 -0.1392
12565W        W30769  15.773   6.035   1.902 -0.0000 -0.0044  0.1456
12566W        W30770  15.983   6.940  12.499 -0.3613  0.0104  0.0064
12567W        W30771   8.896  11.220   1.060 -0.0362  0.5470  0.1503
12568W        W30772  16.274  18.206   0.609 -0.0714 -0.1392  0.0080
12569W        W30773   6.618  17.315  14.063 -0.1619 -0.0675 -0.0052
12570W        W30774  15.958   4.686  14.565 -0.1639  0.2221  0.0770
12571W        W30775  16.769   3.438  11.024  0.2040  0.0058  0.0795
12572W        W30776   6.509   8.881   1.707  0.4142  0.2625 -0.1546
12573W        W30777   8.250  12.295   3.954  0.1665 -0.4341 -0.1555
12574W        W30778   2.591  15.980   0.564  0.0530  0.1040  0.1374
12575W        W30779   7.573   0.453  10.804 -0.1592  0.0504  0.3718
12576W        W30780  17.506   4.112   3.279  0.0735 -0.0376 -0.2665
12577W        W30781   5.596   6.480   4.537 -0.3526  0.1849  0.0031
12578W        W30782  10.018  10.739  13.701 -0.1944  0.3867 -0.0886
12579W        W30783   4.437  10.894   5.524  0.4677 -0.2279  0.0814
12580W        W30784   2.469   8.475   2.127 -0.1908 -0.0453  0.1228
12581W        W30785  11.424  14.904  14.691 -0.0591 -0.1029  0.1700
12582W        W30786   1.482   3.328   3.770  0.0589 -0.2143 -0.0252
12583W        W30787   4.085   5.859  12.739 -0.2133  0.2192 -0.0647
12584W        W30788   4.948   9.590  12.742 -0.0493 -0.2921 -0.0723
12585W        W30789  17.586  16.780   1.598  0.3521 -0.1532 -0.0294
12586W        W30790   4.572   0.148   1.823  0.0304 -0.1281  0.0510
12587W        W30791   8.254   1.963  13.119 -0.0900  0.0479  0.1326
12588W        W30792  14.621   5.408   2.462 -0.0208 -0.0943  0.0433
12589W        W30793  12.495  12.174  10.937  0.3519  0.0805 -0.0802
12590W        W30794   8.445   9.748  14.748  0.0452  0.1275 -0.0886
12591W        W30795   4.494   6.176  13.665 -0.0865 -0.1245 -0.2845
12592W        W30796   9.061   4.342  14.571 -0.2766  0.2145  0.0691
12593W        W30797  12.467  14.425  12.917  0.3232  0.1619  0.0919
12594W        W30798   3.771   0.792   4.322 -0.1273 -0.1537 -0.1483
12595W        W30799   1.438   7.490   3.234  0.0678 -0.0370 -0.0462
12596W        W30800   4.307  11.739  13.646  0.0968  0.1439 -0.0379
12597W        W30801   2.673  13.752  13.512  0.1537  0.2287  0.3431
12598W        W30802  13.091  12.847   1.113  0.0600 -0.0633  0.2701
12599W        W30803  17.809   2.630  13.226 -0.2542 -0.1440 -0.3139
12600W        W30804   2.255  14.188   3.077 -0.0029  0.0459 -0.1895
12601W        W30805   3.520   0.572  12.487 -0.3527  0.2073 -0.1640
12602W        W30806   0.561   7.206   1.427 -0.1392 -0.0412  0.0235
12603W        W30807   1.875  16.981  14.258  0.0921 -0.0802 -0.2478
12604W        W30808   9.348   2.985   0.382  0.1373 -0.2300  0.0255
12605W        W30809   3.586  16.200   3.685 -0.2170  0.0636 -0.0690
12606W        W30810   8.517  17.638   2.607 -0.0680 -0.1495  0.0516
12607W        W30811  12.179   7.528  13.743 -0.3014 -0.0323 -0.2041
12608W        W30812  16.864   2.685  12.652  0.3835  0.1543 -0.0139
12609W        W30813   5.610   5.103  11.439  0.0692  0.2591 -0.2747
12610W        W30814  12.541  11.700  14.993  0.0431  0.1717  0.0948
12611W        W30815  11.832   8.829   2.246 -0.2763 -0.3166 -0.2459
12612W        W30816  12.906  15.793  11.767  0.1641  0.1588  0.0796
12613W        W30817  17.604  16.098  10.219  0.0907  0.3530 -0.2205
12614W        W30818  16.742   3.824   3.847  0.1810 -0.3796  0.2136
12615W        W30819  10.412   7.982  12.319 -0.2046  0.2348 -0.1321
12616W        W30820  11.310  17.928  12.620 -0.0766  0.2567 -0.4408
12617W        W30821  15.717   4.397  11.986 -0.0200 -0.2658 -0.2161
12618W        W30822  10.709  16.309   1.422  0.0111  0.1836  0.1291
12619W        W30823   0.257   8.893   1.329  0.0607  0.1401  0.1491
12620W        W30824  16.724  17.876  14.563 -0.0593 -0.2737 -0.1966
12621W        W30825   6.299   0.271   3.045  0.1159  0.0172 -0.0063
12622W        W30826   1.680  13.765  11.135 -0.0302  0.0962 -0.1488
12623W        W30827   2.288  16.811   2.609 -0.2670  0.0960 -0.0099
12624W        W30828  11.939  17.186  14.207  0.0220 -0.1557  0.1590
12625W        W30829   7.427  18.464   4.174  0.0939 -0.1265 -0.1704
12626W        W30830   4.802   2.321   1.593 -0.1488 -0.1991 -0.1347
12627W        W30831  13.978   3.432  12.798 -0.1729  0.0361 -0.0958
12628W        W30832   8.836  18.021  12.852  0.1333 -0.1807 -0.1628
12629W        W30833   9.031  18.643   1.392  0.1202  0.2277 -0.1151
12630W        W30834  13.838  12.377   4.395 -0.0843 -0.1386 -0.0333
12631W        W30835   0.267   3.549   4.084 -0.0690  0.2962 -0.1360
12632W        W30836   0.692  14.527  11.634  0.1401 -0.0153  0.2356
12633W        W30837   8.500   7.940  14.450 -0.3534  0.0324 -0.0229
12634W        W30838  18.507   4.854   2.971 -0.2215 -0.0927 -0.1327
12635W        W30839  10.672   8.794   1.049  0.2233  0.0068 -0.0004
12636W        W30840   0.151  16.095  11.026 -0.0840 -0.0922  0.0072
12637W        W30841   1.170  13.749  14.589  0.2347  0.0204 -0.1590
12638W        W30842  12.877   7.120   0.551 -0.1723  0.0331 -0.0542
12639W        W30843  10.767   5.752  14.834 -0.2811 -0.0206  0.0599
12640W        W30844  14.476  18.217   0.980 -0.3540  0.0624 -0.0388
12641W        W30845   7.400   0.364   1.964 -0.1552 -0.0442  0.1165
12642W        W30846   5.188   7.163  11.549 -0.2613  0.2900 -0.2873
12643W        W30847   8.170  15.399   0.340  0.1600  0.3057  0.3682
12644W        W30848  17.196   9.720   2.833 -0.3261  0.0518  0.1037
12645W        W30849   3.266   3.877   2.966  0.2487 -0.1739  0.3436
12646W        W30850   5.749  17.921   1.183 -0.0023 -0.5877 -0.1985
12647W        W30851   7.600   5.674  13.019 -0.3655 -0.1882  0.1062
12648W        W30852   2.820  15.767   1.630  0.1439 -0.0216 -0.1648
12649W        W30853   7.673  18.385   0.008  0.3566 -0.0437  0.1421
12650W        W30854  11.787   9.958  10.618 -0.2397  0.0335  0.1021
12651W        W30855  18.445   4.370  14.139  0.0430  0.2229  0.1785
12652W        W30856   3.195  11.031   3.123  0.0500 -0.1955  0.0040
12653W        W30857   1.782  10.252   9.486  0.0845 -0.3031 -0.0185
12654W        W30858   9.926   1.034  11.261 -0.1909  0.0740  0.2442
12655W        W30859  17.368   6.690   2.103 -0.0361 -0.2712  0.0190
12656W        W30860   8.127   2.966  13.958 -0.1203 -0.3078 -0.2328
12657W        W30861   7.349  15.423   4.567  0.1503 -0.0329 -0.0050
12658W        W30862   8.195   7.559  14.728  0.4511 -0.0698  0.1673
12659W        W30863   1.588  11.642   4.055  0.0312 -0.0939 -0.0041
12660W        W30864  17.729  11.195  13.691 -0.4969  0.0819  0.0541
12661W        W30865   4.227   3.963  13.246  0.1927 -0.2352 -0.1021
12662W        W30866   8.488   0.860   4.494  0.0129  0.1164  0.2812
12663W        W30867  10.312  12.785   0.775  0.0813 -0.0751  0.3317
12664W        W30868  18.146  14.460   0.710 -0.2672 -0.0983  0.1353
12665W        W30869  17.452  18.794   2.805 -0.3636  0.1122  0.0749
12666W        W30870   8.335  18.116  14.645  0.2914 -0.1060  0.2661
12667W        W30871  18.532  10.210   4.054  0.4396 -0.3608  0.1945
12668W        W30872  15.553  14.511  14.685  0.0546 -0.0017 -0.1261
12669W        W30873  17.135   9.122  14.484  0.2947  0.0613 -0.1792
12670W        W30874   3.478   0.606   2.171  0.0759  0.1984  0.0820
12671W        W30875   9.762  12.529  12.415  0.1756 -0.0262 -0.0355
12672W        W30876   6.153  11.785   1.062  0.0979 -0.3399  0.0224
12673W        W30877  13.519   5.221  14.240  0.2243  0.1324  0.0456
12674W        W30878   1.581  16.371   3.673  0.0101  0.3675 -0.2020
12675W        W30879   5.359  17.865   1.518  0.1731 -0.0879  0.0678
12676W        W30880  11.929   6.772  11.627 -0.0608 -0.2253  0.0279
12677W        W30881  18.506   0.370   1.589  0.2385 -0.1341 -0.1771
12678W        W30882   4.447  13.079   4.145  0.1938 -0.0625 -0.2162
12679W        W30883   8.696  18.560  13.506  0.1606  0.0248 -0.1954
12680W        W30884   7.063   1.743  11.763 -0.0374 -0.0614 -0.0069
12681W        W30885  13.715   0.844  13.162  0.0222  0.0937 -0.0495
12682W        W30886   3.518   2.376   0.305  0.3990  0.0290 -0.0858
12683W        W30887  14.224  14.163   0.222 -0.0744 -0.2237  0.1860
12684W        W30888  10.238  15.077  13.569 -0.1321  0.0576  0.0356
12685W        W30889  18.404   8.952  11.564  0.0591 -0.1675  0.1172
12686W        W30890   7.310  10.361  11.672 -0.2007 -0.0888  0.0552
12687W        W30891   6.074  17.711   4.361  0.0299  0.2330 -0.3856
12688W        W30892  15.274  11.566  10.841 -0.1108  0.0231  0.0947
12689W        W30893   9.988   3.378  11.318 -0.2102 -0.0619  0.3974
12690W        W30894   3.611  16.366  13.113  0.1261  0.3050  0.0917
12691W        W30895  18.294  16.065  12.289  0.0869 -0.1998 -0.2782
12692W        W30896  16.194   8.838  13.310  0.3053  0.0026  0.1171
12693W        W30897  14.696  11.219   3.012 -0.0234 -0.0458  0.0189
12694W        W30898   0.621   4.887  13.502 -0.0583  0.1087  0.4382
12695W        W30899   1.809  10.647   2.571 -0.1810  0.1001 -0.3327
12696W        W30900   7.415  13.748  14.554  0.0144  0.2914 -0.1992
12697W        W30901  17.223   0.619  10.904 -0.1714 -0.0000  0.1967
12698W        W30902  10.932   6.184  10.527 -0.1243  0.1274  0.2673
12699W        W30903   9.767   5.639  10.365  0.0651 -0.1954 -0.2596
12700W        W30904   3.587   5.798   3.405 -0.1323  0.3288 -0.3719
12701W        W30905   5.780  12.645  12.877 -0.1065  0.1700  0.1476
12702W        W30906  17.692   1.649   2.959  0.1325  0.2119  0.0130
12703W        W30907   1.281  12.045  10.440 -0.1521  0.0441 -0.0435
12704W        W30908   0.968  16.555   5.414 -0.1146 -0.0145 -0.2682
12705W        W30909   5.231  14.290  11.396  0.3304  0.2340  0.0540
12706W        W30910   4.502   6.719  14.786  0.1435  0.0146 -0.0332
12707W        W30911   2.696   0.444   1.423  0.2634  0.1664 -0.2612
12708W        W30912   9.595  13.459   4.716  0.1728  0.1514  0.2307
12709W        W30913  10.051   6.176   3.401  0.2589  0.2101 -0.0025
12710W        W30914  17.716   3.488  12.613 -0.0532  0.1225  0.0229
12711W        W30915  14.669  17.683  14.405 -0.0741  0.1334  0.0579
12712W        W30916  17.906   2.102  13.148  0.2780 -0.0644  0.1312
12713W        W30917   3.881  10.243   1.714  0.3145 -0.1162  0.1440
12714W        W30918  15.139  12.913  13.714  0.1664 -0.5224 -0.2991
12715W        W30919   7.619  17.516  11.337 -0.1560 -0.0032 -0.2325
12716W        W30920   6.512  15.707  13.184 -0.0411 -0.1795 -0.1540
12717W        W30921  13.815  12.702  13.515 -0.1663  0.2705 -0.0355
12718W        W30922   1.561  12.953  14.285 -0.0388  0.2531 -0.1648
12719W        W30923   0.987  14.859   3.030 -0.3241  0.0807 -0.0824
12720W        W30924  10.139   5.574   0.691 -0.0633 -0.2412  0.2156
12721W        W30925   7.697   0.169  12.194  0.2281 -0.1304 -0.2252
12722W        W30926  17.853  12.543   3.297  0.1409 -0.2577 -0.1081
12723W        W30927  18.318   8.500   0.573  0.1040 -0.1073 -0.0087
12724W        W30928  18.764  11.998  12.176 -0.0137  0.1046  0.2188
12725W        W30929   1.919   1.762   2.017 -0.2999 -0.1193 -0.0344
12726W        W30930  16.060   7.866   1.840  0.2343 -0.1409  0.1100
12727W        W30931  10.415   6.385  10.518 -0.0997 -0.4017  0.4553
12728W        W30932  12.223   8.551  13.399 -0.1114  0.0938 -0.2481
12729W        W30933  17.676  11.302  12.771  0.2946 -0.1116  0.1103
12730W        W30934  14.048   2.894  12.462  0.3838  0.2083 -0.0627
12731W        W30935  17.495   6.628   3.514  0.0540  0.0983 -0.1043
12732W        W30936   8.600   3.656   0.638  0.2153  0.1619  0.2454
12733W        W30937  18.221   1.778   3.766 -0.1858  0.0501  0.0139
12734W        W30938   0.052   5.149   0.037  0.1855  0.3196 -0.0360
12735W        W30939  12.896  11.656   3.115  0.3485  0.4361  0.0117
12736W        W30940   4.701  10.380   1.305 -0.3960  0.0001 -0.1883
12737W        W30941   8.965   8.007   1.581 -0.4607 -0.1506 -0.0513
12738W        W30942   5.117  14.424   0.156  0.2897  0.1917  0.2274
12739W        W30943   1.514  15.195  10.168  0.2836  0.3530  0.0937
12740W        W30944   5.683  15.575  11.061  0.1890  0.0574 -0.1896
12741W        W30945   2.621  10.827   0.444 -0.1748  0.0852 -0.0314
12742W        W30946   9.516  12.664   4.213  0.0576 -0.3409 -0.1249
12743W        W30947   4.145   6.956  13.051 -0.0996  0.1376 -0.1303
12744W        W30948   1.402  14.854   3.310  0.0388  0.2115 -0.3789
12745W        W30949  15.911  10.184   0.486 -0.3100  0.0846  0.0348
12746W        W30950  10.692   2.060   2.530  0.1958  0.0280 -0.0188
12747W        W30951   2.253  13.990  13.703  0.1396  0.2051  0.3103
12748W        W30952  10.188   0.346  12.550 -0.2375 -0.0380  0.0237
12749W        W30953   3.946   4.556   3.245 -0.1619  0.0309  0.3248
12750W        W30954  14.603  18.393   3.416 -0.0627  0.1581  0.0364
12751W        W30955  10.220   2.478   4.273  0.0147 -0.1012  0.0599
12752W        W30956  14.246  14.945  13.040  0.0923 -0.1174 -0.2606
12753W        W30957   2.684   7.402   1.202  0.1244  0.3395 -0.0539
12754W        W30958  13.691   2.481   0.815 -0.2856 -0.0977  0.0684
12755W        W30959   5.121  13.045   3.658 -0.1870  0.0668  0.1030
12756W        W30960  15.844  12.051   5.055  0.0804 -0.0300  0.0127
12757W        W30961   5.395  11.950   0.900 -0.1637 -0.2955  0.3646
12758W        W30962   8.290   3.378   2.529  0.2886 -0.0461 -0.3560
12759W        W30963  16.507   6.225  13.901  0.1449  0.4758  0.1135
12760W        W30964   8.148  14.444  14.353 -0.3512  0.0830 -0.2408
12761W        W30965   2.252   1.841   0.341 -0.3223 -0.3940  0.1399
12762W        W30966   9.108   3.941  12.444  0.3161 -0.2961  0.1479
12763W        W30967   4.308   7.685  12.357  0.2381 -0.1232  0.0635
12764W        W30968  13.561  12.800   3.829 -0.1682 -0.1111  0.0804
12765W        W30969   8.443   2.754   0.372 -0.3311 -0.2193 -0.1163
12766W        W30970   1.169   3.614  13.222 -0.3362  0.2639  0.0316
12767W        W30971   2.297  16.149  14.365  0.0078  0.2706  0.3474
12768W        W30972   3.954   1.460  13.523 -0.0609 -0.5072 -0.2135
12769W        W30973  12.732  10.594   9.982 -0.1276 -0.1053  0.1873
12770W        W30974   2.708   8.105   4.693  0.1348  0.0581  0.0884
12771W        W30975  10.911  17.863   2.243  0.1275  0.3663 -0.2009
12772W        W30976   5.983  15.817   4.226 -0.2642 -0.1003  0.1164
12773W        W30977   5.055  13.031   2.967  0.4895 -0.1289 -0.0939
12774W        W30978  15.987   3.584   0.507  0.0420  0.1425  0.1438
12775W        W30979  18.768   8.282  10.038  0.3297  0.0969 -0.0019
12776W        W30980   3.460  14.576   2.101 -0.0281  0.0684 -0.1014
12777W        W30981  11.365  12.899  14.626  0.0728  0.1204 -0.0928
12778W        W30982   1.529  17.139  11.655 -0.0181 -0.1131 -0.1912
12779W        W30983  17.548  18.014  12.630 -0.2993 -0.1533 -0.0900
12780W        W30984   3.870   8.127  14.853  0.2514 -0.1528  0.2641
12781W        W30985  14.777  13.981   0.141 -0.1233  0.2722  0.1805
12782W        W30986   3.709  14.847  10.803  0.0395 -0.0162  0.2291
12783W        W30987  16.161  12.794  12.185 -0.1309 -0.0857  0.0687
12784W        W30988  17.084   1.146   0.016  0.1155 -0.1503 -0.0646
12785W        W30989  12.136   9.048   9.597  0.3287  0.1285 -0.0501
12786W        W30990  13.382   3.295  14.385  0.0374 -0.1694 -0.2214
12787W        W30991  12.416   7.490   1.094 -0.0005 -0.1815 -0.0180
12788W        W30992  11.787   5.915  11.128  0.2062  0.0379 -0.0672
12789W        W30993   2.704  13.389   4.529  0.1212 -0.0768 -0.0888
12790W        W30994  18.340  10.574   0.459 -0.3378  0.1605  0.0988
12791W        W30995   9.249   0.093  14.574 -0.2734  0.1422 -0.1126
12792W        W30996   0.663   7.740  14.390 -0.0541 -0.0898 -0.2784
12793W        W30997   6.657   3.567   0.361 -0.0454  0.0033 -0.0597
12794W        W30998  13.062   7.481   2.532 -0.0813 -0.1156  0.5700
12795W        W30999  16.071   5.695  14.345 -0.0465 -0.2745 -0.1110
12796W        W31000   1.545   6.517   4.528 -0.1643  0.1112 -0.0250
12797W        W31001   8.544   4.028   1.631  0.3763  0.4681  0.0885
12798W        W31002  13.071   0.787   0.122 -0.0979 -0.1558 -0.1201
12799W        W31003  16.987  17.182   9.980  0.2512 -0.1575 -0.1079
12800W        W31004   1.731   4.966  10.928 -0.1068  0.2851 -0.1809
12801W        W31005   1.993   6.513  14.606 -0.0023 -0.3215 -0.3090
12802W        W31006   3.913  11.572   1.355 -0.2482  0.0496 -0.1441
12803W        W31007   8.149   7.147  12.533  0.4175 -0.0352  0.2393
12804W        W31008   4.271   6.017  13.228 -0.0865  0.0932  0.1370
12805W        W31009  13.788  14.175   3.130  0.0238  0.0689  0.1551
12806W        W31010  13.619   2.989  14.795  0.1405  0.1728 -0.4266
12807W        W31011   7.894  16.861   4.502 -0.2953  0.0099  0.1003
12808W        W31012   1.527   3.089   4.340 -0.0578  0.2813  0.2103
12809W        W31013   9.535  11.467   1.090  0.2434  0.5371 -0.0866
12810W        W31014   1.758   8.867   3.488 -0.2413  0.1079  0.0627
12811W        W31015  15.404   3.626  14.027  0.2203  0.1380 -0.4385
12812W        W31016  14.900   3.566  11.633  0.2006  0.0561  0.1305
12813W        W31017   5.557  14.999  14.559  0.1157  0.3371 -0.1715
12814W        W31018  16.198   3.354  11.016  0.0374  0.1974  0.3504
12815W        W31019   5.544  13.580   3.511  0.1461 -0.1666 -0.0899
12816W        W31020   0.891   8.083   0.549  0.1316 -0.3385  0.2823
12817W        W31021   6.816  13.475   4.171 -0.0649 -0.2104 -0.0032
12818W        W31022  15.674  17.046  13.126  0.1127  0.3959  0.1133
12819W        W31023  14.402   0.325  11.536 -0.0042  0.1502 -0.1095
12820W        W31024   2.457  16.009  13.633 -0.3941 -0.0090 -0.0065
12821W        W31025  12.018  10.891   1.673 -0.0134  0.0674 -0.0157
12822W        W31026   4.786   1.805  11.139 -0.1114 -0.0728 -0.0687
12823W        W31027   9.328  18.564   2.636 -0.0959 -0.1785  0.1313
12824W        W31028  11.871   3.223   1.264  0.2557  0.1269  0.0484
12825W        W31029   2.229   0.783  10.076  0.0688  0.1616 -0.1067
12826W        W31030   7.780  13.371  14.307  0.1138  0.3072  0.1939
12827W        W31031   5.594  15.755   3.938  0.0571  0.2199 -0.1437
12828W        W31032   9.678  14.321  13.642  0.2654 -0.2792  0.0247
12829W        W31033  14.968  17.902   3.294  0.0730 -0.2210  0.1124
12830W        W31034   9.044   8.865   2.991 -0.1067  0.2393 -0.0925
12831W        W31035  12.493  11.212   1.293  0.0275  0.1102 -0.1639
12832W        W31036  17.510  17.992  13.159  0.0793  0.0303  0.0002
12833W        W31037  10.728   3.900  11.636  0.2832 -0.0200 -0.1357
12834W        W31038  16.958   4.423  14.155  0.1360 -0.0136  0.0691
12835W        W31039  15.983   1.127   0.428  0.1684 -0.0052  0.2219
12836W        W31040  12.021  18.912  14.029 -0.0935  0.0150  0.1341
12837W        W31041  17.803  17.994  13.550  0.1992  0.1248 -0.2897
12838W        W31042  18.452   3.299   0.180 -0.0179 -0.1154 -0.3333
12839W        W31043   7.099  15.805   0.236 -0.0215 -0.0285  0.1065
12840W        W31044   8.067   2.082  11.017  0.1816 -0.1399 -0.0277
12841W        W31045  14.710  18.321  14.346  0.0699  0.0461  0.3764
12842W        W31046   5.889   9.586   4.524  0.0365 -0.2098 -0.1104
12843W        W31047  12.613  10.596  11.458  0.0706 -0.0920 -0.2499
12844W        W31048  14.122   1.144   0.619  0.4996 -0.0604  0.4254
12845W        W31049  15.627  10.359   0.935 -0.0289  0.0765  0.4858
12846W        W31050  14.123   1.168  13.019  0.2429 -0.0383 -0.1165
12847W        W31051   9.722  13.296  11.012 -0.2524  0.0736  0.0963
12848W        W31052  11.377   9.042  12.959  0.1671 -0.0498 -0.1383
12849W        W31053  12.359   3.372   1.216 -0.1161 -0.3236 -0.1565
12850W        W31054  10.796   8.661   5.356 -0.2587  0.1056 -0.1732
12851W        W31055  15.124  14.371  10.518 -0.0342  0.1930  0.0114
12852W        W31056  16.131  17.954   3.127  0.0657  0.1812  0.1030
12853W        W31057  14.923  13.560   1.532  0.0770 -0.0100 -0.4395
12854W        W31058  13.696   4.069  14.127  0.0677 -0.2450  0.0310
12855W        W31059   7.844   1.910   3.890  0.1875 -0.1040 -0.1675
12856W        W31060   5.776   2.311   0.327  0.1892 -0.1477  0.0636
12857W        W31061   4.894  13.746  13.747 -0.0096 -0.0459  0.0244
12858W        W31062  11.842  16.834  14.553 -0.3342  0.0151  0.2194
12859W        W31063   0.730   0.569   2.161  0.0741 -0.2529  0.1323
12860W        W31064  16.218   9.865   0.672  0.0226  0.0898  0.1798
12861W        W31065   1.497   9.734  12.137 -0.0198  0.2029 -0.0010
12862W        W31066  15.074  15.737  14.400 -0.3851  0.0635 -0.0583
12863W        W31067  10.274   8.550  12.149  0.1854  0.1568  0.3825
12864W        W31068  12.633  12.670   3.924 -0.0774 -0.0885  0.1246
12865W        W31069   2.363  15.663   3.810 -0.2637 -0.1156  0.4184
12866W        W31070   1.333   4.724   0.971  0.0518  0.0698 -0.0112
12867W        W31071   3.869  17.558  11.624  0.1759  0.0517 -0.0348
12868W        W31072   7.283   9.379   2.196 -0.2311  0.2207 -0.1868
12869W        W31073  17.038   6.493   4.385  0.1031 -0.0944 -0.0746
12870W        W31074   2.100   7.190  12.443  0.0859  0.2373  0.4764
12871W        W31075   0.277   9.913   4.868 -0.4416 -0.0239 -0.2846
12872W        W31076  18.444  12.353  10.809 -0.1502 -0.0331 -0.1330
12873W        W31077  11.548   1.714   3.015 -0.3758  0.0269 -0.1684
12874W        W31078  17.998  11.658   1.590 -0.1973 -0.1447 -0.0281
12875W        W31079  11.747   8.691  13.132 -0.6549 -0.1951 -0.4334
12876W        W31080  17.901   3.796   9.569 -0.2124  0.3729  0.1158
12877W        W31081   0.080  12.178   0.086  0.1693  0.2288  0.3275
12878W        W31082   3.504   3.766  13.097 -0.2666 -0.1253  0.1858
12879W        W31083   8.123   7.634   3.824 -0.2012 -0.0957  0.2906
12880W        W31084  17.059  11.803  12.379 -0.0853 -0.3309 -0.0140
12881W        W31085  14.535  11.040  14.715  0.0650 -0.0919 -0.0465
12882W        W31086   1.313  13.073   0.783  0.0146 -0.0672 -0.0376
12883W        W31087   0.817  14.555  10.757  0.1809  0.1479 -0.1198
12884W        W31088   3.218   1.183  10.851 -0.1677 -0.1449  0.0833
12885W        W31089  16.548   6.264   2.116 -0.0160  0.1647 -0.2703
12886W        W31090  15.517  15.680  14.663  0.1061 -0.0654  0.4147
12887W        W31091  17.381   9.338  12.115  0.1789 -0.0165  0.3844
12888W        W31092  18.362  11.280   2.263  0.0280  0.0950  0.0405
12889W        W31093  11.619   5.066   0.130  0.0723  0.0292 -0.0096
12890W        W31094   0.462  13.659  13.386 -0.1055 -0.0970  0.1188
12891W        W31095   8.893   5.978   0.458 -0.1314  0.2688  0.1362
12892W        W31096   3.437  16.101  13.954  0.0499 -0.5578 -0.0200
12893W        W31097  12.752  16.955  14.100 -0.0701  0.0106 -0.0441
12894W        W31098  17.141  11.865   0.483 -0.1149 -0.0540 -0.1983
12895W        W31099   6.131  17.241   4.197 -0.2392  0.1359  0.0019
12896W        W31100   8.036   3.978   1.872  0.1110 -0.1865  0.1565
12897W        W31101  15.942   2.413   5.308  0.0886  0.1121 -0.0382
12898W        W31102  11.893   2.280  12.703 -0.2114 -0.1368 -0.0948
12899W        W31103   0.116  18.211   2.470  0.2127  0.2617  0.0623
12900W        W31104  11.632   1.835  13.490 -0.0017  0.0253  0.3454
12901W        W31105  18.267   4.388  14.955  0.1334 -0.3705  0.0608
12902W        W31106   5.023   2.472   1.199  0.1984  0.1488  0.1723
12903W        W31107  12.629   7.196   2.711  0.2041  0.0725 -0.0059
12904W        W31108  14.777  15.582   1.276  0.1513 -0.0451 -0.0130
12905W        W31109   9.032  16.761   2.726 -0.1480  0.4762 -0.0690
12906W        W31110  15.295  14.009  10.175  0.1816  0.0341  0.0015
12907W        W31111   0.933  16.176  13.426 -0.1917 -0.3324 -0.1124
12908W        W31112   9.588   5.917  11.745 -0.0775 -0.0648 -0.3610
12909W        W31113   0.626   7.928   9.819 -0.0319 -0.0102 -0.0430
12910W        W31114   0.855  14.397  13.095  0.1795  0.2004  0.1658
12911W        W31115  13.006  14.943  13.720  0.0658 -0.1295 -0.4321
12912W        W31116  18.393  15.713   1.293 -0.0515 -0.0096  0.3261
12913W        W31117   0.717   5.151  13.945  0.0897 -0.2277 -0.0944
12914W        W31118  15.235   1.321   3.204  0.2934 -0.0741 -0.2205
12915W        W31119   5.087   3.435  13.497  0.0523  0.3671 -0.1626
12916W        W31120  13.540   5.016   0.829  0.1855  0.0790  0.1246
12917W        W31121   6.789  12.921  10.916 -0.0564  0.0373  0.0387
12918W        W31122  18.781  13.377  11.678  0.0853 -0.1025  0.0358
12919W        W31123   9.976   6.202   0.156  0.1190  0.0379 -0.0319
12920W        W31124  12.533  13.948   9.825 -0.0313  0.1478 -0.1301
12921W        W31125   8.104   7.715   4.912  0.1531 -0.0702 -0.1495
12922W        W31126  16.027   8.015  13.013  0.0327  0.1295 -0.3329
12923W        W31127  11.352  18.586   2.554  0.2425  0.0535 -0.2063
12924W        W31128  12.722  14.061  13.127  0.0054  0.1400  0.1489
12925W        W31129   9.654  16.070  12.184  0.3268 -0.2062 -0.1330
12926W        W31130  18.826   6.436  13.045  0.1991  0.0567  0.0156
12927W        W31131   0.608   6.186  12.439 -0.2057  0.2670 -0.0740
12928W        W31132  15.573   9.940   1.416 -0.2416  0.0117  0.0936
12929W        W31133   7.711   8.786   2.952  0.0358  0.0498  0.0317
12930W        W31134  12.160   0.329  10.845  0.0129  0.0208 -0.0757
12931W        W31135  16.220  10.279   1.111 -0.0930  0.3164 -0.2909
12932W        W31136  10.588   1.487  12.717 -0.0009 -0.3074 -0.0967
12933W        W31137   5.391   2.954   1.848 -0.0774 -0.0240  0.3718
12934W        W31138   1.072  18.887  14.283  0.0303 -0.2475 -0.3068
12935W        W31139  11.407  13.259   1.761  0.1874  0.5042  0.1501
12936W        W31140   3.149  15.648   4.215 -0.3301  0.2256 -0.4356
12937W        W31141   6.246   1.563   4.751  0.0678 -0.0792 -0.0938
12938W        W31142  17.133  14.646  12.309  0.1271  0.0654 -0.1697
12939W        W31143  17.291   5.538  12.826 -0.0794  0.0412  0.0096
12940W        W31144  10.816   6.613  14.858 -0.0096  0.2537  0.0419
12941W        W31145  11.297  17.449   2.414  0.1626 -0.1760 -0.1099
12942W        W31146  10.762   4.685   4.697 -0.2672  0.2271  0.0614
12943W        W31147   5.733  13.615   4.316 -0.0928  0.2055 -0.1432
12944W        W31148   3.635  16.848  10.474 -0.2362  0.1569  0.0694
12945W        W31149  13.745  11.868  13.860  0.2248  0.3065 -0.2493
12946W        W31150   9.002   7.209  13.701 -0.0605  0.2166  0.1372
12947W        W31151  15.942   3.713  14.746 -0.5079 -0.1659 -0.2196
12948W        W31152   7.538   6.661  12.132 -0.0375 -0.2261 -0.1561
12949W        W31153  14.967   0.105  11.588  0.2626  0.0819  0.0587
12950W        W31154   2.678  17.215   0.086  0.1367  0.0962  0.4827
12951W        W31155   2.273   7.146   5.559  0.0262 -0.0801 -0.0105
12952W        W31156   9.315  17.382  14.419 -0.1618 -0.1065  0.2517
12953W        W31157  16.887   3.579   4.203 -0.3812 -0.1200 -0.0827
12954W        W31158  15.468   2.285   3.590  0.2271  0.0506  0.2315
12955W        W31159  12.388   6.175  13.463  0.1624  0.2438 -0.0994
12956W        W31160  14.499   5.756   0.630  0.0180  0.2688  0.0036
12957W        W31161   3.815  14.960  12.508  0.1993  0.1300  0.3301
12958W        W31162   3.026  16.396   2.355 -0.2356 -0.2143  0.1357
12959W        W31163  14.772  16.405  12.454 -0.0358 -0.0287  0.2924
12960W        W31164  18.061  15.780  11.983 -0.1231 -0.0014  0.2339
12961W        W31165  13.131   5.129   3.721  0.0243  0.3125  0.1497
12962W        W31166   4.504  15.550  14.604  0.1909  0.1679  0.0062
12963W        W31167  17.337  18.269   2.574  0.0757 -0.3132 -0.1177
12964W        W31168   6.023  16.072   2.873  0.2560 -0.0019  0.0058
12965W        W31169  11.624   3.629   1.347 -0.0562  0.0853  0.0450
12966W        W31170  10.882   5.848   0.271  0.1261 -0.1607 -0.1230
12967W        W31171   3.419   2.291   0.813 -0.1043 -0.0647  0.0978
12968W        W31172  14.152   5.044   0.126  0.0040  0.2845  0.1182
12969W        W31173  15.132  13.720  11.656  0.1121 -0.1363  0.1845
12970W        W31174   6.765   6.392   0.920  0.4941 -0.2048 -0.0097
12971W        W31175   8.405   6.420  11.647 -0.1942 -0.0749  0.1267
12972W        W31176   9.805  18.444   2.973 -0.0949 -0.0549  0.1170
12973W        W31177  12.534   6.535   4.750  0.3724 -0.0660  0.1641
12974W        W31178  13.464   3.853  10.685 -0.0928  0.0273 -0.1503
12975W        W31179   5.314   9.544   2.786  0.0738  0.0385 -0.2859
12976W        W31180   8.161  18.785  13.942  0.2219 -0.1640 -0.5280
12977W        W31181   5.524  18.434  12.622  0.0917 -0.0909  0.1146
12978W        W31182  13.982   2.826  11.216 -0.0404  0.2854 -0.1556
12979W        W31183   0.412  15.679  11.188  0.0450  0.1016 -0.1163
12980W        W31184   3.841  13.534  12.969 -0.1345 -0.1278 -0.2499
12981W        W31185   8.453   0.267  11.844  0.0108  0.2396  0.6254
12982W        W31186  14.267   1.406   4.401 -0.3510 -0.1994  0.0011
12983W        W31187  16.536  16.532  12.875  0.1023 -0.2058 -0.2340
12984W        W31188  13.548   8.927   4.085 -0.4173 -0.0475 -0.3589
12985W        W31189  16.974   8.463   1.672  0.0137  0.0523 -0.2055
12986W        W31190  12.236   9.897  14.461  0.0670  0.1580  0.0040
12987W        W31191  18.479  12.422  13.352  0.2437  0.0216  0.1898
12988W        W31192  17.900  17.406  10.947 -0.3755 -0.2591  0.0683
12989W        W31193   6.684  13.155  14.305 -0.0503  0.0230 -0.2099
12990W        W31194   4.600   4.150  12.366  0.1292 -0.2084 -0.1248
12991W        W31195   3.485   2.322  11.910  0.3660  0.0976  0.1267
12992W        W31196   9.421   3.666   1.332 -0.1342 -0.2142  0.0823
12993W        W31197   3.824  15.671   3.364  0.4355 -0.3943  0.0655
12994W        W31198  13.965  13.981  12.575  0.1964  0.0438 -0.0554
12995W        W31199   6.305   3.355   2.218  0.0872  0.0116 -0.3150
12996W        W31200  12.291  11.451   2.686 -0.5292 -0.3398 -0.3772
12997W        W31201  13.894   9.141   3.687 -0.2791  0.1334 -0.1779
12998W        W31202   1.109  11.015   2.059  0.1941 -0.1364  0.2119
12999W        W31203  13.005   6.163   3.606 -0.0887  0.0244 -0.0505
13000W        W31204  18.162  16.152  11.063  0.0787 -0.0032 -0.3110
13001W        W31205  12.113  12.752   2.658 -0.1584 -0.0628  0.3717
13002W        W31206   9.581   3.836   3.234 -0.2902 -0.0967  0.0460
13003W        W31207   8.176   7.274  11.095  0.3694  0.0601 -0.1189
13004W        W31208   8.367  13.941   3.734  0.2970  0.0828  0.0541
13005W        W31209  11.433   1.947   3.670 -0.1252 -0.0883 -0.0612
13006W        W31210   7.349  13.257   2.145 -0.0152  0.0115  0.1582
13007W        W31211  10.605   9.641  11.304 -0.3122  0.1847 -0.1329
13008W        W31212  18.766  11.513  14.392 -0.1611 -0.1502  0.0127
13009W        W31213   2.142  17.360  12.939 -0.0249 -0.3549  0.1051
13010W        W31214   2.266  11.588   3.623  0.0486  0.0543 -0.0340
13011W        W31215   7.115  18.593   2.143  0.2505 -0.0248  0.3182
13012W        W31216   4.256   9.036  13.707 -0.0141  0.1002 -0.2399
13013W        W31217  11.284   4.134  12.177  0.1903  0.1258  0.0521
13014W        W31218   5.132  18.151  11.595  0.0300  0.2481 -0.2055
13015W        W31219  17.357  16.070   2.477 -0.2218 -0.0240 -0.2081
13016W        W31220   4.904  18.932   2.971 -0.2626 -0.0995  0.1214
13017W        W31221   3.550  10.293   0.380  0.1866 -0.0077 -0.0710
13018W        W31222   7.394  18.902  10.164  0.0620 -0.1509 -0.4697
13019W        W31223  16.575  17.443   1.410 -0.0114 -0.4038 -0.1817
13020W        W31224  12.014  11.916   0.291 -0.0029  0.0248 -0.1313
13021W        W31225   8.138  12.940  14.096  0.0957  0.0113 -0.1081
13022W        W31226   6.496  17.607  13.191 -0.5471 -0.2525  0.2122
13023W        W31227   3.855  18.946  11.734  0.0163 -0.0620  0.2175
13024W        W31228   3.094   1.024  14.356  0.1085  0.0634  0.2059
13025W        W31229  12.542   6.266  13.918 -0.1051  0.2666  0.0418
13026W        W31230  14.373  10.462  13.760 -0.0779  0.2342 -0.0733
13027W        W31231  14.536  14.366   0.511  0.0048  0.1755 -0.3503
13028W        W31232   6.689   1.450   0.278  0.2142 -0.0141 -0.0388
13029W        W31233  16.240   3.825  11.317  0.0602 -0.1662  0.1128
13030W        W31234   5.988   0.553  14.105  0.1560 -0.4189  0.0216
13031W        W31235  13.161   0.479  13.822  0.1403 -0.0797 -0.2465
13032W        W31236  16.889   3.319   0.773  0.0780  0.2593 -0.0665
13033W        W31237   3.421   3.447   2.722 -0.0572  0.1123 -0.3935
13034W        W31238   9.274   6.727  14.870 -0.0411  0.0929  0.0467
13035W        W31239  11.362   3.337  13.532  0.2088 -0.0601 -0.0497
13036W        W31240  10.110   9.420   5.627 -0.0408 -0.0844 -0.0213
13037W        W31241  11.494   2.430   0.217  0.0108  0.0274  0.1975
13038W        W31242  11.020   1.695   3.016 -0.2672  0.0215  0.2366
13039W        W31243  16.865  18.735   1.868  0.1195  0.3271 -0.0078
13040W        W31244   1.519   3.825  11.579 -0.1159 -0.0854 -0.0642
13041W        W31245   4.101   3.012   9.817 -0.3481 -0.0518  0.3114
13042W        W31246  17.305  17.346   2.983  0.1365  0.2663 -0.0428
13043W        W31247  17.223   6.441  11.839 -0.3170 -0.1515 -0.0114
13044W        W31248   4.666   2.002   0.942 -0.0735 -0.1116 -0.0743
13045W        W31249   4.479   8.070   4.873 -0.2043 -0.0283 -0.1498
13046W        W31250  10.395  16.959   9.773 -0.1778  0.3059 -0.1571
13047W        W31251   5.106   4.380   0.392  0.0923 -0.5510  0.0153
13048W        W31252   1.203  18.640  13.385 -0.2946  0.2075 -0.0034
13049W        W31253   1.994  17.489  10.605  0.5155 -0.0002  0.0274
13050W        W31254  17.012  14.548   2.361  0.0222  0.1869  0.0137
13051W        W31255  15.021   8.198   2.597  0.2490  0.1332  0.0091
13052W        W31256   7.646  17.677   3.917 -0.1086  0.0289  0.0235
13053W        W31257  14.818  17.993   3.738  0.1928 -0.2322 -0.3065
13054W        W31258   9.699   0.394   1.501 -0.3169  0.0007  0.1289
13055W        W31259   5.998   2.105   1.134  0.0235 -0.1942  0.1293
13056W        W31260   3.236   8.701   3.621 -0.0572  0.0398 -0.1794
13057W        W31261   9.817   5.186   0.346 -0.0427  0.2348 -0.0553
13058W        W31262   5.442  14.213  10.907  0.0003  0.0673 -0.3151
13059W        W31263   1.451  14.971   3.776  0.0248  0.1344  0.0454
13060W        W31264  10.865  11.559   2.818 -0.1888 -0.1418  0.0121
13061W        W31265   2.433   2.136  12.907 -0.1769  0.1626 -0.0239
13062W        W31266   9.625  13.886   2.717  0.0518 -0.3163  0.3984
13063W        W31267  12.131   1.596  10.664  0.0948  0.3716  0.2094
13064W        W31268   2.946  16.306  10.183 -0.1466  0.0150 -0.0616
13065W        W31269  18.037  13.772   2.325 -0.0713  0.6044  0.0118
13066W        W31270   2.398   5.081  12.207  0.0026 -0.1014  0.0585
13067W        W31271  13.302   3.397   0.950 -0.2976  0.0464  0.0401
13068W        W31272  14.085  15.262   1.448 -0.1928 -0.0142 -0.3201
13069W        W31273  16.204  14.549  14.814  0.0493  0.1501  0.1043
13070W        W31274   9.248   8.661   4.213  0.1444  0.4663  0.1917
13071W        W31275  10.204  13.212  11.171  0.1315 -0.2778 -0.3354
13072W        W31276   5.963  13.131   3.480  0.3940 -0.3935 -0.0019
13073W        W31277  10.984  11.746  13.114  0.2409  0.1508  0.1771
13074W        W31278   6.369  10.199  11.139  0.0380 -0.1470  0.3738
13075W        W31279  10.830  11.459  10.148  0.1885  0.2489 -0.0681
13076W        W31280  18.079   9.678   0.025 -0.2470 -0.2234 -0.1530
13077W        W31281  11.180  15.051   3.161  0.2451  0.0319 -0.0204
13078W        W31282   1.639   8.051   1.345  0.3324 -0.0371  0.2653
13079W        W31283   3.487  12.696   4.075 -0.0380 -0.2721  0.0082
13080W        W31284  10.900   2.917   5.583 -0.1593 -0.5204  0.0310
13081W        W31285  14.708   0.401  12.481 -0.0448 -0.0921  0.0484
13082W        W31286   3.934  11.490   9.661  0.1972  0.0234  0.0615
13083W        W31287   4.483   0.635   0.487 -0.1944  0.0267 -0.0731
13084W        W31288   4.078   8.397   2.297  0.0557  0.0634 -0.0404
13085W        W31289  15.030   7.482  11.569  0.3783 -0.2165 -0.1982
13086W        W31290   7.893   4.463  13.376 -0.1500  0.0863 -0.5621
13087W        W31291   2.384   6.545  11.830 -0.1414 -0.0571  0.0887
13088W        W31292  14.394  15.191  14.514 -0.0619  0.2173 -0.2204
13089W        W31293   2.393  14.560   1.386  0.0307  0.0063  0.3504
13090W        W31294  14.339   4.282  12.333 -0.0496  0.4936 -0.0082
13091W        W31295   0.949   9.003  10.706  0.2406 -0.0794  0.1277
13092W        W31296  10.365   6.007   1.949 -0.2241 -0.1719 -0.0123
13093W        W31297   3.699   4.709   4.155  0.1427  0.2846 -0.1445
13094W        W31298  16.148   6.356  13.152 -0.2592 -0.3665  0.0790
13095W        W31299   5.764  11.531  14.615  0.0106  0.0280  0.0799
13096W        W31300  12.199   5.762   1.784 -0.2256 -0.4535  0.4679
13097W        W31301  17.752  14.184  13.915 -0.1254 -0.1373  0.0477
13098W        W31302   4.875   1.391  13.758  0.1584 -0.1486 -0.1128
13099W        W31303   1.376  11.979   3.771 -0.0471  0.0935 -0.0947
13100W        W31304   0.733   9.991  12.370  0.1726 -0.0930 -0.1899
13101W        W31305   9.005   2.315  14.739 -0.0584 -0.0664 -0.0307
13102W        W31306   0.952   8.204  12.815  0.0504  0.2548  0.0782
13103W        W31307  13.877   1.373   4.061  0.0589  0.0874  0.1720
13104W        W31308   5.679   0.716  11.079  0.0414  0.3168 -0.0638
13105W        W31309  15.602  10.871  12.923  0.0329  0.1200 -0.2944
13106W        W31310  16.055  10.460  12.787  0.0799 -0.1847  0.0995
13107W        W31311   0.331   8.459  14.335  0.2293  0.0493  0.0151
13108W        W31312  16.763  11.825   1.732 -0.0140 -0.1494 -0.1522
13109W        W31313  10.464  17.121  11.248 -0.1380 -0.0933  0.1033
13110W        W31314   1.674  14.657  12.191  0.1037 -0.2285 -0.1528
13111W        W31315   2.339   1.587   0.908 -0.1398 -0.3646  0.2129
13112W        W31316  16.492   9.355   3.441 -0.0814  0.0118  0.0960
13113W        W31317  15.444   3.499  11.646  0.2110  0.2983 -0.0590
13114W        W31318  12.592   7.323  12.535 -0.1496 -0.1125  0.0621
13115W        W31319   5.117   9.466   1.861  0.0804  0.0518 -0.0731
13116W        W31320  17.694  18.266   5.180  0.1843  0.2174 -0.3851
13117W        W31321  10.878   5.605   3.040 -0.2172 -0.0315 -0.2479
13118W        W31322   1.548   3.745   0.154 -0.1471  0.1974  0.1520
13119W        W31323   2.275   3.618   3.011  0.2394  0.0994  0.0539
13120W        W31324  18.258  15.409  10.081 -0.2247 -0.0056  0.0143
13121W        W31325   2.495  11.145   4.455 -0.0376  0.1499  0.0038
13122W        W31326  16.288  17.370  11.739  0.1715  0.1754  0.0270
13123W        W31327  14.302  13.375   2.806  0.1951  0.2100 -0.2406
13124W        W31328  14.828   7.638  14.729 -0.0365 -0.0828  0.0327
13125W        W31329  16.051  14.249   3.193 -0.2420 -0.0990  0.2542
13126W        W31330   7.975  14.514   9.589 -0.3379 -0.0677  0.3673
13127W        W31331  17.484   7.375   2.110  0.1119 -0.2914  0.0483
13128W        W31332   9.994   7.690   3.599 -0.0087  0.0746  0.2204
13129W        W31333  16.248  17.782  14.710 -0.1587  0.1373  0.1910
13130W        W31334  16.761   1.438  13.288 -0.1095  0.3161  0.1764
13131W        W31335   2.735   7.653   4.290  0.1367 -0.1354 -0.0613
13132W        W31336  18.767   1.212   0.828 -0.4045 -0.1726  0.0560
13133W        W31337   7.019  10.556  12.345  0.3140  0.0885  0.0721
13134W        W31338   3.610   6.222   0.006  0.3002 -0.0786 -0.0974
13135W        W31339  17.964   6.503   2.669  0.2689 -0.1022 -0.2955
13136W        W31340   7.623  11.322   4.677 -0.1218  0.0074  0.3247
13137W        W31341  14.942   9.921  10.162 -0.2529  0.0015 -0.0954
13138W        W31342  18.784  12.746  15.004  0.1181 -0.0718 -0.1525
13139W        W31343   0.087  16.981   3.941  0.2637  0.3283  0.0303
13140W        W31344  11.563   6.090  11.505 -0.0486  0.0694 -0.2549
13141W        W31345  16.713  11.745  12.796 -0.3492 -0.3492 -0.1876
13142W        W31346  10.522  10.591  14.465  0.2977 -0.3999  0.1019
13143W        W31347  15.484   4.125  13.995 -0.1718 -0.1116  0.1475
13144W        W31348   5.046  13.810   0.512 -0.1656  0.1339 -0.2312
13145W        W31349  16.867   5.849  12.928 -0.3696 -0.0345 -0.1685
13146W        W31350   6.834  12.357   4.229 -0.1939 -0.1313  0.0751
13147W        W31351   7.451  16.816   1.315 -0.2491 -0.1879 -0.0763
13148W        W31352  13.630  14.141  14.550 -0.0072 -0.2681  0.2076
13149W        W31353  13.885   7.569  13.730  0.2148  0.3323 -0.3293
13150W        W31354  14.155  17.089   3.472 -0.0185  0.2867  0.0234
13151W        W31355  13.681  14.978  11.635 -0.1129  0.3792  0.4574
13152W        W31356   4.343   4.499  12.777 -0.2309  0.0990  0.1590
13153W        W31357  10.918  13.902  11.444 -0.0636 -0.1194 -0.1677
13154W        W31358  10.760   2.794  11.255  0.3504 -0.0947 -0.3438
13155W        W31359  10.814  11.065  14.762 -0.0872 -0.1050  0.1800
13156W        W31360  14.888  17.391   3.690  0.0361 -0.0986 -0.1333
13157W        W31361   8.009   1.644  12.818  0.3197 -0.2813 -0.2002
13158W        W31362   2.951   9.930  11.879 -0.0379 -0.1770  0.0817
13159W        W31363   4.121   6.662  14.328  0.2928 -0.0022 -0.0262
13160W        W31364  18.101  14.314   1.938  0.3774 -0.3262  0.1819
13161W        W31365  18.894   4.282  12.051  0.1004 -0.2777 -0.1658
13162W        W31366   6.044   4.545  14.934  0.1289 -0.2946 -0.0002
13163W        W31367  16.837   3.144  12.784  0.1888  0.0268 -0.1931
13164W        W31368   5.402  13.971   2.553  0.1581 -0.1447 -0.3081
13165W        W31369   8.324  17.144  11.762  0.0255  0.3417  0.3524
13166W        W31370   1.481  14.870  13.397 -0.0946  0.3738 -0.2062
13167W        W31371   6.810  10.182   2.529 -0.0470  0.2393  0.0421
13168W        W31372   9.787   2.861  13.562 -0.3951  0.0301 -0.0666
13169W        W31373   3.007  10.722   2.773  0.2441  0.0056  0.3635
13170W        W31374   7.834   6.634   3.719 -0.0655  0.0599  0.1652
13171W        W31375  12.437   1.356  11.168 -0.1345  0.0899 -0.2545
13172W        W31376  14.791   2.430   2.393  0.4243 -0.1963 -0.2255
13173W        W31377   9.271  13.796   3.597 -0.0657 -0.1088 -0.0394
13174W        W31378   8.085   2.884   4.003 -0.1210  0.1072  0.0554
13175W        W31379   6.523   2.972  11.073  0.2536 -0.1678 -0.0860
13176W        W31380  13.622  10.348  13.808  0.1586 -0.1233  0.4665
13177W        W31381  12.760   4.347  11.583 -0.1132  0.0340  0.0800
13178W        W31382  15.144   4.283   2.933  0.0577 -0.0253  0.1282
13179W        W31383  15.925   0.280   1.475  0.1204  0.0818 -0.1260
13180W        W31384  10.510  18.875  11.714  0.0837 -0.3606 -0.1863
13181W        W31385   7.507   0.742  14.880 -0.1254 -0.2833  0.4593
13182W        W31386  12.788  15.227   4.164  0.2536 -0.4739  0.1372
13183W        W31387  10.300  18.605  11.236 -0.0064  0.1314 -0.3395
13184W        W31388  17.541   3.501  11.439 -0.4323 -0.1477 -0.0225
13185W        W31389   2.980   4.796   2.591 -0.1936 -0.1789  0.0453
13186W        W31390   2.267   1.415  13.442 -0.1192 -0.0608 -0.1321
13187W        W31391  17.701   5.431   2.720 -0.0570 -0.0726 -0.1728
13188W        W31392   2.853  10.790  13.173  0.2677  0.0446  0.1141
13189W        W31393  15.021  13.265  14.085 -0.0976 -0.3366  0.0932
13190W        W31394  10.172  10.623   1.197  0.2975 -0.2416  0.1332
13191W        W31395   3.822  13.595   3.883 -0.0290 -0.3978  0.0199
13192W        W31396  11.226   8.779   4.404 -0.0292 -0.1675  0.0317
13193W        W31397   0.220   9.368   2.091 -0.1605 -0.0056 -0.0456
13194W        W31398   0.642   3.616  13.685 -0.0428 -0.0891  0.0674
13195W        W31399   9.808  11.562   9.552 -0.3208 -0.0544  0.1562
13196W        W31400  18.602   4.635  12.448 -0.1561  0.2386  0.1201
13197W        W31401  11.468   8.142  13.967 -0.1502  0.3067  0.0322
13198W        W31402   6.465  16.076   1.375 -0.0515  0.2457 -0.1418
13199W        W31403   3.075  18.024  12.640 -0.0269  0.0780  0.0620
13200W        W31404   0.624   7.415   5.675  0.0642 -0.2778 -0.0890
13201W        W31405  14.176  18.845  12.130  0.1053  0.0584  0.3206
13202W        W31406  11.503   7.609   3.104 -0.0566  0.1174 -0.2872
13203W        W31407   0.247  13.643   3.799 -0.1249  0.1665  0.0005
13204W        W31408   9.061   6.453   1.324 -0.1473  0.2448  0.1625
13205W        W31409  10.261   1.670  11.832  0.2685 -0.1706 -0.0456
13206W        W31410  14.766   3.891   0.096  0.0473 -0.3012 -0.1152
13207W        W31411   5.993   5.439   0.333  0.0748  0.1751 -0.0755
13208W        W31412   4.711  13.871  10.134  0.1540 -0.1126  0.0237
13209W        W31413   8.804   9.533   1.848  0.4475  0.3498  0.1226
13210W        W31414  10.252  11.841  11.198  0.1353  0.1714 -0.2237
13211W        W31415  12.985   2.183  14.298  0.0464 -0.0671 -0.0327
13212W        W31416   5.579  14.173   2.140  0.3363  0.0662 -0.3828
13213W        W31417   3.025   2.393   0.403  0.1164  0.1627 -0.0746
13214W        W31418  17.388   9.525   4.836 -0.1594  0.0151 -0.0934
13215W        W31419  15.843   5.173  10.228  0.3530 -0.1329  0.2357
13216W        W31420   7.150  10.697  13.646 -0.4386  0.1050 -0.1431
13217W        W31421   4.966  15.655  11.845  0.2891 -0.5200  0.0789
13218W        W31422   1.870   5.714  13.593  0.2794 -0.0482  0.2066
13219W        W31423   7.524   8.754   3.957  0.0645 -0.1890  0.0504
13220W        W31424   9.579   7.720   3.948 -0.1149  0.1767 -0.1988
13221W        W31425   6.535   3.010   4.646  0.0126 -0.3786  0.0638
13222W        W31426  17.386  15.034   3.338 -0.0070 -0.0692 -0.1775
13223W        W31427  17.360   3.214   1.707  0.1691 -0.0982 -0.0239
13224W        W31428  18.203  10.809  11.523 -0.2112  0.3081 -0.0713
13225W        W31429   2.115  16.712  11.207  0.0893 -0.1632 -0.4003
13226W        W31430  14.103   9.973  14.770 -0.0985  0.0128 -0.2618
13227W        W31431   1.508  17.440  10.916 -0.1076 -0.3225  0.0888
13228W        W31432   1.935  10.109   2.623  0.1243  0.1923  0.2529
13229W        W31433   0.113   6.250  14.566 -0.1564  0.0585  0.0059
13230W        W31434  12.759   4.694   2.263  0.3091 -0.2105 -0.2351
13231W        W31435  10.316   6.308   2.873 -0.2018  0.0127  0.1730
13232W        W31436  15.661   1.533   1.377 -0.0555 -0.2427  0.0826
13233W        W31437  10.479   2.853   3.022  0.0692  0.0017  0.1048
13234W        W31438  16.299   5.621   3.080  0.4171 -0.2839 -0.0730
13235W        W31439   1.088  13.261   1.617  0.3073 -0.2639 -0.1027
13236W        W31440  12.180  12.174   3.020 -0.2561  0.2287  0.0427
13237W        W31441  14.603   9.675   0.526  0.1932  0.1277 -0.0303
13238W        W31442   6.065   0.869   1.914  0.0435 -0.1791  0.2585
13239W        W31443   0.737   0.588  11.930 -0.1063  0.0906  0.1468
13240W        W31444  14.434   2.515   2.974  0.0561 -0.0337  0.0740
13241W        W31445   8.077  15.650  10.774  0.0554  0.4301 -0.2222
13242W        W31446   0.571   7.577  10.789  0.0535  0.2625  0.0198
13243W        W31447   6.714   8.366   2.002  0.1008 -0.0122  0.1510
13244W        W31448   7.848  18.496   1.788  0.1226 -0.1454 -0.0723
13245W        W31449  18.498   3.028  11.099  0.3808 -0.0391  0.3023
13246W        W31450  12.768  17.459  14.105  0.1867  0.0967  0.0922
13247W        W31451   2.809   2.402  13.090  0.0144 -0.1892  0.0310
13248W        W31452   0.816   3.068   1.601 -0.1521 -0.1312 -0.3782
13249W        W31453  10.874  18.752   0.624  0.1179 -0.3175 -0.0904
13250W        W31454   3.421   4.576  13.459 -0.4513  0.1923 -0.0941
13251W        W31455   8.995   2.106   0.248 -0.2780 -0.0172 -0.2216
13252W        W31456   3.132  11.964  14.848 -0.5457 -0.4613 -0.0461
13253W        W31457  12.321   6.630  12.036  0.0441 -0.0274 -0.0103
13254W        W31458   8.180   4.099  12.597 -0.2099 -0.0858 -0.2790
13255W        W31459  18.623   9.537   1.475  0.1032  0.1244  0.2670
13256W        W31460   5.180   1.473  11.822 -0.2178  0.2082  0.1008
13257W        W31461  11.180   6.486   0.153 -0.1717  0.1479  0.0793
13258W        W31462  13.752   4.190   3.235 -0.1334 -0.2004  0.2542
13259W        W31463   4.095   8.299   0.451 -0.0158  0.0635 -0.0630
13260W        W31464   2.961  13.587  14.191 -0.0973 -0.3356  0.2204
13261W        W31465   4.817  12.205   0.900 -0.2754 -0.0194 -0.0152
13262W        W31466  16.323  18.739   1.860  0.2083 -0.0591 -0.0204
13263W        W31467   4.527  14.473  12.547 -0.4252 -0.2229  0.0526
13264W        W31468   7.620   6.181   3.495  0.1100 -0.0066  0.2279
13265W        W31469  15.009   8.977   2.066  0.2136  0.2026  0.1367
13266W        W31470  17.024  11.233  13.994  0.2828  0.0742  0.3360
13267W        W31471  17.306   7.237  14.181 -0.0443 -0.3326  0.0079
13268W        W31472   8.406   0.563   2.076 -0.1433 -0.3165  0.2742
13269W        W31473   6.885   3.476   4.559  0.0513  0.0321 -0.1181
13270W        W31474   9.763  18.947  10.590  0.1164 -0.0328  0.0416
13271W        W31475  12.244  12.341  14.610  0.3593  0.1554  0.0806
13272W        W31476   1.214   7.079  14.738  0.0659 -0.0644 -0.1522
13273W        W31477  10.674   6.160  13.417 -0.1615  0.0043 -0.0352
13274W        W31478   6.338   5.109   1.659  0.5381 -0.1450  0.2934
13275W        W31479   1.493   6.335  10.914 -0.1947 -0.0397 -0.0239
13276W        W31480  17.222   8.313  10.348 -0.0345 -0.0136  0.1009
13277W        W31481   1.949  16.914   5.306  0.0161  0.0124  0.1994
13278W        W31482  15.395   7.214   1.401  0.0955 -0.2218  0.3128
13279W        W31483  16.418   3.708  11.815 -0.0204 -0.2578  0.1638
13280W        W31484  12.321  15.366  14.605  0.1947 -0.2408  0.0328
13281W        W31485  10.860  18.513  11.057  0.0049 -0.0201 -0.2123
13282W        W31486  18.342  10.683   4.191  0.4709  0.1137  0.1022
13283W        W31487   4.211   7.241   2.405  0.3073 -0.1796  0.0321
13284W        W31488   1.702   3.143   1.887 -0.4651 -0.0033 -0.0073
13285W        W31489  16.017  14.419  11.597 -0.1476  0.3614  0.3445
13286W        W31490  12.278  14.843  12.704  0.1371 -0.2807 -0.3397
13287W        W31491  18.412   8.813   4.347  0.1112  0.0275  0.1470
13288W        W31492  12.188   8.688  13.984  0.2153 -0.0872 -0.0140
13289W        W31493   8.567   0.509  13.372 -0.1350  0.0910  0.0080
13290W        W31494  18.720   2.631   3.214 -0.0664 -0.1397 -0.0103
13291W        W31495   0.404  14.169  10.792 -0.2767 -0.0452  0.0328
13292W        W31496   3.330  12.903  10.756 -0.1058  0.2533 -0.1451
13293W        W31497  12.335  13.924  14.848  0.2508 -0.1934 -0.2918
13294W        W31498   2.653   4.959   3.443  0.1016 -0.4958  0.0996
13295W        W31499  14.503  15.654   3.914 -0.2499 -0.1572  0.3264
13296W        W31500  14.058  11.966   4.481 -0.0908  0.1436  0.0650
13297W        W31501   6.226   0.212  14.362 -0.3538  0.1480  0.1811
13298W        W31502   5.392   1.258   2.488 -0.3002  0.0626 -0.0848
13299W        W31503  14.941  14.259  13.370 -0.4044 -0.1951 -0.1874
13300W        W31504  10.393  15.713  11.900 -0.1015  0.0011 -0.1713
13301W        W31505  18.860  16.940   1.180  0.1351  0.0819  0.2394
13302W        W31506  12.914  18.883  14.437 -0.1610 -0.1050  0.1889
13303W        W31507  12.942   2.784   0.624  0.0575 -0.3840  0.1616
13304W        W31508   5.084  12.222   0.490  0.1450  0.0953  0.2035
13305W        W31509  11.129  13.557   1.144 -0.2908  0.0004  0.1464
13306W        W31510  14.626  16.754  11.644  0.0731 -0.3126 -0.1151
13307W        W31511   7.755   0.412   3.804  0.3559 -0.0312 -0.3153
13308W        W31512  14.905  11.048   5.427  0.2689 -0.4429 -0.3197
13309W        W31513   6.762  12.420  13.661 -0.2778 -0.3822 -0.1787
13310W        W31514   2.739   3.175  13.653 -0.1104 -0.0028 -0.3024
13311W        W31515   8.053  17.803   2.544 -0.1200 -0.0315  0.2891
13312W        W31516   3.788  16.916   2.069  0.1535 -0.0674 -0.0833
13313W        W31517   4.839   5.198   2.897  0.0418 -0.3247 -0.5022
13314W        W31518  12.707  17.615  12.041 -0.1428  0.0479 -0.1612
13315W        W31519  12.402   5.208  14.469  0.1197 -0.1502  0.0830
13316W        W31520  12.938   1.201   2.922  0.2136  0.2129 -0.0283
13317W        W31521   5.702  10.721  12.562  0.1021 -0.3241  0.0565
13318W        W31522   8.794  16.304  13.115 -0.1093 -0.1124 -0.1006
13319W        W31523   6.792   9.416  14.925 -0.1740  0.0682  0.0414
13320W        W31524  10.386  16.594  11.872 -0.1136 -0.0498  0.0723
13321W        W31525   8.297  18.638   3.950 -0.0505 -0.1067 -0.1514
13322W        W31526   1.627  16.561  10.823 -0.0854 -0.2397  0.1012
13323W        W31527   5.334  13.614  13.913 -0.1609  0.0554 -0.0427
13324W        W31528   0.025  17.716   2.317  0.4393 -0.0394 -0.2557
13325W        W31529   1.490   2.375  13.012  0.1729  0.0634  0.0529
13326W        W31530  10.301  13.712   1.019 -0.2809  0.0100  0.4237
13327W        W31531   6.084   1.539  14.690  0.0792  0.2666 -0.1821
13328W        W31532  12.538   0.310   2.844  0.0978 -0.1168 -0.4098
13329W        W31533  11.503  17.815  11.084  0.1162  0.0843  0.0766
13330W        W31534  13.783   1.049  14.115  0.3282  0.2116  0.0872
13331W        W31535  10.050   6.010  11.754  0.4879  0.3839  0.0566
13332W        W31536  14.609   7.283   4.259 -0.0266 -0.0025 -0.0791
13333W        W31537   1.163  10.107  12.905 -0.0021 -0.1843 -0.0694
13334W        W31538  18.440  18.025   2.008 -0.0410 -0.3206  0.0293
13335W        W31539   6.000  16.201  14.091 -0.1904 -0.3594 -0.2640
13336W        W31540  17.522   3.391   3.655 -0.1048  0.1254 -0.1546
13337W        W31541   5.206   8.664  10.910  0.0014 -0.0009  0.0340
13338W        W31542   4.941  15.926  12.994  0.2760 -0.1770  0.0123
13339W        W31543  12.282   3.517  13.160 -0.1567 -0.1465  0.1993
13340W        W31544  13.731  17.284   1.788 -0.2590 -0.1499  0.2378
13341W        W31545   5.349   1.640  13.222  0.3354 -0.0248  0.2184
13342W        W31546  14.248  12.286   2.597  0.1833 -0.3081  0.4189
13343W        W31547   4.815  10.345  11.043  0.0029 -0.0111  0.2731
13344W        W31548  18.217  16.627   5.081 -0.1313  0.3735  0.0425
13345W        W31549   4.638  17.220   4.334  0.1324 -0.1016  0.3899
13346W        W31550   4.547   2.017  11.882 -0.0028  0.0881  0.0613
13347W        W31551   8.105   0.053   4.198 -0.0915  0.0749  0.3922
13348W        W31552  18.100   9.190  13.589 -0.0150 -0.4583 -0.0565
13349W        W31553  15.009  15.547   3.610  0.0962 -0.3292  0.1313
13350W        W31554  10.911   6.031   1.415 -0.1288  0.2218  0.1159
13351W        W31555  14.199   4.632  14.097 -0.0221 -0.1796 -0.0331
13352W        W31556  15.629  15.169   2.211  0.0530 -0.1020  0.2823
13353W        W31557   9.184   9.608  11.910  0.1834  0.3059  0.1371
13354W        W31558   2.738  12.922   2.372 -0.1613  0.2232  0.1211
13355W        W31559  13.869  15.718   1.692 -0.1517  0.1366 -0.0419
13356W        W31560  13.925   5.027  13.958  0.0280  0.1190 -0.2712
13357W        W31561  10.541   8.182  11.880  0.1375 -0.1712  0.4174
13358W        W31562   7.847   9.532   3.719  0.1517  0.4090  0.1487
13359W        W31563  14.849  13.483   3.434  0.0249 -0.3366  0.1339
13360W        W31564  17.996   7.957   4.024  0.0047  0.0264  0.0005
13361W        W31565  16.375   2.052  12.625 -0.1278  0.4305  0.3192
13362W        W31566  18.505   8.226   1.327 -0.0814  0.0340 -0.1780
13363W        W31567   0.136  17.276   2.689  0.2853  0.0871  0.2103
13364W        W31568  13.625  11.600   2.046 -0.0922 -0.0354  0.1442
13365W        W31569   6.425  18.802  10.446 -0.0299 -0.1902 -0.1119
13366W        W31570   8.222   9.177   0.196 -0.3558  0.2661 -0.2506
13367W        W31571  11.274   4.822   0.501 -0.1877  0.2650 -0.0993
13368W        W31572  13.295  15.125   4.072  0.0958  0.3188  0.0011
13369W        W31573  17.784   8.917  13.277  0.0122 -0.0632  0.0723
13370W        W31574   0.121   2.596   1.844  0.1496 -0.3978 -0.3397
13371W        W31575   1.999  15.019  10.547 -0.3460  0.0328 -0.1219
13372W        W31576  13.773   6.472  13.566 -0.1295 -0.1208  0.3298
13373W        W31577  15.245   2.309  14.199 -0.1593  0.0633 -0.1110
13374W        W31578  17.969  14.160   1.461 -0.1904  0.0217 -0.4606
13375W        W31579  18.942   9.107  12.998 -0.1308  0.1126 -0.0110
13376W        W31580   4.195   2.918  12.986 -0.0667 -0.0449  0.0278
13377W        W31581  11.007  13.624  14.295  0.0375  0.0949 -0.1757
13378W        W31582   0.070   4.587   3.899 -0.0451 -0.0129  0.2005
13379W        W31583   1.436  10.986  12.468  0.1629  0.1981 -0.3978
13380W        W31584   7.969   5.075   1.400 -0.1016  0.2218 -0.0273
13381W        W31585   4.721   4.146  13.353  0.0232 -0.2192  0.0751
13382W        W31586   1.940   8.602  12.660 -0.1760  0.1385  0.2786
13383W        W31587  12.656   0.766  11.901  0.0625 -0.0699  0.3913
13384W        W31588   5.405  13.834  14.663  0.2608 -0.1915  0.5237
13385W        W31589   9.330  18.081  10.885 -0.2225 -0.1076  0.0827
13386W        W31590  17.046   6.992  10.825 -0.2715  0.0062  0.0961
13387W        W31591  12.906   3.573  13.722 -0.0206  0.1864  0.0962
13388W        W31592  11.330   2.604   4.249 -0.1068 -0.1584  0.1952
13389W        W31593  12.274   8.635   1.306 -0.0424 -0.0957  0.0230
13390W        W31594   3.593   8.155   0.703  0.0107 -0.3725  0.0409
13391W        W31595   4.568   2.675   3.619  0.1799 -0.1195  0.0956
13392W        W31596  12.685   5.906   1.666  0.1415  0.0490 -0.1930
13393W        W31597  10.400  18.434  13.585  0.5611  0.2361  0.1565
13394W        W31598  10.874  11.323  12.844  0.0317 -0.0423  0.2600
13395W        W31599   5.059  10.108   0.977 -0.0603  0.1057 -0.2121
13396W        W31600  12.763   2.216   4.091 -0.1586  0.1791  0.1892
13397W        W31601  12.044  11.188  11.023  0.0122 -0.0511 -0.1936
13398W        W31602   6.731   5.647   4.557  0.0290  0.0949  0.0264
13399W        W31603  17.995  11.934   3.405 -0.0672 -0.0247  0.1836
13400W        W31604  14.900   7.784   4.209 -0.1802  0.0757 -0.0709
13401W        W31605  12.717  12.769  12.791 -0.1225  0.1129  0.4183
13402W        W31606   6.446  14.113   1.991 -0.1218 -0.0932 -0.0306
13403W        W31607   2.560   2.239   2.874  0.3051  0.0199 -0.0597
13404W        W31608  16.264   5.815   0.804  0.0477  0.3857  0.0541
13405W        W31609  16.210   3.942  13.987  0.0775  0.0281 -0.0628
13406W        W31610  14.187  10.430  11.664 -0.1127 -0.1349 -0.0703
13407W        W31611  17.835   2.334  14.227  0.0323 -0.1133  0.2151
13408W        W31612  18.174   9.984  13.265 -0.2963 -0.1050 -0.3751
13409W        W31613  15.919   7.317   5.129  0.0614  0.1615  0.0558
13410W        W31614   7.895   4.471  12.346 -0.0476  0.0310 -0.1037
13411W        W31615   7.224  14.827  12.296  0.0469 -0.0101 -0.1168
13412W        W31616  12.232  15.204   0.582  0.0428  0.2659 -0.0139
13413W        W31617  13.828  15.231  13.368 -0.3031  0.2871  0.0903
13414W        W31618  10.886   4.368   0.486  0.2495  0.3262  0.4438
13415W        W31619   4.623   2.552   3.068 -0.0150  0.1274 -0.0393
13416W        W31620   7.386   2.113  14.413  0.0089  0.1235  0.0627
13417W        W31621   8.863   8.710   3.850  0.0438 -0.0536 -0.0649
13418W        W31622  10.386  11.018   2.557  0.0160 -0.0389  0.0770
13419W        W31623   8.935   1.452   1.537 -0.0744 -0.2117 -0.2914
13420W        W31624   1.737  17.436   4.414  0.0597 -0.1819  0.1153
13421W        W31625  17.655  12.364  12.815 -0.0227 -0.0897 -0.1505
13422W        W31626   1.732   4.105   2.881 -0.2978  0.1449  0.0785
13423W        W31627  18.846   7.726  11.884  0.2450 -0.0632  0.0104
13424W        W31628  15.199   8.443  12.331 -0.0499  0.1000  0.0571
13425W        W31629   8.417   9.583   4.384  0.1898  0.1433  0.1634
13426W        W31630  11.183  10.147   3.794  0.1153 -0.0859  0.1087
13427W        W31631  14.014   7.858  14.971  0.0345 -0.1367  0.2701
13428W        W31632  10.758   7.308  11.834 -0.0133  0.1390 -0.1898
13429W        W31633  18.711   7.104   4.407  0.0652  0.0712  0.2989
13430W        W31634   3.246   7.556   3.034  0.1359 -0.0680 -0.0094
13431W        W31635   0.967  17.504  13.785 -0.1643  0.0590  0.1025
13432W        W31636   0.411  12.506   0.723 -0.1316 -0.0044 -0.1574
13433W        W31637  16.322  12.224   3.373 -0.1892  0.0631 -0.1198
13434W        W31638   1.359  16.023   2.813 -0.1459 -0.1923  0.1018
13435W        W31639  10.129   1.856  11.383  0.3362 -0.1763 -0.1409
13436W        W31640  12.526  12.572   4.417 -0.1365  0.1695  0.4356
13437W        W31641   3.472  13.944  12.882  0.2108 -0.0530 -0.1937
13438W        W31642  13.250  12.887  14.827 -0.0663 -0.1824  0.2127
13439W        W31643   8.879  10.028   1.756  0.0426 -0.2461 -0.2950
13440W        W31644  11.102   4.053   0.186  0.0427 -0.0724 -0.0917
13441W        W31645  11.304   5.893   3.043 -0.2086 -0.3427  0.0206
13442W        W31646  16.728   4.671   4.096 -0.1918  0.0342 -0.2619
13443W        W31647   5.928  12.955  10.917  0.3160  0.1594 -0.1392
13444W        W31648   6.455  16.533   0.479 -0.1981  0.0306 -0.0047
13445W        W31649   4.433  17.462  12.354 -0.1622 -0.1853  0.0541
13446W        W31650   0.898   7.585  13.403  0.0541  0.2041  0.2072
13447W        W31651  15.732   1.189   4.654  0.3945 -0.0117 -0.0805
13448W        W31652   8.340  12.558  13.698 -0.1828 -0.3086  0.2518
13449W        W31653  16.581   5.191   1.851  0.1672  0.1678 -0.2499
13450W        W31654   6.341   4.858   0.321  0.1846 -0.4008  0.1127
13451W        W31655   7.408   4.967  10.991  0.1367  0.0287  0.1517
13452W        W31656   5.973  16.666  13.923  0.3095 -0.1091 -0.0784
13453W        W31657   5.093  18.688   2.438  0.0734  0.2414  0.1188
13454W        W31658  11.939   1.988   4.361 -0.1141  0.0668 -0.3476
13455W        W31659  18.564  17.592  14.262 -0.3946 -0.2070  0.0562
13456W        W31660  12.016  14.934  13.651 -0.0031 -0.0760  0.0472
13457W        W31661   8.304  16.875  12.438 -0.1471 -0.0790  0.1033
13458W        W31662  15.809  17.886  10.631 -0.2578 -0.0851  0.2287
13459W        W31663   5.829  17.444  14.881  0.1177  0.0646 -0.0297
13460W        W31664   0.426   8.032  10.603  0.1823 -0.3331  0.2654
13461W        W31665   1.423   9.044   3.845 -0.0834 -0.2557 -0.3165
13462W        W31666   4.290   5.692  12.135 -0.1310 -0.0377  0.1282
13463W        W31667   3.907  13.140   4.369 -0.0403  0.0552  0.0050
13464W        W31668   6.469  14.846   3.579 -0.2799 -0.0994  0.0548
13465W        W31669  16.077  16.090  10.703  0.5206  0.2303 -0.1833
13466W        W31670   2.998  12.018  13.634 -0.1200 -0.0720 -0.2834
13467W        W31671  12.171   0.749  10.051  0.0547 -0.0028 -0.1439
13468W        W31672   4.363   7.324  12.799  0.1550  0.0442  0.3053
13469W        W31673  16.403  16.280  10.332  0.0030  0.2269  0.0734
13470W        W31674  18.678  17.979  11.270  0.1478  0.1154 -0.0533
13471W        W31675   8.810   3.739  10.946 -0.1055 -0.0479 -0.0458
13472W        W31676   5.862  12.785   2.236  0.0072 -0.1634 -0.0279
13473W        W31677   8.005   4.510  11.129  0.2728  0.0399 -0.1122
13474W        W31678  10.990  11.992  13.981  0.0158 -0.0799 -0.1215
13475W        W31679  17.709  12.807   2.251 -0.2505  0.1502  0.0992
13476W        W31680   0.086   5.749  11.011 -0.1266  0.0321 -0.1910
13477W        W31681   4.776  12.580   2.864  0.1555 -0.1168  0.0200
13478W        W31682  18.094   4.200  11.663 -0.0683  0.1242 -0.3136
13479W        W31683   0.149   1.638   4.274 -0.0126 -0.2978  0.0094
13480W        W31684  14.484   9.962   2.787  0.3844 -0.2460 -0.1143
13481W        W31685   8.245   6.222  12.752 -0.3207 -0.0176 -0.1826
13482W        W31686   4.388   9.717  11.570 -0.2494  0.1491 -0.3186
13483W        W31687  12.113   9.122  10.998 -0.1728 -0.2201 -0.3414
13484W        W31688  14.083  12.008   3.017  0.3614  0.2174 -0.3828
13485W        W31689   5.884  10.257  14.176  0.2165  0.1455 -0.2336
13486W        W31690  14.492   3.838  11.574  0.0971 -0.3845 -0.4019
13487W        W31691  12.169  10.492  14.659  0.1260  0.0034  0.1975
13488W        W31692  14.514   7.251  12.744  0.0757  0.1679  0.0185
13489W        W31693  15.675   3.183   3.344  0.2503  0.2911 -0.0229
13490W        W31694  15.383   8.773  14.414 -0.0477  0.3691 -0.6363
13491W        W31695   4.060  18.220   0.705 -0.0350  0.3460  0.1979
13492W        W31696  11.748  17.069   3.588  0.2866 -0.2134  0.0919
13493W        W31697   4.102  18.652   2.703  0.0733 -0.0029  0.1097
13494W        W31698   0.005  15.960  10.448 -0.0479  0.0103 -0.3171
13495W        W31699   5.472   8.010  10.249  0.0830 -0.0126 -0.0899
13496W        W31700  17.072   9.931  12.376 -0.1763 -0.2588 -0.0196
13497W        W31701   8.971  13.523   1.336 -0.0996 -0.0615  0.1633
13498W        W31702  18.337   3.410  13.168  0.0500  0.1262 -0.1559
13499W        W31703  15.854  13.323   3.861 -0.4192 -0.1717  0.1505
13500W        W31704   3.147  10.029   0.758  0.5471 -0.2724 -0.1526
13501W        W31705  12.205   0.008  13.177 -0.0865 -0.1346 -0.0246
13502W        W31706   9.149   2.625  12.781  0.2765  0.1835  0.0015
13503W        W31707  12.403   6.971   0.393 -0.1986  0.0174  0.2418
13504W        W31708  15.085   4.846   1.199  0.0008 -0.0523  0.2740
13505W        W31709  14.079  10.262   3.871 -0.0245 -0.2014 -0.1451
13506W        W31710   0.453   5.339   2.938  0.1283 -0.0284  0.2028
13507W        W31711  10.987  16.606  14.647  0.2215  0.2073 -0.2626
13508W        W31712   5.681  11.665  14.134 -0.2179  0.0410  0.0568
13509W        W31713   8.634   3.520  10.330  0.0830  0.2011 -0.1948
13510W        W31714  16.117  15.767   2.937 -0.2474 -0.1445 -0.3100
13511W        W31715   9.329  16.656  13.415 -0.2687 -0.0559 -0.1478
13512W        W31716  11.153  16.818  14.190  0.2858 -0.0103  0.0023
13513W        W31717   5.579   7.615   5.753  0.2683 -0.2477 -0.3858
13514W        W31718  11.818   8.118  14.926 -0.0096 -0.1330  0.2373
13515W        W31719  18.074   8.036   0.597  0.0044  0.0875 -0.3321
13516W        W31720  10.407  17.801   1.291 -0.0944 -0.0507 -0.3001
13517W        W31721  16.575  16.903  13.254 -0.0319 -0.0304  0.2637
13518W        W31722   8.333   7.409   3.285  0.0476 -0.0613  0.2320
13519W        W31723  13.926  16.294   0.413  0.1670 -0.3585 -0.2010
13520W        W31724   7.752  13.875   5.119  0.0571 -0.3373  0.2001
13521W        W31725  14.588  13.388   0.565  0.0649  0.0205  0.1825
13522W        W31726   8.337   5.805  14.310 -0.0971  0.1614  0.0234
13523W        W31727   5.989  18.793  10.947 -0.1809  0.2452  0.0886
13524W        W31728   6.694   2.024  11.425 -0.1960 -0.0192 -0.3630
13525W        W31729  14.397  14.704  10.893  0.1702 -0.1521 -0.1543
13526W        W31730   7.001   7.969   2.488  0.4863  0.1758 -0.0360
13527W        W31731   3.655   4.812   1.357 -0.2017 -0.2937  0.1397
13528W        W31732  16.533  14.095   0.084  0.1531 -0.1566  0.3047
13529W        W31733   2.961   9.592   4.530 -0.0765 -0.2715  0.2454
13530W        W31734  11.120  17.807  14.960  0.2275  0.1151  0.2345
13531W        W31735  16.854  14.712   2.749  0.2789  0.1197 -0.1235
13532W        W31736  10.371  17.788   4.820 -0.0363  0.1416  0.2692
13533W        W31737   1.103   0.201  11.954 -0.1649 -0.2949  0.3208
13534W        W31738   7.752  16.855   0.902 -0.0467  0.2257 -0.1392
13535W        W31739  10.828   5.335   4.385 -0.1295 -0.1011 -0.0225
13536W        W31740  15.230   8.054   3.013  0.0805 -0.1488  0.1283
13537W        W31741  12.309   7.175  11.730  0.0939 -0.3229 -0.0702
13538W        W31742  16.904   7.276  11.647  0.5031 -0.1573  0.0907
13539W        W31743   2.993  16.099   3.348 -0.0600  0.3191 -0.0868
13540W        W31744  13.377  18.936  11.517 -0.3750  0.3659  0.0664
13541W        W31745   3.955   7.495   4.401  0.0391  0.2745 -0.0384
13542W        W31746   9.381  11.150  13.655  0.3178  0.1011  0.1481
13543W        W31747   0.909   2.114   2.560 -0.0149 -0.0223  0.0104
13544W        W31748  10.059   4.985   2.452  0.1072 -0.1042  0.2280
13545W        W31749   1.589  18.038  12.099 -0.1017 -0.4194 -0.0765
13546W        W31750  18.906   1.210  10.968 -0.1995  0.3491  0.0629
13547W        W31751  17.809  13.663  14.132  0.0176  0.0199  0.0161
13548W        W31752   9.348  12.010  11.556 -0.1221  0.0557 -0.0581
13549W        W31753  10.426  12.199  10.899 -0.0025 -0.0975  0.0439
13550W        W31754  12.963   4.456  14.683 -0.1268 -0.2749 -0.0804
13551W        W31755  13.292  11.398  13.658  0.2191  0.0458  0.0727
13552W        W31756   0.950  18.128   0.320 -0.0247  0.2765  0.1466
13553W        W31757   9.410   0.134  13.883 -0.0403  0.0552 -0.1614
13554W        W31758   2.677  17.726  11.185 -0.1082  0.0454 -0.0878
13555W        W31759   9.314   7.447   0.478 -0.0570  0.0072  0.0536
13556W        W31760   5.105  13.063  12.296  0.1203 -0.0998 -0.0575
13557W        W31761  18.368   6.358   0.086  0.2869  0.0236 -0.2285
13558W        W31762  18.950   6.142  11.422 -0.0631  0.0707 -0.1788
13559W        W31763   5.398   1.051   3.670 -0.0084  0.2115  0.2636
13560W        W31764   8.024  16.214  14.851 -0.2211  0.1995 -0.1215
13561W        W31765   7.851  15.314  13.447  0.2211 -0.0508 -0.2687
13562W        W31766   2.159   9.199  11.392 -0.0589  0.2325  0.0093
13563W        W31767   2.959   6.706  14.315 -0.0281 -0.0865  0.0674
13564W        W31768  15.051   7.124  14.879  0.0395  0.0591  0.0725
13565W        W31769   7.289  14.145  10.581 -0.1388 -0.2276  0.3162
13566W        W31770   1.852   8.032  13.434 -0.2765  0.2380  0.2584
13567W        W31771   2.121   1.188  12.688 -0.1331 -0.0362  0.1847
13568W        W31772   8.490  10.881   0.863  0.0016 -0.0597  0.1043
13569W        W31773   8.879   0.886  11.553  0.0801  0.0010  0.1003
13570W        W31774  16.027   4.111  12.253 -0.1562 -0.1627 -0.2108
13571W        W31775   7.421   5.910   4.384 -0.1174 -0.1044 -0.3190
13572W        W31776   3.068   2.073   2.668 -0.1076  0.2921 -0.1701
13573W        W31777  15.355   4.848   1.636  0.1388 -0.0989 -0.5131
13574W        W31778  18.954   2.902   3.687 -0.3377 -0.1761  0.1079
13575W        W31779  13.740   5.394   2.764 -0.3475 -0.1559 -0.0599
13576W        W31780   0.303  12.243  13.808  0.1740  0.0972 -0.0858
13577W        W31781  12.402   3.965  10.329  0.0640 -0.1357  0.2115
13578W        W31782   5.003   7.351   1.900  0.2490 -0.0128 -0.2646
13579W        W31783   2.267  18.877  11.111 -0.3134  0.1422  0.3051
13580W        W31784   2.027  15.526  11.333  0.1743  0.2410 -0.2878
13581W        W31785   9.687  15.005   2.420 -0.3309  0.2122 -0.3047
13582W        W31786  13.724   3.272  12.411  0.0471  0.0478  0.2048
13583W        W31787  13.035   5.970   2.063 -0.2022 -0.1302  0.3845
13584W        W31788   1.461  14.459  13.137  0.2861 -0.0238 -0.0872
13585W        W31789   6.589  17.551   2.765 -0.1721  0.1578 -0.1705
13586W        W31790  13.353   9.467  10.884 -0.2421 -0.2482 -0.4564
13587W        W31791   1.135  14.717  11.888  0.1180  0.0837  0.1424
13588W        W31792   6.352   4.922  14.189 -0.2345 -0.0353  0.0986
13589W        W31793  11.828   1.684  12.467 -0.3238 -0.0517 -0.0572
13590W        W31794  14.125  11.367  12.575  0.1575 -0.0487 -0.1907
13591W        W31795  15.957   9.800   1.107 -0.0400 -0.1037 -0.2187
13592W        W31796  12.359  17.840  11.354  0.0565  0.4644 -0.0197
13593W        W31797   9.263   9.625  11.211  0.1764  0.2692  0.0388
13594W        W31798  14.051   1.756   0.690  0.0384 -0.0519  0.1817
13595W        W31799  14.092  18.241   4.986 -0.1025  0.1422  0.1054
13596W        W31800   2.156  14.229   1.060  0.0628  0.1377  0.4103
13597W        W31801  13.489   1.698   2.594 -0.0625 -0.0309  0.2152
13598W        W31802  17.943  17.042   4.838 -0.0774 -0.1459  0.2713
13599W        W31803   2.415   1.749  10.830  0.0919  0.0756 -0.1391
13600W        W31804   6.043   9.849  11.473  0.0840 -0.0463  0.0697
13601W        W31805  10.384   1.406  10.664  0.3258 -0.3042 -0.1987
13602W        W31806   3.966   7.387   1.269 -0.0957 -0.1835  0.2583
13603W        W31807   9.531   5.199  11.924 -0.2562 -0.3905 -0.1846
13604W        W31808  12.125   3.398   0.813 -0.0939  0.0931  0.2668
13605W        W31809   3.998   9.283  14.132  0.0882  0.0648 -0.2771
13606W        W31810  13.741  13.515  10.615 -0.2467 -0.1710  0.0863
13607W        W31811   0.432  14.529   0.291  0.0512  0.2142  0.1797
13608W        W31812   8.186   2.774   1.053  0.2582  0.1662  0.0270
13609W        W31813   5.640  10.311   2.116  0.2666  0.3134  0.3137
13610W        W31814   0.397  14.083  13.975  0.4272  0.1823 -0.0678
13611W        W31815  17.631  15.530   0.212 -0.2281 -0.0558 -0.0459
13612W        W31816  17.120  17.692  11.297 -0.3300  0.5757  0.0085
13613W        W31817  12.356  18.564   1.740 -0.1161  0.3264  0.0208
13614W        W31818  13.227   3.723  12.480 -0.0150 -0.1635  0.0263
13615W        W31819  11.610  18.847  12.552 -0.1975  0.3036  0.3210
13616W        W31820   2.636  11.469  12.767  0.2030 -0.0378 -0.0919
13617W        W31821   9.188   8.760   1.927  0.1595 -0.2820  0.0452
13618W        W31822   7.998  18.338  11.812  0.1060 -0.1474 -0.1446
13619W        W31823   1.479  10.706  10.865  0.3773 -0.2607 -0.0046
13620W        W31824  13.422   3.466   1.534 -0.1273 -0.1725 -0.0192
13621W        W31825   3.567   7.102   4.282 -0.1670  0.1660  0.3345
13622W        W31826   5.941  13.588   3.846 -0.2906  0.0822  0.0378
13623W        W31827  14.859   5.376  14.232  0.0492  0.1684 -0.2191
13624W        W31828   3.436  10.515  15.010 -0.0218 -0.0204 -0.3948
13625W        W31829  12.694   5.625  14.111  0.0863 -0.0221 -0.0238
13626W        W31830   3.732   7.084   2.196  0.0250  0.0625 -0.1840
13627W        W31831   7.803  14.014   9.880 -0.1560 -0.0435 -0.1532
13628W        W31832  15.849   5.753   1.113  0.1130 -0.0729 -0.0959
13629W        W31833  15.541  10.910   2.341  0.1490 -0.0064 -0.3085
13630W        W31834  15.950   9.669  12.408 -0.0020  0.0378  0.0300
13631W        W31835  11.241  12.880  12.147 -0.3782  0.4093 -0.0072
13632W        W31836  17.414  14.704   0.092 -0.1523 -0.1232 -0.4218
13633W        W31837   3.113   9.241  12.265  0.3632 -0.0038  0.1850
13634W        W31838  10.697   9.935   4.555  0.2611  0.1449 -0.2591
13635W        W31839   0.322   8.182   2.192  0.1579 -0.0525 -0.3116
13636W        W31840   7.628  14.793  10.477 -0.0134  0.0834  0.0595
13637W        W31841  11.063   8.507   1.969 -0.1535 -0.1531 -0.2216
13638W        W31842   3.758  15.009   2.140  0.0120 -0.0868  0.1963
13639W        W31843   9.013  12.985  12.954  0.3503 -0.0117 -0.1444
13640W        W31844   3.383  17.080  10.147 -0.0851 -0.2751  0.1293
13641W        W31845  11.458   3.997  14.798  0.0512 -0.3598 -0.0592
13642W        W31846  15.548  11.451  14.125  0.1503  0.1529 -0.4452
13643W        W31847  18.448  11.093  12.247  0.2399  0.0133 -0.0408
13644W        W31848  15.350  12.397   2.815 -0.2556 -0.2714 -0.0388
13645W        W31849  13.353   5.784   1.227 -0.0055 -0.0204  0.0543
13646W        W31850  10.127  13.560  13.965 -0.0381  0.0779  0.0427
13647W        W31851   1.893   6.106  10.146 -0.0265 -0.2438  0.0656
13648W        W31852   5.020   1.936   1.319  0.1810  0.2813  0.0390
13649W        W31853  18.778  11.333  13.936 -0.0451  0.1205 -0.0000
13650W        W31854   4.103  16.776  10.494 -0.1157  0.2016 -0.0430
13651W        W31855  11.846  16.051  13.970 -0.0432  0.1090  0.1916
13652W        W31856   0.191  17.493   3.691  0.1286 -0.2206  0.0044
13653W        W31857  14.794   2.195   2.856 -0.1969  0.3740 -0.3518
13654W        W31858   9.521   7.799  12.000  0.3967 -0.2471  0.1217
13655W        W31859  13.596  18.907  13.287  0.2490  0.2115  0.1103
13656W        W31860   2.462  12.665  13.086  0.0769  0.0273  0.0583
13657W        W31861   2.437  14.118   0.336 -0.0798  0.0398 -0.0588
13658W        W31862   9.032  10.850   4.002 -0.2098 -0.2215  0.1022
13659W        W31863   4.575  11.845  14.158 -0.1277  0.1169  0.0600
13660W        W31864  10.520   3.198   2.680  0.2518 -0.1092 -0.1957
13661W        W31865  14.051   1.084  13.652  0.0921  0.0993 -0.2088
13662W        W31866   8.408   0.424   5.014  0.2101 -0.0533  0.0488
13663W        W31867   3.680  10.715   1.850 -0.0103 -0.1235  0.1543
13664W        W31868   4.271   7.375  10.961 -0.2212  0.1798 -0.3411
13665W        W31869   0.988  17.520  14.740  0.0173 -0.1835  0.2164
13666W        W31870  14.924  13.186   4.520 -0.1393 -0.2595  0.2043
13667W        W31871   3.776   9.829   1.939 -0.2215  0.2063  0.2998
13668W        W31872  14.451   3.790   2.509  0.2864  0.1136  0.1274
13669W        W31873   9.761   9.532   2.868 -0.1282  0.1134 -0.2537
13670W        W31874  11.762  14.459  13.454  0.1744 -0.1140  0.5030
13671W        W31875  12.065   1.501  11.571 -0.2942  0.1070 -0.2328
13672W        W31876  17.235  18.567  13.823 -0.1528  0.2225  0.1888
13673W        W31877   4.861   6.387  11.586 -0.2976  0.1062  0.1120
13674W        W31878  18.947   9.824  11.811 -0.0019  0.3510 -0.0863
13675W        W31879  10.222  16.280   2.908 -0.0138  0.0203 -0.0589
13676W        W31880   9.965   8.743   1.401 -0.0785 -0.1525 -0.1643
13677W        W31881   5.559  13.939  11.860 -0.2687  0.4218 -0.4506
13678W        W31882   9.839  16.780   3.702 -0.2646  0.1922  0.1769
13679W        W31883   0.157   9.895   0.291  0.0834 -0.1542  0.0848
13680W        W31884   9.350   2.641   1.874  0.1464 -0.1781  0.2089
13681W        W31885  15.897   9.772   9.664  0.4736  0.0094 -0.1618
13682W        W31886  15.618   3.069   2.471 -0.0222  0.1112 -0.1264
13683W        W31887  16.057  18.596   3.717 -0.0293 -0.2090 -0.0272
13684W        W31888   0.726   6.326   1.630 -0.3521 -0.4214  0.0252
13685W        W31889  15.081   6.236   0.559 -0.4060  0.0614 -0.1559
13686W        W31890   0.860   0.741   4.078 -0.0280 -0.0185 -0.2155
13687W        W31891   5.965   7.695   4.160 -0.0601 -0.0108 -0.0089
13688W        W31892  18.165  11.536   3.678 -0.5766  0.0855 -0.2067
13689W        W31893   1.741   4.997   3.574  0.1549 -0.2245 -0.1006
13690W        W31894  15.222   1.721  12.180  0.0939  0.0492 -0.2082
13691W        W31895  17.063  14.657  10.866  0.1264 -0.1577  0.2232
13692W        W31896   5.756   1.772  12.539  0.6292 -0.0974  0.1981
13693W        W31897   3.399  18.808  11.504  0.0739  0.0799 -0.0400
13694W        W31898   3.609   9.854   9.717 -0.0455 -0.1091 -0.1966
13695W        W31899   9.591   7.149   0.809  0.0944 -0.1677 -0.0467
13696W        W31900   0.165   7.990   4.885 -0.3432  0.1227 -0.1935
13697W        W31901  14.404  17.534   3.252  0.1234 -0.1143 -0.1211
13698W        W31902  14.755  11.949   3.878  0.1157 -0.0623 -0.3576
13699W        W31903   5.849  10.082   4.340 -0.3139 -0.2516 -0.2777
13700W        W31904  10.451  15.851  13.241 -0.3567  0.2119 -0.1610
13701W        W31905   8.827   1.953   0.670  0.1132  0.2491 -0.3515
13702W        W31906   2.133  10.688  14.032 -0.0379  0.0349  0.2205
13703W        W31907  14.606   5.124   3.679 -0.2855  0.3126  0.1426
13704W        W31908   1.948   6.858  13.225  0.0253  0.2074 -0.0019
13705W        W31909   2.677   7.780   3.788 -0.0005 -0.1558 -0.1473
13706W        W31910  11.984  10.248  12.908  0.1237 -0.5658  0.1606
13707W        W31911   2.808   7.705  11.329 -0.4156 -0.0340 -0.0194
13708W        W31912   2.314  16.418   2.879  0.0253 -0.0592  0.0140
13709W        W31913  16.262  14.988   2.800 -0.1892  0.1154  0.1040
13710W        W31914  17.081  12.039  13.724  0.1700 -0.1865  0.1296
13711W        W31915   2.235   9.626   1.768 -0.0758  0.2717  0.0080
13712W        W31916   5.401   4.572   1.481  0.0102  0.3332 -0.1913
13713W        W31917  16.295  15.791   1.569 -0.0240 -0.2365  0.3607
13714W        W31918  18.499  18.754   3.008  0.2043  0.0981  0.0176
13715W        W31919  16.794  16.128  12.512 -0.0121  0.0681  0.0004
13716W        W31920   2.573   7.144   2.214  0.0731  0.0113  0.1469
13717W        W31921  12.761   1.076  12.274  0.0403 -0.2978  0.1646
13718W        W31922   2.688  16.821   2.321 -0.0354  0.3120  0.0705
13719W        W31923   2.402   8.800  11.797  0.0284 -0.1220  0.0698
13720W        W31924   7.282  16.558  14.242  0.0081 -0.0404 -0.3421
13721W        W31925  16.433  14.460  12.590 -0.0999  0.0323 -0.1942
13722W        W31926  13.892   1.497  11.066 -0.0570  0.1334 -0.2895
13723W        W31927  18.067  16.272  14.192  0.0651  0.1501 -0.0387
13724W        W31928   5.334   8.550  14.181 -0.1328  0.0591 -0.0100
13725W        W31929  17.349   9.831  11.899  0.3422 -0.1047 -0.3535
13726W        W31930   3.109   5.184  11.315  0.0370  0.0224 -0.0664
13727W        W31931   7.192   9.489  14.409  0.0992 -0.2957  0.0677
13728W        W31932   7.096   6.089  11.405 -0.3939  0.2030  0.2654
13729W        W31933   6.278   1.694   3.250  0.1388  0.2610  0.0602
13730W        W31934   0.768  15.389  11.377  0.0450  0.1251  0.0455
13731W        W31935  11.996  14.432   3.366  0.0608 -0.0894  0.2257
13732W        W31936   9.524  15.871   9.899 -0.1254 -0.1580  0.1482
13733W        W31937  13.394  12.285   0.446 -0.1478  0.2971  0.3027
13734W        W31938   1.787  18.870   4.457  0.1107 -0.1185 -0.0043
13735W        W31939   5.483  16.162   3.672 -0.1561 -0.3182  0.0399
13736W        W31940   1.405   8.199   0.919 -0.0022 -0.0685 -0.1504
13737W        W31941  16.594   8.876  11.560 -0.2481 -0.3707  0.1553
13738W        W31942  16.116  16.476   4.237 -0.0644  0.2419  0.1288
13739W        W31943  12.187   0.004  11.292 -0.1268 -0.2682  0.0393
13740W        W31944  11.901  17.726  11.915  0.3375 -0.2277 -0.0989
13741W        W31945  16.704  15.515   1.342  0.1940 -0.0725 -0.0194
13742W        W31946  12.477   0.169   3.682  0.1844  0.2816 -0.3870
13743W        W31947  13.564   9.282  10.419 -0.0402  0.0800  0.2044
13744W        W31948   9.669  16.931  14.302 -0.0547 -0.0180 -0.1585
13745W        W31949  12.637   0.802   3.013  0.0718  0.1149  0.2215
13746W        W31950  13.154  17.692  14.408  0.1035  0.2187 -0.0691
13747W        W31951   5.673  11.145  11.726 -0.1984 -0.2727 -0.3039
13748W        W31952   2.897  16.916  10.826  0.3876  0.0606  0.0473
13749W        W31953  17.655  16.405  12.632 -0.2526  0.1100  0.0560
13750W        W31954   8.042   6.404  10.649 -0.2860  0.2020 -0.1047
13751W        W31955   3.893   9.920  11.518 -0.1092 -0.4725 -0.2868
13752W        W31956   3.215  10.505  10.846  0.0522  0.0525 -0.1747
13753W        W31957  14.133   9.711  13.132  0.1026 -0.1246 -0.3820
13754W        W31958  18.718  10.549  14.393 -0.1825  0.3669 -0.1588
13755W        W31959   3.562   7.578  14.962  0.0231 -0.0478 -0.2765
13756W        W31960  14.958   4.709   3.611 -0.1242  0.1321  0.2203
13757W        W31961   9.364   8.479   3.729 -0.1981  0.3323 -0.2451
13758W        W31962   5.736  18.666  11.518 -0.0741 -0.3830 -0.1693
13759W        W31963  13.013  10.697  12.170 -0.0845  0.2277  0.1799
13760W        W31964   0.392  16.932  14.002 -0.0130  0.1591  0.3100
13761W        W31965  16.749   7.815  13.821  0.1207  0.1552 -0.1024
13762W        W31966   8.213  14.880  11.528 -0.1431  0.0573 -0.2661
13763W        W31967   9.800   4.925  11.540  0.1540  0.2026  0.1944
13764W        W31968   6.821  17.545   1.370  0.0015  0.1339  0.1112
13765W        W31969   5.645   6.009  11.683  0.0092  0.0400  0.0691
13766W        W31970  14.950  13.754   3.842 -0.5482  0.2384 -0.0703
13767W        W31971  11.464   1.333   0.754 -0.2016  0.0356 -0.0166
13768W        W31972   6.229  13.299  14.097 -0.0650  0.2511 -0.0966
13769W        W31973  11.212  12.226  12.884 -0.1212  0.2489  0.3428
13770W        W31974  17.100   1.045  11.615  0.1531 -0.0102 -0.0511
13771W        W31975   1.203  12.604   2.206  0.3948  0.0806  0.2653
13772W        W31976   5.462   9.495  15.014  0.0130  0.0821 -0.1525
13773W        W31977  11.156  12.075   2.777  0.0930 -0.1927 -0.0334
13774W        W31978   7.759  10.486   1.582 -0.2039 -0.4174 -0.1898
13775W        W31979   5.591   5.711  10.704  0.0759 -0.3874  0.1203
13776W        W31980  15.050   5.208   2.146  0.2071 -0.0491 -0.0161
13777W        W31981   3.382   7.375   2.042  0.2617  0.0554 -0.3025
13778W        W31982  14.950   4.815   4.113 -0.1762  0.3724 -0.0467
13779W        W31983   0.450  15.062   0.102 -0.0049  0.1479 -0.1560
13780W        W31984  17.812   5.715   1.998 -0.1212 -0.1319  0.1021
13781W        W31985  10.843   2.001   3.518 -0.0793  0.2068 -0.1158
13782W        W31986  18.699  17.803   4.199 -0.0785 -0.3259 -0.3984
13783W        W31987  15.437  13.056  13.311 -0.0742 -0.0695  0.1464
13784W        W31988  16.800   9.535  14.635  0.3428  0.1395 -0.4332
13785W        W31989   9.044  13.346  12.595  0.4429 -0.0558 -0.2974
13786W        W31990   7.325   6.380   4.343  0.1308 -0.3686  0.2688
13787W        W31991   5.515  12.339  13.572 -0.1230  0.3268  0.0563
13788W        W31992   0.459   8.855  12.787  0.0818 -0.1829 -0.1932
13789W        W31993   3.531  15.386  14.332  0.1496 -0.3263  0.0954
13790W        W31994  15.298  11.526   4.563  0.2502  0.2119  0.1199
13791W        W31995   5.950   5.501  13.779  0.1253 -0.0413 -0.0372
13792W        W31996  18.785  13.804   0.432  0.0841 -0.0686  0.0865
13793W        W31997   3.724   7.920   0.267  0.0796  0.0415 -0.1837
13794W        W31998  17.457   8.611   4.382  0.3835  0.2313  0.0687
13795W        W31999   8.827   3.867  14.857  0.3696 -0.1994 -0.1193
13796W        W32000   4.093   8.574  15.026  0.2306 -0.3831 -0.0176
13797W        W32001  16.418   2.081   3.441 -0.1881  0.0646 -0.0458
13798W        W32002   9.401  10.347   0.809 -0.2085 -0.0485 -0.1972
13799W        W32003  12.461   9.019  13.481 -0.2439  0.1154 -0.0937
13800W        W32004   5.997   1.439  13.632  0.2366 -0.2901  0.0799
13801W        W32005  10.877   7.899   2.447 -0.0412  0.0669  0.1288
13802W        W32006   2.988   0.449  13.285  0.1492  0.0015 -0.1511
13803W        W32007  18.213   0.934   4.815  0.2290  0.1399 -0.0804
13804W        W32008   6.266  11.657  13.461  0.1426  0.0861  0.3688
13805W        W32009  10.434  17.439   3.355  0.2772 -0.0515  0.3626
13806W        W32010  11.617   3.728  13.098  0.1357  0.2341  0.2089
13807W        W32011   9.487  18.409   1.441  0.2758 -0.3279  0.2579
13808W        W32012   9.717  14.521   1.964 -0.0947 -0.1720  0.1611
13809W        W32013  17.353   6.507  13.020  0.2320 -0.0441  0.2260
13810W        W32014  13.454   3.543  12.115  0.3371 -0.2117 -0.1989
13811W        W32015   1.602  16.890   3.507  0.1061  0.0380 -0.2814
13812W        W32016  13.530   9.903  11.157  0.0913 -0.5536  0.3430
13813W        W32017   9.355   0.208   0.721 -0.0664  0.0141  0.0330
13814W        W32018  16.584   3.863   4.961  0.1641 -0.0543  0.1423
13815W        W32019  16.868  14.723   1.203 -0.1210 -0.0923  0.4515
13816W        W32020  13.277   7.236  13.314 -0.1714 -0.0892  0.1512
13817W        W32021  14.430  16.300  11.703  0.1361 -0.0122  0.3301
13818W        W32022  11.490  14.683   3.561  0.0947 -0.0927 -0.1183
13819W        W32023  11.212  16.750   3.772  0.1533 -0.0215  0.0771
13820W        W32024  10.289   0.070   1.049  0.1657  0.0940 -0.0048
13821W        W32025  13.648  14.326  13.561  0.0051  0.0555  0.0973
13822W        W32026  10.257   7.707   0.792  0.1873  0.0111  0.2618
13823W        W32027   1.662   8.769  13.117  0.2833 -0.2579 -0.1477
13824W        W32028  10.425   4.397  13.297  0.0422  0.0830  0.0137
13825W        W32029  18.165  15.296  13.249 -0.1633  0.2797  0.2669
13826W        W32030   3.163   1.956  12.461 -0.1625 -0.3076 -0.1386
13827W        W32031  15.946   1.838   4.113 -0.0868  0.0658  0.1572
13828W        W32032  15.854   6.657   3.447  0.0851 -0.0857  0.0169
13829W        W32033  14.763   9.946  14.689  0.1613 -0.0045  0.0850
13830W        W32034  11.699   2.242   1.670 -0.0015  0.0182 -0.1319
13831W        W32035  16.309  13.038   2.295  0.1400  0.1277 -0.2095
13832W        W32036   7.003   4.738  12.922  0.1404 -0.0101 -0.1788
13833W        W32037  10.024  14.387  12.958  0.0576 -0.0629  0.3114
13834W        W32038  11.956  11.791  12.623  0.0022  0.3228 -0.0757
13835W        W32039   8.707  15.844   1.836 -0.2382  0.0114 -0.1798
13836W        W32040   6.631  18.329   2.556  0.0364  0.1163  0.2053
13837W        W32041  17.580   0.774  12.315  0.0931  0.0124 -0.2970
13838W        W32042  14.756   8.056  11.039 -0.1791 -0.1198 -0.1366
13839W        W32043   9.486  11.645  13.855 -0.1704  0.0294  0.3122
13840W        W32044  18.422   3.539   0.977  0.2432 -0.1049 -0.3067
13841W        W32045   2.399   0.253  14.219  0.2556 -0.0347  0.0924
13842W        W32046   9.594  14.143  12.933 -0.0975 -0.2656  0.1709
13843W        W32047   0.073   5.652  13.659 -0.2730 -0.0382  0.3538
13844W        W32048   3.194   0.459  14.978 -0.2326 -0.1488 -0.0386
13845W        W32049  10.380  13.360   2.556  0.0182 -0.1065 -0.0905
13846W        W32050   8.664  14.406   2.569 -0.1123 -0.1119  0.1076
13847W        W32051  18.570  11.542  11.986 -0.0482 -0.2547 -0.1475
13848W        W32052   5.164   3.254  14.077 -0.0408  0.0413 -0.0048
13849W        W32053  11.959   4.617   1.758 -0.0128  0.3234 -0.0963
13850W        W32054   5.120   3.796  14.267  0.1675  0.3378  0.1745
13851W        W32055   4.081  14.063   1.987  0.2336 -0.2512 -0.2321
13852W        W32056  16.411   3.248  13.266  0.0285 -0.0961  0.0729
13853W        W32057  16.788  18.277   0.349 -0.0102 -0.2672  0.1634
13854W        W32058   9.203   3.643  13.343 -0.3587  0.1245 -0.2528
13855W        W32059  14.805   5.448  10.370 -0.0260 -0.0088  0.1549
13856W        W32060   6.497   7.537   0.582 -0.3241 -0.0114 -0.0567
13857W        W32061  15.939   1.112  10.684 -0.1135 -0.0730 -0.0881
13858W        W32062   0.535   1.205  14.711  0.1831  0.0266  0.0724
13859W        W32063  17.526  12.889  12.523  0.4490  0.0980 -0.1698
13860W        W32064   7.305   0.131  12.631  0.2618 -0.1963  0.0519
13861W        W32065   8.276  18.363   3.527  0.3688 -0.1794  0.2575
13862W        W32066   7.608  11.141  14.807  0.0946 -0.0573  0.1416
13863W        W32067   2.068   9.097   3.040  0.0886  0.1615  0.0159
13864W        W32068   5.772   5.771  12.899 -0.2000  0.2279  0.2636
13865W        W32069   1.551  11.273   1.731 -0.5130  0.2058  0.0581
13866W        W32070   6.174   8.763   0.131  0.1162  0.0416  0.1695
13867W        W32071   9.077  15.677   0.798  0.5220  0.4159 -0.2041
13868W        W32072   0.612   6.097  14.759  0.0158 -0.1717 -0.1433
13869W        W32073  18.427  12.054   4.045  0.2788 -0.3747 -0.3643
13870W        W32074   0.952  15.641   3.633  0.1437 -0.1630 -0.0666
13871W        W32075  10.356   0.795   2.354 -0.0293 -0.1402 -0.1342
13872W        W32076  15.535  16.936  14.007  0.0856  0.0825 -0.1600
13873W        W32077   9.163  11.413  14.382  0.3472  0.3755 -0.0881
13874W        W32078  16.906  11.406  10.752 -0.1296  0.0582  0.1687
13875W        W32079  18.020   0.887   3.075  0.1694  0.0910  0.0599
13876W        W32080   6.707   2.704   1.878 -0.0509  0.0937 -0.1213
13877W        W32081   5.897  13.429   3.107  0.1411  0.1215  0.3150
13878W        W32082  13.458   2.585   3.628 -0.6474 -0.0763  0.0112
13879W        W32083   9.865  10.038  14.473  0.3300 -0.1822  0.1410
13880W        W32084  16.974   2.769  12.120  0.0182  0.0880  0.1365
13881W        W32085  16.799   4.429  11.023 -0.0733 -0.0329  0.0028
13882W        W32086   0.468   7.804  14.892 -0.0763 -0.3360  0.2683
13883W        W32087   3.696  11.743   0.206  0.2550 -0.4373  0.0049
13884W        W32088   4.460  12.314   3.201  0.3003  0.1314 -0.0894
13885W        W32089  15.064   4.670   2.044  0.1082 -0.0703 -0.2356
13886W        W32090   7.846   9.255  12.633 -0.0399 -0.2713  0.2236
13887W        W32091  14.812  16.564  14.461 -0.0527 -0.3298  0.1089
13888W        W32092   5.004   2.295   3.937 -0.0213 -0.0251 -0.1461
13889W        W32093  12.391  11.102  11.377  0.1366 -0.3383  0.2179
13890W        W32094   0.929  18.385   4.333  0.0428  0.4850 -0.2603
13891W        W32095  10.213   5.756  13.527  0.0947  0.1960  0.0725
13892W        W32096  15.088  18.780  12.214  0.0565  0.3929 -0.1266
13893W        W32097   9.038   7.100  12.729 -0.1959  0.0900  0.2612
13894W        W32098  10.439   5.186   1.440  0.0862 -0.0730  0.4527
13895W        W32099  17.011   4.064  13.145  0.0563 -0.2704  0.2813
13896W        W32100   5.252   1.089   0.658  0.0803 -0.0311  0.0226
13897W        W32101   9.942   8.613  12.499  0.0004 -0.3691  0.2207
13898W        W32102   2.975  15.652   4.672 -0.4533  0.3493  0.0760
13899W        W32103  15.810   6.875   2.580  0.1798  0.5213 -0.0580
13900W        W32104  12.171   8.187   0.524  0.1748 -0.0692  0.0303
13901W        W32105   9.808   9.900   1.131  0.1614  0.1626 -0.0269
13902W        W32106  14.529  15.059  14.978  0.2575 -0.1731  0.2776
13903W        W32107   2.517   3.034   3.413 -0.2772 -0.0345  0.1363
13904W        W32108   0.585  14.830   3.776  0.0948  0.2480 -0.1454
13905W        W32109   4.147   9.859  11.096 -0.0853 -0.1243  0.0661
13906W        W32110   5.632   6.254  14.347  0.0230  0.2656  0.0451
13907W        W32111  16.823   6.467  12.204  0.3733  0.1984 -0.0757
13908W        W32112   6.136  16.985  11.122  0.0051 -0.3119 -0.1602
13909W        W32113  13.449   8.271   1.812  0.2925  0.1761 -0.0586
13910W        W32114   5.789  16.650   3.521 -0.1747  0.0842 -0.0991
13911W        W32115   3.376   4.573   3.533 -0.0951  0.1133 -0.0165
13912W        W32116   5.980   9.328  13.239  0.0121  0.0232  0.0302
13913W        W32117   8.405  18.303  14.022  0.0283 -0.4521 -0.1322
13914W        W32118  17.057   6.905  11.965 -0.0890  0.2177  0.2099
13915W        W32119   7.600  17.706   4.575 -0.0905  0.2303  0.2139
13916W        W32120  16.901   1.126   2.527 -0.0107 -0.0930  0.3254
13917W        W32121   6.681  16.805   1.913 -0.1429  0.2163  0.1393
13918W        W32122   1.415  15.291  11.320  0.1174 -0.3224 -0.0519
13919W        W32123  16.755   8.690   0.735 -0.0457  0.1143 -0.0284
13920W        W32124  12.281   7.621   9.731 -0.4366 -0.0039 -0.4208
13921W        W32125   7.796   8.224   1.840  0.0645 -0.0926  0.0561
13922W        W32126  10.478  14.187  11.628 -0.0693 -0.0971  0.1426
13923W        W32127   0.940  14.293   0.306  0.2028 -0.2037 -0.2354
13924W        W32128  17.092   9.077  10.834 -0.0113  0.2356  0.1054
13925W        W32129   7.673  12.718  12.315  0.0922 -0.4214  0.4340
13926W        W32130  10.537  14.494  13.687  0.0774 -0.2003 -0.1727
13927W        W32131   3.970   9.081  12.103 -0.2905 -0.1794 -0.0157
13928W        W32132  15.067   5.893  14.351 -0.2065 -0.0169 -0.3142
13929W        W32133   3.583  14.298  13.785  0.2208 -0.0046 -0.0786
13930W        W32134  17.275   9.503  14.800 -0.0016  0.0214  0.0377
13931W        W32135   7.058  15.724  13.069 -0.0637  0.0547  0.2560
13932W        W32136   9.014   1.611   1.007 -0.1035 -0.0265 -0.2332
13933W        W32137  17.503   4.106   1.135  0.2285  0.3390  0.1986
13934W        W32138  12.372  17.168  13.944 -0.0729  0.2592  0.1518
13935W        W32139   8.112   9.803  12.656  0.0491 -0.2953 -0.1249
13936W        W32140   6.711   9.564   4.409 -0.2079  0.4873  0.0415
13937W        W32141   7.073  15.244   1.526 -0.0249  0.3543 -0.2616
13938W        W32142   2.919   9.603  12.560  0.0210 -0.3190 -0.2351
13939W        W32143   9.706   4.192  11.349  0.2000 -0.1532  0.0898
13940W        W32144  10.301  10.143   4.847 -0.1294  0.2551  0.2501
13941W        W32145  10.173  17.467  12.655  0.3031  0.1842  0.0410
13942W        W32146  16.276   8.881   4.038  0.2134 -0.0637  0.1408
13943W        W32147  18.333  12.091   1.526 -0.0398  0.1972 -0.0087
13944W        W32148   6.684   7.065  12.688 -0.0778 -0.0175 -0.1895
13945W        W32149   3.099  13.892  10.575 -0.0924  0.2860  0.1379
13946W        W32150  13.185   6.902   0.927  0.2625 -0.4618 -0.0176
13947W        W32151  11.290  14.359  14.468 -0.0249 -0.1111  0.2680
13948W        W32152  15.660   2.505   2.862 -0.1718 -0.0295 -0.1414
13949W        W32153   2.250  11.932   1.847 -0.2019 -0.3700  0.0010
13950W        W32154   6.074   7.147  11.066 -0.0868 -0.1865 -0.3163
13951W        W32155  14.914   6.732  11.193 -0.0898  0.0477  0.0890
13952W        W32156  18.450   3.058   3.194  0.2008 -0.3363  0.2044
13953W        W32157   5.788  11.375   1.512  0.1492 -0.3341 -0.2246
13954W        W32158   6.007  14.649  12.873 -0.1575 -0.0648 -0.0734
13955W        W32159   2.438   6.715   2.469 -0.4064  0.0564  0.1794
13956W        W32160   1.024   0.001  11.461  0.0945  0.0737  0.2983
13957W        W32161  12.257   7.040  13.729 -0.2856  0.2665 -0.2090
13958W        W32162   0.732  17.427   3.604  0.3318 -0.2704 -0.0211
13959W        W32163  14.667  15.582   9.933  0.2337  0.3424  0.2217
13960W        W32164   2.943   8.612   2.925 -0.2973 -0.0207 -0.0039
13961W        W32165  13.691   3.137   3.674 -0.1708  0.2748  0.1232
13962W        W32166  15.102   9.771   1.800 -0.1039 -0.2921  0.0103
13963W        W32167   7.337  15.535  14.224 -0.0854  0.1235  0.3181
13964W        W32168  16.436  17.449  11.158 -0.0263 -0.0248 -0.1929
13965W        W32169   9.531   5.509   3.299 -0.0044 -0.4002  0.1769
13966W        W32170   9.871  11.757   2.111 -0.1650 -0.0607 -0.1185
13967W        W32171  16.830  16.643  13.984  0.0792 -0.0874  0.0257
13968W        W32172  17.875   4.857  13.085  0.1596 -0.0467  0.1725
13969W        W32173   2.673   5.013   4.725 -0.0413 -0.1712 -0.0639
13970W        W32174  13.371  14.098   3.999 -0.1083  0.1363 -0.0628
13971W        W32175   3.091  10.369   4.151  0.1364  0.3190 -0.0579
13972W        W32176  15.452   0.059   1.508  0.0857  0.1999 -0.3004
13973W        W32177  16.571   7.813  14.689 -0.3067  0.1525 -0.4811
13974W        W32178   6.609   7.153  10.685 -0.1568  0.1868 -0.0085
13975W        W32179   9.377   1.045  13.605  0.1729 -0.0436 -0.3098
13976W        W32180  15.820   5.366   3.806 -0.1686  0.0662  0.2801
13977W        W32181  16.402   4.297   2.124 -0.0960  0.0172  0.0204
13978W        W32182   0.790   1.653   3.319  0.0169  0.1835  0.0947
13979W        W32183   9.702  15.672   0.213  0.2266  0.2138  0.0735
13980W        W32184  15.152  11.047  14.744  0.0494 -0.0723 -0.0765
13981W        W32185  12.801   2.348   0.877 -0.0296 -0.0341  0.1898
13982W        W32186   2.838   5.266  12.380 -0.0032  0.2878  0.0252
13983W        W32187  14.517  11.631  11.312 -0.0584  0.5472  0.2596
13984W        W32188   6.551   4.304  13.371 -0.0831 -0.0511  0.0457
13985W        W32189   4.212   8.654   1.871  0.0435  0.0028 -0.0258
13986W        W32190   7.410  15.729   4.091 -0.1751  0.1344  0.1791
13987W        W32191  18.782  13.777  14.414 -0.1079 -0.2490 -0.4194
13988W        W32192  14.176  13.935  12.034  0.0638 -0.0370 -0.0727
13989W        W32193   0.422  11.204  12.222 -0.0135  0.0195  0.1186
13990W        W32194   2.033  14.423   4.121 -0.1651  0.1041 -0.2981
13991W        W32195   6.751  16.391   2.182  0.0307  0.0490 -0.0592
13992W        W32196   4.415   5.661  11.657  0.0841  0.0299 -0.1196
13993W        W32197   8.664  18.288   3.965 -0.0850  0.2407 -0.4044
13994W        W32198  18.408   3.840   0.316  0.1235  0.0793 -0.1551
13995W        W32199   5.532   8.496  14.636  0.3913  0.2528  0.0982
13996W        W32200   6.720   3.000   1.003 -0.0576  0.0847  0.1608
13997W        W32201   9.336   4.449   1.553  0.0621 -0.0492  0.1295
13998W        W32202  17.192   4.350  10.730 -0.2256  0.0174  0.2045
13999W        W32203  14.630  10.741  12.630  0.2939 -0.1778 -0.2030
14000W        W32204   2.228   8.614  14.158  0.1594 -0.1407 -0.0299
14001W        W32205   9.075   3.520   0.421  0.1003 -0.0079  0.4737
14002W        W32206  15.020   0.089  11.046 -0.1813 -0.1367 -0.1836
14003W        W32207  13.799  13.171  12.613 -0.1160  0.1694  0.0269
14004W        W32208  13.515   8.938   0.015  0.2811 -0.1394 -0.2493
14005W        W32209  11.283  18.691  10.992 -0.1219 -0.3020  0.0515
14006W        W32210  10.209  18.458  11.771 -0.0483  0.2514 -0.0824
14007W        W32211   7.079   6.883  12.972 -0.1875 -0.1310  0.3360
14008W        W32212   7.123  11.318  13.032  0.3094 -0.1719  0.1661
14009W        W32213   8.789  14.705  13.441 -0.1198 -0.0088 -0.2337
14010W        W32214   0.850   4.303  14.047  0.0217  0.1792  0.1198
14011W        W32215  11.916   4.463   2.218 -0.1984 -0.2714  0.0494
14012W        W32216   6.690  15.698  12.676  0.1284  0.3076 -0.2995
14013W        W32217   0.586   3.327   2.326  0.0042 -0.3549 -0.5328
14014W        W32218  10.277   8.297   4.746 -0.2415 -0.0060 -0.0626
14015W        W32219   7.979   3.507   5.442  0.0681 -0.1754 -0.2170
14016W        W32220   8.336  17.394  12.577  0.1304  0.1636 -0.2613
14017W        W32221   9.104  15.053  14.478 -0.0825  0.3475  0.3938
14018W        W32222  12.138   5.661  15.021 -0.4058 -0.1961  0.1102
14019W        W32223   7.456  15.775   2.604 -0.1099 -0.4076  0.2165
14020W        W32224   5.548   0.687   2.362  0.2114  0.0628  0.1267
14021W        W32225   1.267   5.578  11.301  0.1714  0.1384  0.2070
14022W        W32226  11.372   3.153  14.115  0.0808 -0.2986  0.0363
14023W        W32227   9.173  12.617   3.803 -0.1159  0.1762 -0.4496
14024W        W32228   4.968   7.689  10.720  0.0675  0.0105 -0.2304
14025W        W32229  14.118   8.947   2.536  0.1454  0.0870 -0.1429
14026W        W32230  16.428  13.884  11.052  0.1210 -0.1519  0.4013
14027W        W32231   6.094   9.893   2.849 -0.1149  0.0645 -0.2306
14028W        W32232  17.686  16.439  10.992 -0.2844  0.1503  0.1950
14029W        W32233  17.696  12.448  12.304  0.0933 -0.0625  0.0459
14030W        W32234  10.585   6.790  10.359  0.1323 -0.1665 -0.0880
14031W        W32235  18.645  12.775  14.454 -0.0030  0.0596 -0.1880
14032W        W32236   7.696  18.379  13.770  0.2396 -0.4969  0.0796
14033W        W32237  14.555  15.543  13.654  0.1993  0.0611 -0.1563
14034W        W32238   1.549   2.091  12.560  0.2174  0.0478  0.2846
14035W        W32239  17.877  16.405  13.170  0.1357 -0.0116  0.0335
14036W        W32240   0.038  13.412  13.471  0.2305 -0.0676  0.0911
14037W        W32241  10.174  17.713  11.863  0.1159  0.2130  0.2197
14038W        W32242   4.333  15.737  14.216  0.0527  0.0654 -0.0697
14039W        W32243   7.648  13.118  11.310 -0.0534  0.1971 -0.2923
14040W        W32244  17.625   3.614   3.250 -0.1212 -0.1629 -0.0613
14041W        W32245   4.609  15.135   2.709 -0.0376 -0.2677 -0.0797
14042W        W32246   7.273  15.344   0.582  0.2083 -0.1690 -0.1252
14043W        W32247  15.256   1.893   1.291 -0.2536 -0.1710 -0.0095
14044W        W32248   4.245  12.318  14.366 -0.3599 -0.3162 -0.2281
14045W        W32249  11.565  13.267   1.240  0.0942  0.1605  0.1573
14046W        W32250  17.854   0.541   4.445  0.0486  0.0521 -0.2459
14047W        W32251  18.268  18.015  13.597 -0.2017  0.0733 -0.4421
14048W        W32252  14.017   6.056   1.980 -0.1321 -0.2552  0.0356
14049W        W32253   1.503  11.215   3.294 -0.0545  0.0630 -0.0371
14050W        W32254   9.583  15.025   4.953  0.1958 -0.0185 -0.4807
14051W        W32255   5.304  10.190   3.069 -0.0167  0.0321  0.2034
14052W        W32256  15.474   7.386   5.310 -0.1425 -0.1158  0.1929
14053W        W32257   0.225  17.667   0.848 -0.1267  0.0068 -0.0256
14054W        W32258   7.229  15.658  14.723 -0.1436  0.1902 -0.0317
14055W        W32259   5.265   3.755  12.094  0.0569  0.2890  0.0855
14056W        W32260  11.792   0.165  11.573  0.0187 -0.0127 -0.0921
14057W        W32261  16.018   1.214   1.546 -0.4251  0.0508 -0.1754
14058W        W32262   5.698  14.222  14.691 -0.0660  0.0140 -0.2097
14059W        W32263  10.714   4.842  14.793  0.0315  0.0894 -0.0715
14060W        W32264  15.080  16.858  11.436  0.0485  0.1837 -0.1835
14061W        W32265   1.728   1.457  10.760  0.1880  0.0240  0.1543
14062W        W32266  13.349  11.688  10.940  0.2899  0.0356  0.0814
14063W        W32267  13.982  12.535   3.974  0.0864 -0.0022 -0.0874
14064W        W32268  10.336  10.419  12.835  0.3886 -0.1821  0.1021
14065W        W32269   5.073   7.459   4.316  0.2745 -0.0472  0.0930
14066W        W32270   3.882   8.781   4.546 -0.1090 -0.4452  0.1955
14067W        W32271  14.756   0.141   0.488 -0.2165 -0.0843 -0.0479
14068W        W32272  17.564   1.808  12.742  0.1483 -0.3228  0.1135
14069W        W32273  17.732   9.801  12.968  0.0110  0.3106  0.1235
14070W        W32274  10.799   4.625  13.782  0.2745  0.3711 -0.4864
14071W        W32275   5.053   9.221   0.624  0.2483  0.0760  0.3550
14072W        W32276   4.472   2.427   1.275 -0.1476  0.0806 -0.0848
14073W        W32277   4.574   8.561   3.956 -0.0083 -0.2129 -0.1033
14074W        W32278  11.890   5.159   2.496  0.0596 -0.4056 -0.0211
14075W        W32279   9.697  17.780   1.400 -0.0122 -0.2104 -0.0697
14076W        W32280  11.966   4.004   9.554 -0.2291  0.3263  0.0465
14077W        W32281   0.917   6.351   5.470 -0.0104  0.0279 -0.0743
14078W        W32282  17.303   8.781   5.255  0.2284 -0.0634 -0.0696
14079W        W32283   8.623   6.878   4.489  0.1776 -0.3150  0.0240
14080W        W32284  15.433  14.260   2.718  0.2125 -0.1031  0.0553
14081W        W32285  18.033  12.890   4.003  0.1889 -0.0221 -0.3680
14082W        W32286   7.105   3.380   0.908  0.0524 -0.2263 -0.0655
14083W        W32287   3.864  14.497   1.040  0.0575  0.0231  0.0374
14084W        W32288   4.902   3.363   1.609  0.0592 -0.1705 -0.1402
14085W        W32289  13.242   4.425  11.755 -0.0955 -0.1658 -0.2179
14086W        W32290  13.202  10.646   1.461  0.1197 -0.0415 -0.0925
14087W        W32291  16.744   3.768   0.975 -0.1494 -0.0934 -0.0962
14088W        W32292  14.866   5.989  13.425 -0.1842 -0.1944 -0.3276
14089W        W32293   7.061   9.446   3.100  0.0895  0.0273  0.0725
14090W        W32294  11.369   2.935  10.414  0.3312 -0.1197 -0.1506
14091W        W32295   6.278   6.695  11.482 -0.2280 -0.0370  0.3137
14092W        W32296   0.770  11.772  10.346 -0.0246 -0.0344 -0.2163
14093W        W32297   3.214   7.300   4.563 -0.1435  0.1197 -0.2395
14094W        W32298   5.079   5.448  14.946  0.1761 -0.0773 -0.0720
14095W        W32299   0.222  17.029  10.016 -0.1719  0.0259  0.1529
14096W        W32300   1.384  17.909  14.192 -0.1726  0.0519 -0.0461
14097W        W32301  12.004  15.940   0.766  0.1377  0.0525  0.3801
14098W        W32302  12.104   3.019  10.374 -0.2205  0.0673  0.1514
14099W        W32303  11.975   8.671  12.481 -0.1468  0.3729  0.0573
14100W        W32304  11.142   4.891   0.033  0.1181  0.0316 -0.1711
14101W        W32305   6.758   0.302   2.184  0.1665  0.2368  0.2147
14102W        W32306  11.993   3.825  12.798  0.1854  0.1143  0.0430
14103W        W32307   9.142   8.863   0.457 -0.0882  0.1021  0.3185
14104W        W32308   1.583   8.009  14.305 -0.2975  0.4100  0.0670
14105W        W32309  10.618  14.105   3.904 -0.1211  0.1552 -0.4099
14106W        W32310   0.014   8.685  10.843 -0.0931  0.0704  0.0876
14107W        W32311   1.126   9.129  12.243 -0.1244  0.2325 -0.1330
14108W        W32312  13.661   3.901   3.896  0.0767 -0.0654 -0.0653
14109W        W32313  15.776  18.027  11.615  0.0084  0.0207 -0.1196
14110W        W32314  18.954  15.585  12.690  0.1613 -0.2143 -0.1477
14111W        W32315   8.895  11.410  12.895 -0.0751 -0.4622  0.0200
14112W        W32316   5.618   6.848  11.739 -0.1183 -0.1081  0.1934
14113W        W32317   4.482   6.549   9.892 -0.2914  0.1407  0.0905
14114W        W32318   9.257  15.228   2.587 -0.0544  0.0811  0.2075
14115W        W32319  17.959  12.839   1.785  0.1790 -0.2054  0.0393
14116W        W32320   1.446  16.544  14.573 -0.0007 -0.0147 -0.0178
14117W        W32321  16.949   8.838  11.228 -0.1416  0.2272 -0.0759
14118W        W32322   8.185   5.017   2.799 -0.2308 -0.0620 -0.3386
14119W        W32323   0.010   3.242   0.035  0.2274  0.2698  0.2324
14120W        W32324  18.061   9.538  12.650 -0.2374 -0.1599 -0.0075
14121W        W32325   6.812   4.564   5.243 -0.3088  0.3685  0.0840
14122W        W32326  16.660  14.806  12.311  0.1553 -0.0114 -0.0023
14123W        W32327  13.273   5.863  11.926 -0.2162  0.0239 -0.0682
14124W        W32328   6.489  10.615   2.431  0.0619 -0.1683  0.3346
14125W        W32329   9.367   5.578  12.379 -0.0501  0.0619 -0.0855
14126W        W32330  17.548   2.361   1.677 -0.0167  0.0474 -0.1007
14127W        W32331  11.925   1.053  11.336 -0.1252  0.0895  0.1287
14128W        W32332  10.496   1.659   2.251  0.2212 -0.1295 -0.3111
14129W        W32333  18.066  13.170   1.042  0.0968 -0.2049 -0.0243
14130W        W32334   7.758   8.107  11.193 -0.0678 -0.3214 -0.1046
14131W        W32335   2.828   9.284   0.308  0.2036  0.1185 -0.1995
14132W        W32336  14.268   4.706   2.688  0.0205 -0.3235  0.0661
14133W        W32337  16.547   4.041  14.928 -0.1330 -0.0846 -0.1645
14134W        W32338  13.731  15.874   2.483  0.0262  0.3472 -0.1130
14135W        W32339  11.242  10.367  12.027 -0.1345  0.0180 -0.2530
14136W        W32340  13.751   7.441  14.699 -0.0849  0.0039  0.1144
14137W        W32341  18.523   2.723  13.900 -0.2275 -0.1191  0.2549
14138W        W32342   3.281   6.834  11.761 -0.2901 -0.0500 -0.3470
14139W        W32343   4.707  11.633   2.735 -0.0713  0.1014  0.0260
14140W        W32344   5.021   7.284   1.397  0.0640  0.0721  0.1463
14141W        W32345   0.210   9.142   4.368 -0.0481 -0.0652  0.2698
14142W        W32346   5.689  17.271   4.959  0.4874 -0.0414  0.2804
14143W        W32347  13.496   6.238  12.434  0.0725 -0.0887 -0.0021
14144W        W32348  14.661   5.539   4.510 -0.3173 -0.0038  0.1563
14145W        W32349   3.242   1.943  14.439 -0.1757 -0.0539 -0.5867
14146W        W32350  11.541   8.784   3.279  0.1680 -0.2744 -0.3798
14147W        W32351   0.941   5.085   2.830 -0.0109 -0.4109  0.0625
14148W        W32352  14.562  15.657   0.841  0.2551  0.1861  0.0127
14149W        W32353   8.821   0.129   1.503  0.2460 -0.1740 -0.3012
14150W        W32354   6.259  13.111   2.961 -0.0395  0.2649  0.2002
14151W        W32355  10.103  14.404   3.675  0.2733 -0.1362 -0.0546
14152W        W32356   7.872  16.353   4.458 -0.0994  0.3641 -0.1819
14153W        W32357   5.254  10.588   4.087  0.0283 -0.0334 -0.3448
14154W        W32358  15.822  12.401   0.026  0.1102  0.0686  0.4145
14155W        W32359  13.543   2.729  14.393  0.2983 -0.0122 -0.1642
14156W        W32360  11.165  16.450   2.798  0.1859 -0.0023 -0.2240
14157W        W32361  15.253   0.833   0.035  0.3634  0.0923  0.2360
14158W        W32362   9.854  16.293   0.304  0.1788  0.1192 -0.0319
14159W        W32363   8.211   0.698  12.736 -0.0003  0.0997  0.2181
14160W        W32364  17.809   2.944  12.768 -0.0432 -0.2031  0.0838
14161W        W32365  14.967   1.819   4.126 -0.2079  0.0592  0.2378
14162W        W32366   3.499  17.025   4.950  0.0787  0.2264 -0.1692
14163W        W32367  17.172   2.659  13.035  0.4058  0.0474  0.1024
14164W        W32368  18.030   1.193  13.318 -0.2922  0.0133  0.1982
14165W        W32369   7.393  13.099   0.123 -0.1205  0.2109  0.4699
14166W        W32370   5.261   6.726   0.204 -0.2871  0.0859 -0.4094
14167W        W32371   8.703   0.817  12.950 -0.0584 -0.2822 -0.1957
14168W        W32372   4.914   0.838   0.304 -0.1931 -0.1787  0.1604
14169W        W32373  16.852   2.704  10.408  0.0818 -0.1341  0.2566
14170W        W32374  12.663  16.252   2.074  0.0699 -0.1077 -0.2800
14171W        W32375   7.241   3.015   0.187  0.3958 -0.1475  0.0720
14172W        W32376  18.811  12.628   2.299  0.0774 -0.1160 -0.0352
14173W        W32377   5.825   6.960   4.669  0.0174  0.0113 -0.0919
14174W        W32378  11.808  13.767   3.498 -0.2321 -0.4622  0.2688
14175W        W32379  13.500  18.946   4.814  0.0447 -0.3099  0.4595
14176W        W32380   7.467  15.909  13.256 -0.0327 -0.0580 -0.1974
14177W        W32381   5.257   1.176   4.991  0.2012  0.0941 -0.4426
14178W        W32382   0.249   9.271  12.595  0.0395  0.2690  0.2347
14179W        W32383   7.873  12.091   4.268  0.3405 -0.2794  0.0037
14180W        W32384  14.276  18.899   2.744 -0.1538 -0.0965  0.1337
14181W        W32385   2.217  16.910  13.662  0.2508  0.0182  0.1468
14182W        W32386   0.536   7.682   3.262  0.0149  0.2711  0.3624
14183W        W32387  11.596   4.686   4.225 -0.1237  0.1218 -0.2706
14184W        W32388   5.122  18.464  14.657  0.1581 -0.0611 -0.0278
14185W        W32389  13.938   4.784  12.898  0.1985  0.1793 -0.2842
14186W        W32390   5.200   4.367  11.068  0.0994  0.0682  0.0626
14187W        W32391  16.154  13.756  13.770  0.0875  0.2799 -0.1744
14188W        W32392   8.799   2.590  13.100  0.2166 -0.0437  0.1407
14189W        W32393   6.038  11.663  11.985 -0.2942 -0.6695 -0.6650
14190W        W32394  12.027   1.617   2.863 -0.0289  0.3217  0.1192
14191W        W32395  18.875  12.669   0.829  0.2244 -0.1525  0.0980
14192W        W32396  15.482  17.625   1.646  0.2382  0.1970 -0.0357
14193W        W32397   9.730  15.564   5.618  0.1370 -0.2580 -0.2352
14194W        W32398  15.228  12.226  12.907  0.0646  0.1145  0.1548
14195W        W32399   8.125   8.313  11.516  0.0317 -0.2875  0.1818
14196W        W32400   4.860  10.785   3.318 -0.0549 -0.1301 -0.1099
14197W        W32401  18.603  17.583  11.733 -0.1493  0.0883  0.3277
14198W        W32402   4.154  10.813   2.770 -0.1580  0.2929  0.2558
14199W        W32403  12.763  15.207  10.773  0.0725  0.1028 -0.2265
14200W        W32404  10.424   1.949  12.751 -0.0964 -0.1285 -0.1833
14201W        W32405   8.193  13.763  12.972 -0.0111 -0.1703  0.0631
14202W        W32406   4.295   8.456  10.338 -0.2008 -0.0265 -0.2456
14203W        W32407  10.768  11.863  10.966 -0.1153 -0.1136  0.2281
14204W        W32408  16.089  18.632   0.044 -0.0239  0.1685 -0.0771
14205W        W32409   8.010  10.376   4.042  0.0226 -0.0156  0.0855
14206W        W32410   9.972   9.813   3.895  0.0389 -0.2302  0.0980
14207W        W32411   6.447   1.747   2.790 -0.3755 -0.0245 -0.1379
14208W        W32412   4.496   9.423  10.837 -0.3115 -0.1984 -0.1617
14209W        W32413  16.066   4.587   0.066 -0.0654  0.0536  0.0853
14210W        W32414   3.219  12.354  12.944 -0.3490  0.2892  0.1302
14211W        W32415   2.397   8.832  12.850 -0.3088  0.1517  0.2111
14212W        W32416   8.780   1.812   4.525 -0.1728  0.1064  0.0999
14213W        W32417  16.491   9.427  11.594 -0.0269 -0.2364 -0.1982
14214W        W32418   6.817  12.943  11.914 -0.0020  0.1025 -0.2836
14215W        W32419  14.105   6.299   0.280 -0.1138 -0.0794  0.1913
14216W        W32420   1.537  17.259   1.171  0.0544  0.2935 -0.0667
14217W        W32421   0.467  14.054  12.900  0.3768  0.0089 -0.2106
14218W        W32422  15.715   8.095  11.014 -0.1489  0.0870  0.3343
14219W        W32423  14.104  16.167   1.312  0.3580  0.1845 -0.3210
14220W        W32424   9.475   2.108   3.912  0.1061 -0.1093 -0.1208
14221W        W32425   2.930   7.963   1.916 -0.2139  0.4409  0.0884
14222W        W32426  13.875  14.934   4.162  0.0480  0.3178 -0.1816
14223W        W32427  17.155   3.765  12.310  0.1054 -0.0550  0.2066
14224W        W32428   4.956   5.469  11.463 -0.1418  0.0262 -0.2702
14225W        W32429  18.679  17.834   0.891 -0.3327  0.0973 -0.0192
14226W        W32430   6.672   6.377  10.929  0.0642 -0.0750 -0.2602
14227W        W32431  11.786   2.925   4.186 -0.2280 -0.4323  0.0840
14228W        W32432  11.335   5.043   3.874 -0.1754 -0.0069  0.0886
14229W        W32433   7.044  15.585   1.974 -0.0105  0.0251  0.1097
14230W        W32434   0.212  14.301  11.337  0.1126  0.0590 -0.0356
14231W        W32435   8.437   9.380   1.261 -0.0876 -0.1661 -0.0869
14232W        W32436  15.980  13.490  12.786 -0.4518  0.2332  0.1752
14233W        W32437  14.124   5.370   3.823  0.0951 -0.0540  0.2988
14234W        W32438  10.913  15.883  14.116  0.1496 -0.0173  0.0221
14235W        W32439   8.174   3.322  12.343  0.1415  0.1952  0.2327
14236W        W32440  15.838  15.752  13.759 -0.2272 -0.2209  0.0323
14237W        W32441  14.183  14.309  13.363 -0.1724 -0.0101 -0.0552
14238W        W32442   6.740   1.667   1.670 -0.1265  0.0055 -0.0985
14239W        W32443  14.971  14.499   2.614 -0.1366  0.0888  0.2973
14240W        W32444   6.116   7.219  11.524 -0.1136 -0.0855 -0.2649
14241W        W32445   3.674   8.358   4.376  0.0213 -0.0799 -0.2215
14242W        W32446   3.256   2.703   3.784  0.0335  0.2141  0.1038
14243W        W32447   9.142   9.521  14.706 -0.0998 -0.0531 -0.1790
14244W        W32448  18.723   3.210  10.683 -0.3491 -0.0774  0.1059
14245W        W32449  12.627  17.869  10.717 -0.0256  0.2018 -0.0535
14246W        W32450  16.130  14.257   2.342 -0.1095 -0.0106  0.0028
14247W        W32451  17.549  17.956  14.022  0.0498 -0.1304 -0.2978
14248W        W32452   4.410   0.404   0.919  0.1843 -0.0239  0.2542
14249W        W32453   6.763   1.083  14.595  0.2439  0.0351  0.0416
14250W        W32454  11.235  18.229   2.988 -0.0695 -0.2366  0.0374
14251W        W32455   0.500  17.696   1.394  0.1198  0.0129 -0.0610
14252W        W32456   2.778   6.439   1.322  0.0723 -0.1676 -0.3366
14253W        W32457   1.614   7.847   2.916 -0.1522  0.1490 -0.0949
14254W        W32458  11.685   0.267   1.172 -0.0206 -0.2051  0.1405
14255W        W32459   3.343  13.404  12.754 -0.1810 -0.3038 -0.1495
14256W        W32460  11.275  11.928  11.009 -0.1047  0.0148 -0.0275
14257W        W32461  11.165   3.694  11.822 -0.1616 -0.0839 -0.2197
14258W        W32462  18.351   0.253   2.182 -0.0449 -0.0470 -0.3373
14259W        W32463   4.325   9.543  12.765 -0.0851 -0.0434 -0.0705
14260W        W32464  17.056  15.909  12.879  0.0524  0.0501 -0.0554
14261W        W32465  15.503   0.327   4.270 -0.1098  0.0441 -0.1261
14262W        W32466  17.522  18.417  13.439 -0.0055  0.0279  0.1906
14263W        W32467   6.415  16.404   3.973  0.0308  0.2038  0.0814
14264W        W32468  12.367  18.618   3.673 -0.1155 -0.1524 -0.3608
14265W        W32469   0.103  12.672  14.215 -0.2206  0.0580  0.0552
14266W        W32470  15.082  16.822   1.170  0.1077 -0.1765  0.0310
14267W        W32471   9.263   8.562  11.497 -0.3336 -0.0137 -0.0390
14268W        W32472  16.438  11.858  14.161 -0.2341 -0.0356 -0.3644
14269W        W32473   9.906   6.921   0.435  0.2638  0.1812 -0.1201
14270W        W32474   4.297   4.792  14.989  0.2787  0.1548  0.4453
14271W        W32475  15.410  16.460  11.455 -0.0939 -0.3035 -0.0957
14272W        W32476  15.599   3.844  13.004 -0.1747  0.0727 -0.1050
14273W        W32477   5.262  13.356  11.316  0.0688  0.2112  0.0161
14274W        W32478  11.375  11.155   3.914 -0.2262 -0.1912  0.0584
14275W        W32479  18.678  18.249   0.063 -0.2168 -0.1291 -0.0143
14276W        W32480   3.600  16.434   0.926  0.0556 -0.3310 -0.0994
14277W        W32481  10.800  12.498   4.562  0.1751 -0.1444 -0.1647
14278W        W32482  17.156  17.026  10.700  0.0770 -0.0955  0.1260
14279W        W32483  13.548  13.395   4.665 -0.3173  0.0658 -0.1917
14280W        W32484   6.350  13.918  12.726 -0.1812 -0.0868 -0.2326
14281W        W32485  13.342   8.737  10.813 -0.0784  0.0823  0.0970
14282W        W32486  13.958  18.001   3.190 -0.1362 -0.1702  0.0097
14283W        W32487   6.209   1.388   4.216  0.0201 -0.1782  0.0095
14284W        W32488  18.910   6.389  15.012  0.2247 -0.1338  0.0628
14285W        W32489  16.671  13.396  12.421 -0.1682 -0.0150 -0.0992
14286W        W32490  13.609   2.852  12.189 -0.0943 -0.0370 -0.1847
14287W        W32491   2.676   4.902   0.006 -0.0566 -0.1510  0.1332
14288W        W32492   6.914   0.667  13.793 -0.0506 -0.0244  0.0614
14289W        W32493   3.316   4.349  11.086  0.1050 -0.0948 -0.2820
14290W        W32494   7.418   5.754  11.230  0.0978 -0.1535  0.0369
14291W        W32495   9.687  15.549   3.401 -0.1266 -0.1239  0.0517
14292W        W32496  11.309  18.409   0.878  0.1683 -0.1069 -0.0338
14293W        W32497  15.245  10.941   4.138 -0.0075 -0.0051 -0.2167
14294W        W32498  13.757   9.450   0.022  0.2911  0.0820 -0.1180
14295W        W32499  16.711  18.698  14.593  0.0282 -0.3646 -0.2544
14296W        W32500   3.733  12.606   1.045  0.0289 -0.1441  0.0953
14297W        W32501   2.050  12.424  13.382  0.1886 -0.0436 -0.3842
14298W        W32502  18.067  16.853  13.356  0.1809 -0.1893  0.3221
14299W        W32503  14.318   1.091  14.150 -0.1482 -0.1317 -0.3187
14300W        W32504   0.228  13.630  13.928  0.2147 -0.1706  0.2796
14301W        W32505   6.143  10.453   1.429 -0.0496 -0.0987 -0.0726
14302W        W32506   5.457   8.189   4.983 -0.1982 -0.1963 -0.1776
14303W        W32507  11.182  10.451  14.328  0.4513 -0.0147  0.2553
14304W        W32508  15.302   3.630   0.691  0.0054  0.0873  0.1068
14305W        W32509   0.972   9.493  10.883  0.2607 -0.0197  0.0019
14306W        W32510  12.191   4.883   3.935 -0.1819  0.5991  0.2848
14307W        W32511   3.240   1.568  12.164 -0.2182  0.2687 -0.0935
14308W        W32512  14.042  17.188   0.953  0.0968  0.0112  0.1889
14309W        W32513   8.136  10.164   2.944  0.0994 -0.1629  0.1746
14310W        W32514   6.358  12.965  11.656 -0.0134 -0.3816  0.2786
14311W        W32515   4.362   3.904  13.747 -0.0231 -0.0336 -0.1704
14312W        W32516  10.114  18.560  13.151  0.1834 -0.3310  0.2638
14313W        W32517  18.563  18.244   2.409  0.0331 -0.2358 -0.3126
14314W        W32518  17.135   3.789   2.037  0.0521 -0.1720  0.0064
14315W        W32519  13.834  18.649  11.438 -0.2364  0.0328 -0.0753
14316W        W32520  15.422   6.096  13.468  0.2813  0.3253  0.0074
14317W        W32521  18.200  13.054  14.331 -0.1145  0.3431 -0.1855
14318W        W32522  16.615   2.489   1.074  0.0749 -0.2172 -0.0474
14319W        W32523   7.279  12.601  14.574 -0.2031  0.1327 -0.4949
14320W        W32524  15.688  13.366  10.912 -0.1163 -0.0459  0.1024
14321W        W32525  16.719  17.593  12.646 -0.2840  0.0708 -0.2121
14322W        W32526   7.508  11.326  14.355  0.1455 -0.5295  0.2165
14323W        W32527   8.415   8.189   4.533 -0.1586  0.0997 -0.0306
14324W        W32528   5.621   5.809  13.406 -0.0791 -0.0249 -0.2336
14325W        W32529  13.036  15.625  13.808  0.1411 -0.2791  0.1351
14326W        W32530   6.903   5.818   3.867 -0.0848 -0.3005 -0.1644
14327W        W32531  15.337   3.335  10.819 -0.2688 -0.4024  0.0235
14328W        W32532   9.384   3.758   3.802  0.2596  0.1433 -0.2801
14329W        W32533   3.895  11.473  13.588 -0.1183 -0.3153 -0.0245
14330W        W32534  17.885  11.457   2.491  0.0134 -0.1980 -0.0564
14331W        W32535  18.358  14.681   4.532  0.1869 -0.1266  0.0231
14332W        W32536  16.183  14.899   3.752  0.0672 -0.0909 -0.1509
14333W        W32537  18.574   4.581   0.808 -0.0045  0.2619 -0.1002
14334W        W32538   2.077  11.968   4.068  0.0185  0.1106 -0.1844
14335W        W32539  10.689   1.010   3.586 -0.1107 -0.0462 -0.0567
14336W        W32540   6.965   2.905  14.811  0.2656 -0.1392 -0.0776
14337W        W32541   2.693  14.621  13.101 -0.1394 -0.0781  0.3532
14338W        W32542  14.376  12.570  14.057  0.0078  0.3409 -0.0607
14339W        W32543   4.013  16.874   0.324 -0.0423 -0.0187  0.1676
14340W        W32544   2.860   3.032   3.908 -0.4037 -0.2761 -0.1204
14341W        W32545   7.304   4.254   2.341 -0.3467 -0.2291  0.2146
14342W        W32546  12.481   2.592  12.096 -0.3522  0.2701 -0.1873
14343W        W32547  10.524   3.504   0.496 -0.0090  0.0737  0.1645
14344W        W32548   7.357   9.618   3.969 -0.1297 -0.1285  0.0648
14345W        W32549   5.166   9.692  12.191  0.1338 -0.2075  0.1239
14346W        W32550   3.171  13.554  13.201 -0.3965 -0.0885 -0.0686
14347W        W32551  15.888   1.758  14.397  0.0466  0.1526 -0.0071
14348W        W32552  16.315  14.379  11.182 -0.1219  0.1941 -0.2357
14349W        W32553   2.109   4.617   2.010 -0.1551 -0.2938  0.1223
14350W        W32554  15.742   9.101   1.389 -0.2339  0.0507  0.0302
14351W        W32555  15.182   2.476   2.696 -0.0080 -0.2409 -0.0345
14352W        W32556   0.180  16.614  11.942 -0.0139 -0.2457  0.0029
14353W        W32557   0.509  18.134  11.495  0.1347  0.0029  0.4117
14354W        W32558   6.307   6.975   2.462 -0.0751  0.0168  0.4628
14355W        W32559   9.399   8.142   4.112 -0.0366  0.1281 -0.0130
14356W        W32560   2.655  10.265  10.685  0.0546 -0.2972  0.1752
14357W        W32561  18.219  17.878  11.565  0.1177 -0.0213 -0.2570
14358W        W32562  12.013   4.378   3.980  0.0136  0.0072  0.0174
14359W        W32563   0.677   8.921  12.278  0.1960 -0.3053 -0.1089
14360W        W32564   9.503  10.038   3.696 -0.0448  0.0806 -0.0630
14361W        W32565  12.983  10.806   0.746 -0.1647  0.0678 -0.1287
14362W        W32566   0.885   4.185   4.169  0.1811 -0.1461 -0.1011
14363W        W32567  12.723   7.250   3.627  0.2338 -0.2444  0.0819
14364W        W32568   7.983  11.526   2.163  0.0116  0.0323 -0.1682
14365W        W32569   7.742   2.908   4.824 -0.1409  0.2411  0.2133
14366W        W32570  14.175   0.511   2.925  0.0752 -0.0386  0.2109
14367W        W32571  10.751  18.423   2.950  0.2854  0.0824  0.0040
14368W        W32572   8.300   2.698  13.612  0.1944 -0.3764  0.1272
14369W        W32573  17.864  13.186   3.282 -0.0504 -0.3707  0.2450
14370W        W32574  11.628   6.180   1.392  0.0877  0.2456 -0.3851
14371W        W32575   5.513   3.821  13.452  0.1704  0.0441  0.0673
14372W        W32576  13.390   6.544   3.444 -0.2701  0.2621  0.2045
14373W        W32577  11.304  16.888   1.783 -0.0380 -0.0038 -0.3226
14374W        W32578   5.028  10.032  10.692 -0.1886  0.0954  0.2420
14375W        W32579  14.428  12.534   0.685  0.1816 -0.1876  0.1384
14376W        W32580   8.321  16.975  14.899  0.2072 -0.0712  0.0483
14377W        W32581   8.934  15.845  13.362  0.0024 -0.0707  0.0763
14378W        W32582   3.513   2.400  14.428  0.0433  0.1136 -0.1815
14379W        W32583  13.212  16.999   0.724  0.3327  0.1000 -0.1089
14380W        W32584   7.165   0.115   2.356 -0.2016  0.0575  0.1075
14381W        W32585  11.601   6.956   4.331 -0.0429  0.0956 -0.0210
14382W        W32586  13.100   5.980  10.522 -0.2205 -0.1533  0.2572
14383W        W32587  16.879  16.886  11.079 -0.0873  0.0528 -0.0515
14384W        W32588   1.518  17.713  10.409 -0.1555 -0.0375  0.0909
14385W        W32589  13.063   7.645  12.094 -0.2289 -0.2147  0.3031
14386W        W32590  10.375   2.517  14.083 -0.0400 -0.1213  0.0456
14387W        W32591   6.312  15.744  14.654  0.5028  0.1447 -0.0719
14388W        W32592  14.689  15.239   4.228  0.0174 -0.2133 -0.0678
14389W        W32593  13.224   3.756  13.335  0.1839 -0.1042  0.1702
14390W        W32594  16.005   2.186  13.489  0.1150  0.1200 -0.2539
14391W        W32595  14.114  13.461  14.204 -0.2690 -0.1909 -0.0099
14392W        W32596   2.364   7.966   0.386  0.5633  0.2947  0.0666
14393W        W32597   9.041   8.357   5.072 -0.1729 -0.2539  0.0830
14394W        W32598   8.412  10.453   3.775  0.0670 -0.2774  0.3105
14395W        W32599  16.992  14.225  12.554 -0.0897 -0.0481  0.1543
14396W        W32600  16.270  15.172   0.708 -0.0297 -0.0266 -0.2799
14397W        W32601  11.779  11.597   2.403 -0.1305  0.0243  0.1905
14398W        W32602   8.355  15.326  11.546  0.1354 -0.0817  0.0844
14399W        W32603  11.415  10.876   0.999  0.1785 -0.1204  0.0787
14400W        W32604  16.138   1.691   3.077 -0.3453 -0.0838 -0.0269
14401W        W32605   4.927  13.410  10.965 -0.1376 -0.0920 -0.1944
14402W        W32606   2.115   0.668  14.074 -0.0917  0.2310 -0.0564
14403W        W32607   1.684   9.013   2.266 -0.0830 -0.2324 -0.0570
14404W        W32608  16.812  12.306   4.170 -0.0333  0.0753  0.2643
14405W        W32609  12.799  14.755   3.365  0.0570 -0.0938  0.0727
14406W        W32610   4.414   5.652  13.899  0.2216 -0.2591 -0.0754
14407W        W32611  13.740  13.376   2.216  0.0544  0.1224 -0.1371
14408W        W32612  18.231  15.372   3.428 -0.4537 -0.1725  0.2050
14409W        W32613   5.325   3.817   0.149  0.3464 -0.0488  0.1237
14410W        W32614  14.157  11.327  14.885 -0.2273 -0.0719  0.1112
14411W        W32615  13.325  15.188   2.076  0.1634  0.2148 -0.0136
14412W        W32616   5.068   2.611   3.532 -0.2209  0.1254 -0.1582
14413W        W32617  13.446   4.000  14.934  0.0972 -0.0470 -0.2142
14414W        W32618   3.534  16.649   2.444  0.1335 -0.0104 -0.1397
14415W        W32619   8.278  16.372   2.408 -0.2966  0.1063  0.0626
14416W        W32620   0.328   7.150   3.138  0.2185  0.0130 -0.0755
14417W        W32621  14.691   7.624   1.772  0.0538 -0.2546  0.1550
14418W        W32622   1.832  16.013  13.970  0.1480  0.1618 -0.0682
14419W        W32623   4.095   5.769   3.310 -0.1439  0.2863 -0.0302
14420W        W32624   4.199   2.990  11.628  0.2201  0.0529 -0.1808
14421W        W32625   7.432   0.392  13.964  0.0873 -0.2936  0.3658
14422W        W32626  16.084  16.149   0.078 -0.0777 -0.0393 -0.1153
14423W        W32627  14.902   2.865   4.279 -0.0950  0.3012  0.3542
14424W        W32628   6.431  10.904   1.978 -0.1510  0.1317  0.0944
14425W        W32629  14.249   7.765   0.858  0.1847  0.2467  0.5172
14426W        W32630  13.577   3.611   5.358 -0.0680  0.2825  0.1100
14427W        W32631   1.182   8.778   4.598 -0.0429 -0.0894  0.0829
14428W        W32632  11.888  13.220  12.533 -0.0481  0.1845 -0.1989
14429W        W32633  15.796  12.188   2.014 -0.0283 -0.1882 -0.1604
14430W        W32634  15.751  10.613   3.684 -0.2708  0.2198  0.1899
14431W        W32635  17.047   1.371  14.615 -0.0286  0.1132  0.1512
14432W        W32636   8.843   5.591  15.029 -0.0077  0.1685  0.0177
14433W        W32637   9.984   2.151  12.868  0.1128  0.1137  0.0221
14434W        W32638   6.375  14.812  14.137  0.0821 -0.2019  0.0482
14435W        W32639  10.376  13.991   3.153  0.0627  0.1065  0.0619
14436W        W32640  16.980  16.037   0.729 -0.2485 -0.1557 -0.2408
14437W        W32641   1.989  17.948   0.428 -0.1309 -0.2823 -0.2709
14438W        W32642  16.034   1.497   0.091 -0.2757  0.0836  0.1377
14439W        W32643   6.408   4.023   4.531  0.0959 -0.1636  0.0712
14440W        W32644   1.617   5.321  13.326 -0.1029  0.3222 -0.1512
14441W        W32645   3.875  12.936  13.471 -0.2118  0.2016  0.0822
14442W        W32646   0.131  18.928   5.491 -0.0778  0.0638  0.0648
14443W        W32647  15.131   2.079  12.614 -0.0464 -0.1163 -0.2311
14444W        W32648   2.695  16.625  14.586 -0.2439 -0.1403  0.2223
14445W        W32649  17.432   1.740  13.271  0.2329  0.0248  0.1674
14446W        W32650  17.765   9.157  12.340  0.0683  0.0952 -0.2624
14447W        W32651   1.429  12.156  10.946  0.1246 -0.1261  0.1723
14448W        W32652   5.953  17.937  11.285  0.0449 -0.0225 -0.2125
14449W        W32653   8.390  14.896   5.406  0.0681  0.2632  0.0735
14450W        W32654   1.500  15.880   3.796 -0.0717  0.0896 -0.2354
14451W        W32655  14.102   6.036   1.505  0.3690 -0.0812  0.0954
14452W        W32656  17.980  14.926   2.515 -0.1234  0.0539  0.2081
14453W        W32657  18.716  15.172   3.584  0.0195  0.1414  0.2705
14454W        W32658   0.295   5.778  11.513 -0.0514  0.2674 -0.0714
14455W        W32659  13.565  14.246   2.167  0.0398  0.1685 -0.1019
14456W        W32660   2.560   8.301   0.729 -0.0492 -0.1509  0.0534
14457W        W32661   9.289   9.185   2.671  0.3611 -0.1120 -0.1069
14458W        W32662  17.282  12.229   4.942 -0.2053 -0.0707 -0.2206
14459W        W32663  12.883   5.779  11.377 -0.0513  0.0083  0.0537
14460W        W32664   3.015  12.588   1.132  0.1472  0.1153  0.0358
14461W        W32665   9.877  17.413   2.015  0.1463 -0.0540 -0.2515
14462W        W32666   6.816   3.674  12.934 -0.1257  0.0401  0.1373
14463W        W32667   4.842   4.415   1.867  0.3285  0.3875  0.1963
14464W        W32668  12.675  12.631  10.385  0.0710  0.2495  0.0632
14465W        W32669   8.816   8.015   3.164 -0.1145  0.0055 -0.1904
14466W        W32670  17.640   1.722  14.107 -0.0398  0.1636 -0.0130
14467W        W32671  12.027   1.224  13.687 -0.1605 -0.0641  0.1692
14468W        W32672   2.149   0.847  11.202  0.2923  0.0076  0.0201
14469W        W32673   8.798  11.189  12.404 -0.0338  0.0884 -0.2024
14470W        W32674  14.169   9.376   5.161 -0.0718  0.3454 -0.0482
14471W        W32675  16.323  14.025   1.044 -0.0899  0.0387  0.1852
14472W        W32676  15.296   4.275  11.854  0.1704  0.0253 -0.1203
14473W        W32677   2.961  13.504  11.573  0.0285 -0.0009  0.1623
14474W        W32678  15.978  17.618  11.391 -0.1873  0.1135 -0.2306
14475W        W32679   6.698   0.404   1.393  0.6807  0.0575  0.1418
14476W        W32680   4.829   4.232  14.452  0.0850  0.3780 -0.0916
14477W        W32681   4.076   4.740   0.998 -0.3084  0.0169  0.5818
14478W        W32682   5.891   2.382  14.857 -0.0138  0.1393 -0.1786
14479W        W32683  11.185  18.427   4.521 -0.3690  0.3236 -0.0279
14480W        W32684  17.980   7.597  11.564  0.2802 -0.0747 -0.1675
14481W        W32685  17.172  15.476  13.573 -0.0422 -0.3601 -0.0482
14482W        W32686  12.632  11.824  13.373  0.1474 -0.0898  0.3424
14483W        W32687   1.300   7.170   2.899 -0.2181  0.1493 -0.0863
14484W        W32688  17.409  17.540   3.447  0.2689 -0.1908  0.0087
14485W        W32689   1.114  10.501   4.272  0.1489  0.2065  0.1383
14486W        W32690  16.894   7.544  14.265  0.1682  0.0759 -0.0160
14487W        W32691   0.769  12.002   4.477  0.3873 -0.0164  0.1229
14488W        W32692  18.232  17.161  12.979  0.2398 -0.4668  0.0138
14489W        W32693  17.184   5.706  11.448  0.0131  0.1490 -0.1745
14490W        W32694   2.029   0.529  11.730  0.0737 -0.1303 -0.0267
14491W        W32695  14.485  14.401  14.212  0.1876 -0.0702 -0.1982
14492W        W32696  18.319  18.670  10.823  0.3663  0.0483 -0.0307
14493W        W32697   9.743   7.046  11.007  0.0871  0.1782 -0.2923
14494W        W32698   3.471  17.972  14.836  0.1251 -0.0453  0.2455
14495W        W32699  10.704  18.711   1.058  0.0310 -0.1160  0.0006
14496W        W32700  11.674   6.837  11.003  0.2289  0.2744 -0.2158
14497W        W32701   7.671  16.008   2.100 -0.1092 -0.0189 -0.0897
14498W        W32702   2.980  13.655  11.094 -0.1165 -0.1157 -0.1724
14499W        W32703   9.651  18.088  12.394  0.1548  0.0666  0.0839
14500W        W32704  18.214  16.298   2.632  0.1851 -0.0193  0.1391
14501W        W32705   8.253   8.741  14.958  0.0652 -0.1946  0.2443
14502W        W32706   2.380   4.298  13.439  0.0382  0.4179 -0.0992
14503W        W32707  13.095   0.314   0.884 -0.0037 -0.0005 -0.2706
14504W        W32708   6.659   3.749   4.191 -0.0602 -0.0110  0.4346
14505W        W32709  11.275   3.511   2.191 -0.1550 -0.0221  0.0916
14506W        W32710  11.886   1.042   0.622  0.1213  0.0446 -0.1213
14507W        W32711   2.898   7.533   2.118  0.1254 -0.1210  0.0521
14508W        W32712  10.025   9.893   1.804  0.0838 -0.4881 -0.3387
14509W        W32713   3.926  13.823   1.518  0.3014  0.0443 -0.0753
14510W        W32714  13.857   2.696   2.278  0.3626  0.0714  0.1209
14511W        W32715  16.270   8.995   2.627  0.2358 -0.1087  0.0531
14512W        W32716   1.969   2.800   2.073  0.0443  0.0477 -0.0527
14513W        W32717   1.946  11.437  10.982 -0.0797  0.3334  0.0201
14514W        W32718  13.617   8.430  13.901 -0.0042 -0.1866  0.4244
14515W        W32719  11.757   5.752   4.102 -0.0615  0.1238 -0.2032
14516W        W32720   4.820   8.451  13.494 -0.0902 -0.2736 -0.0433
14517W        W32721  17.072  11.841  13.201  0.2773 -0.0027  0.0478
14518W        W32722   6.774   1.500  14.332 -0.1561  0.4665  0.2172
14519W        W32723   1.390   9.246  13.945  0.1288 -0.2829  0.0134
14520W        W32724  10.307   1.757   3.613 -0.0638  0.0281 -0.1565
14521W        W32725   3.056  12.543   2.226  0.4059  0.5077 -0.1023
14522W        W32726   1.865  12.569  13.844  0.0205 -0.0772  0.1508
14523W        W32727  12.960   5.462  10.547 -0.0168 -0.1111  0.0485
14524W        W32728   2.946  10.277  14.223 -0.0951  0.1955  0.2136
14525W        W32729  15.898  14.871  11.362  0.0872 -0.1487  0.0273
14526W        W32730   8.164  14.560   1.770 -0.1084 -0.1793 -0.1062
14527W        W32731   8.493  14.338  14.029  0.0176 -0.2468  0.1483
14528W        W32732   1.580   1.678   0.809 -0.1066  0.0576  0.2154
14529W        W32733  13.328   7.909   3.117 -0.2516 -0.0049  0.1033
14530W        W32734   8.275   3.983   4.519  0.1476  0.0854  0.0231
14531W        W32735  16.940  14.944  13.676 -0.1078 -0.0311 -0.1160
14532W        W32736  10.164  11.590   1.441 -0.0259  0.1014  0.0261
14533W        W32737  16.597   1.304  14.355  0.0914  0.2665  0.0292
14534W        W32738  17.982   3.802  11.269  0.0086 -0.0635 -0.0512
14535W        W32739  16.111   1.568   2.590 -0.0845 -0.0791 -0.0009
14536W        W32740  14.322   2.429  14.189  0.0064  0.0138 -0.0789
14537W        W32741   1.047   3.740   1.938  0.1598  0.0649  0.2189
14538W        W32742   9.091   5.289   1.807  0.1352  0.0089 -0.1747
14539W        W32743   4.404   9.302  11.872  0.3590 -0.1349  0.1428
14540W        W32744   8.361   5.717   0.656 -0.1498  0.1688  0.1469
14541W        W32745   7.998  14.057   1.186  0.2576 -0.0715  0.1630
14542W        W32746  15.709  15.023   2.999 -0.0329 -0.2061 -0.0385
14543W        W32747  15.232  14.938  12.558 -0.0245 -0.1217 -0.1415
14544W        W32748   0.017  10.565   0.738  0.2085 -0.0877 -0.1059
14545W        W32749   4.723  17.823   2.440  0.0094  0.0586  0.0770
14546W        W32750   4.001  11.426  11.172 -0.0549 -0.1007 -0.0242
14547W        W32751  12.849  17.100   2.043 -0.0290 -0.1157 -0.3280
14548W        W32752  13.776  13.181   1.783  0.3047  0.0931  0.2854
14549W        W32753  17.299   2.173  11.061  0.0095  0.0068 -0.1044
14550W        W32754  12.584  16.774  14.545 -0.0148 -0.1688  0.1747
14551W        W32755  15.836  13.063   2.485  0.1119 -0.0262  0.0385
14552W        W32756   5.858  15.946  12.001  0.1648  0.0658 -0.2203
14553W        W32757  12.316   9.287   2.856 -0.0624  0.2489  0.0230
14554W        W32758   6.448   7.515  11.028 -0.1975  0.2234  0.3025
14555W        W32759   2.519   9.828  12.837  0.0836 -0.0232 -0.0932
14556W        W32760   3.633   9.270   0.694  0.1846  0.1418 -0.1325
14557W        W32761   0.678   2.910  13.159 -0.3348  0.1039 -0.1829
14558W        W32762   2.118   1.017   0.719 -0.1447  0.2070 -0.1746
14559W        W32763  16.219   7.354   1.802 -0.0769 -0.0937  0.0902
14560W        W32764   2.613  13.146  12.770 -0.0117  0.3212  0.0619
14561W        W32765  17.606   0.234   1.129 -0.2456 -0.2642  0.1111
14562W        W32766   9.889   1.507  12.071  0.0004  0.0751  0.0945
14563W        W32767   2.811  10.157  13.231 -0.0383 -0.1793 -0.0303
14564W        W32768  11.415  15.394   3.671 -0.0286 -0.5281 -0.1946
14565W        W32769   1.354   4.383   2.656 -0.1506  0.3045 -0.0528
14566W        W32770  14.669  16.965   2.837  0.0997  0.1668  0.1006
14567W        W32771  15.455  15.959  14.171 -0.0401 -0.1633 -0.3126
14568W        W32772   9.076   4.849  14.285  0.1321  0.1681 -0.1814
14569W        W32773  12.929   1.577  13.214 -0.1291 -0.2176 -0.5905
14570W        W32774  12.420   8.477   0.130 -0.1259  0.1855 -0.2996
14571W        W32775   2.516  10.441   4.985  0.1764  0.2861  0.2339
14572W        W32776   7.183   3.628  11.483  0.0691 -0.1978  0.2126
14573W        W32777  18.471   3.336   1.907 -0.2889  0.0493  0.1188
14574W        W32778   9.276   0.247  13.215 -0.2122  0.1449  0.2338
14575W        W32779  16.152   7.250  13.759  0.2737 -0.1093  0.2310
14576W        W32780   1.408   7.416   0.879 -0.2023  0.0951  0.0474
14577W        W32781   1.813  15.352   3.862  0.2743  0.3004  0.0867
14578W        W32782  10.753   4.682   3.546  0.2313 -0.1451  0.2532
14579W        W32783  15.309   0.033   2.035 -0.1436 -0.2216 -0.1076
14580W        W32784  18.198  18.287   2.786  0.2218  0.0190 -0.1238
14581W        W32785  11.355  18.068   2.433  0.1813 -0.1670  0.1543
14582W        W32786   4.631   4.846  14.128 -0.1567 -0.0713  0.1181
14583W        W32787   2.466   9.901   3.374 -0.1205 -0.1149  0.0682
14584W        W32788  12.870  10.037   2.172  0.1443  0.1070  0.0448
14585W        W32789  14.298   0.731   2.378 -0.1096  0.1717 -0.1404
14586W        W32790   9.282   6.861   1.754 -0.1432 -0.0662 -0.2564
14587W        W32791   3.318  17.479   4.444 -0.0630  0.1393 -0.3638
14588W        W32792  12.401  18.499  11.981 -0.0653  0.2187 -0.1850
14589W        W32793  10.350   9.146  14.718 -0.2110  0.1706 -0.1076
14590W        W32794   6.283  12.054  13.054  0.1875 -0.0691 -0.2088
14591W        W32795   6.950   4.042   3.839  0.1803 -0.3206  0.1067
14592W        W32796   8.250   1.539   1.834 -0.2443 -0.1255 -0.0394
14593W        W32797  14.766  14.797  10.492 -0.1500 -0.1189 -0.1017
14594W        W32798   0.102  17.045  13.192 -0.1186  0.1086  0.1035
14595W        W32799  17.116   1.966  11.510 -0.5731  0.2825 -0.1097
14596W        W32800   9.720   2.974   1.710  0.2931  0.0325 -0.2083
14597W        W32801   5.741   9.670  13.576 -0.2974  0.0113 -0.2110
14598W        W32802   5.988  16.538  10.929  0.0999  0.0523  0.2312
14599W        W32803   8.084   8.088   1.007  0.0790  0.0308  0.0378
14600W        W32804   5.605   4.503  10.872 -0.0250  0.0737 -0.0436
14601W        W32805   7.728   6.355   1.877 -0.2972 -0.3509  0.1708
14602W        W32806  17.162   0.514   0.399  0.1792  0.4782  0.0643
14603W        W32807   1.061  14.973  13.722  0.2513 -0.1980  0.1291
14604W        W32808   5.754   1.296  12.304 -0.0161  0.1939  0.0574
14605W        W32809   6.279  17.193   1.920  0.1226 -0.3654  0.1413
14606W        W32810  14.696   5.836  14.720 -0.1656 -0.4803 -0.2405
14607W        W32811   2.840   7.852   1.073 -0.0311  0.0420  0.1074
14608W        W32812  18.367   1.492  12.572 -0.0736 -0.0857 -0.1015
14609W        W32813  14.636   7.558  11.205 -0.1308 -0.0753  0.5081
14610W        W32814  13.149  10.616  13.763 -0.1438  0.1619 -0.0570
14611W        W32815  11.487   7.012  11.760 -0.1362 -0.0969  0.0892
14612W        W32816   5.244   1.861  14.639 -0.1288 -0.1265  0.0432
14613W        W32817   9.870  15.915  10.875 -0.5542  0.2287  0.0793
14614W        W32818   5.502   4.326   3.411  0.0929  0.0418 -0.0996
14615W        W32819  16.642  17.785   1.942  0.1875 -0.3927  0.0619
14616W        W32820  14.802   1.554   0.764 -0.0139  0.1533 -0.1983
14617W        W32821   7.385  15.115   1.917 -0.1206 -0.0429 -0.2674
14618W        W32822  14.708  17.283  12.733 -0.2069 -0.0675 -0.1890
14619W        W32823  15.808   9.579   1.574  0.0691  0.2703 -0.1821
14620W        W32824   5.487   7.521  11.711 -0.0664  0.2229 -0.0524
14621W        W32825  12.143  11.938  13.229 -0.0495  0.0615  0.1685
14622W        W32826   9.282   0.788   1.936  0.0446 -0.0420  0.0234
14623W        W32827   7.407   6.118   2.201 -0.2571  0.0226 -0.0058
14624W        W32828   2.274  17.550   0.206 -0.3080  0.2409 -0.1586
14625W        W32829   8.482   9.723   3.452 -0.0982  0.0436 -0.0483
14626W        W32830   2.825   1.181   2.929 -0.1846  0.0185  0.3235
14627W        W32831   5.341  11.368  14.502  0.3624 -0.0519 -0.2275
14628W        W32832   2.930   7.746   3.355 -0.1929 -0.0980  0.3395
14629W        W32833  13.284   5.240  12.601 -0.0670 -0.1581  0.3484
14630W        W32834  17.494  11.587   1.269 -0.0201  0.0179 -0.0459
14631W        W32835  14.552   6.275   1.055 -0.0202 -0.0673  0.0092
14632W        W32836  17.004   7.959   1.421  0.1826  0.2845  0.3952
14633W        W32837  13.070  12.651  10.989  0.4448  0.0538 -0.2598
14634W        W32838   8.663  15.895   0.962 -0.1772  0.0138 -0.2677
14635W        W32839  12.180   7.027   0.882 -0.1906 -0.0750  0.3388
14636W        W32840  10.010  15.247  14.452 -0.0691  0.0741 -0.1607
14637W        W32841   1.712  11.631   3.563  0.0522  0.1805 -0.3974
14638W        W32842   0.908   7.023  11.313  0.0580 -0.1083 -0.4026
14639W        W32843   1.153  11.260   2.949 -0.0154  0.0513 -0.0346
14640W        W32844  12.125   6.987   2.502  0.0990 -0.1990 -0.1400
14641W        W32845   8.130   9.007   2.397  0.0727  0.4872  0.1980
14642W        W32846   5.921  16.043  14.908 -0.3094 -0.1123 -0.2933
14643W        W32847  12.069  14.928   1.956 -0.2318  0.0036  0.0104
14644W        W32848  13.261   8.260   1.310  0.1055 -0.4920 -0.0739
14645W        W32849  13.019  15.447  13.240 -0.1101 -0.0427  0.2793
14646W        W32850  12.641   9.839  10.631  0.0224  0.2611 -0.0175
14647W        W32851  14.558  13.045  14.020 -0.3027 -0.1445 -0.0495
14648W        W32852  13.952   4.912  10.667 -0.0345 -0.6935 -0.0052
14649W        W32853  18.794   2.631  13.027 -0.0467 -0.1013 -0.1586
14650W        W32854  12.101  17.067   3.045  0.1007 -0.0466  0.2815
14651W        W32855   8.896  18.406  11.479 -0.2903 -0.1371 -0.2304
14652W        W32856   7.629  13.207   2.929 -0.0901  0.2639 -0.1419
14653W        W32857   6.693   0.217   3.825  0.0927 -0.0873  0.2616
14654W        W32858  11.044   5.651  11.609  0.4512  0.1084  0.1679
14655W        W32859   1.057  15.947   1.923 -0.1349  0.1739 -0.0586
14656W        W32860  14.788   5.452   1.755  0.3919  0.0106 -0.2761
14657W        W32861   6.200   8.842  13.853  0.4284 -0.3153  0.2993
14658W        W32862  12.535   1.069   1.501 -0.0637 -0.0001  0.1486
14659W        W32863  10.528  17.226  11.855 -0.0077  0.0452 -0.2281
14660W        W32864   6.122  10.973   2.339  0.0251 -0.0870 -0.1865
14661W        W32865  11.995   3.695   2.202  0.1250 -0.0687  0.0143
14662W        W32866  15.512   1.338   0.205 -0.0794  0.0949 -0.1349
14663W        W32867  15.699   1.775   0.314 -0.0912 -0.1893 -0.1614
14664W        W32868  18.755  11.577  13.431 -0.0779  0.0532 -0.1289
14665W        W32869  17.178  10.263   1.035 -0.0508  0.0531  0.0866
14666W        W32870  11.946   2.569  13.631 -0.0108 -0.1588  0.0616
14667W        W32871   9.151  17.910  12.513 -0.0251 -0.0401  0.1125
14668W        W32872   4.662   4.280  11.804 -0.2408  0.0301 -0.0743
14669W        W32873  14.501   2.131  13.469 -0.1631  0.0477  0.1697
14670W        W32874  12.905  18.911  10.890 -0.0556  0.0637 -0.0095
14671W        W32875  18.619  13.658   9.549 -0.0442 -0.2808  0.4036
14672W        W32876  14.333  15.513  11.120  0.1394 -0.2116  0.0308
14673W        W32877   2.829  15.948   2.319  0.3535  0.0122  0.0064
14674W        W32878   8.645  12.302   3.185  0.0604 -0.1476 -0.1327
14675W        W32879   9.328  16.997   4.480 -0.1106 -0.1642 -0.0055
14676W        W32880   0.559   2.853   0.829  0.1260 -0.1902  0.0208
14677W        W32881   4.259  18.339   2.271 -0.2194 -0.0820 -0.0685
14678W        W32882  10.339  11.004   3.851 -0.0810  0.0199 -0.5170
14679W        W32883   9.026  14.129   3.897 -0.0621  0.2293 -0.0776
14680W        W32884   7.356   3.187  11.691 -0.2129 -0.1899  0.1172
14681W        W32885   3.350   6.557   1.010  0.0670 -0.0484  0.0276
14682W        W32886   1.921   3.148  11.126  0.1779  0.2629 -0.2475
14683W        W32887   8.133  17.521  13.806 -0.2626 -0.1313  0.0439
14684W        W32888   1.123  16.116  12.160  0.1304 -0.1375  0.3399
14685W        W32889   5.292   0.439  12.143  0.0029  0.2142  0.2340
14686W        W32890  13.185   6.627  11.676  0.0746  0.0904 -0.0800
14687W        W32891   1.175   0.277  12.678  0.0422 -0.0994 -0.1757
14688W        W32892   7.342   1.003   3.658  0.0046 -0.2995 -0.3680
14689W        W32893  13.073   8.093  14.491 -0.1375 -0.0627 -0.2744
14690W        W32894   8.750  18.532   1.839 -0.3775 -0.4056 -0.2769
14691W        W32895   2.606  15.406   9.691  0.0402 -0.2459 -0.0901
14692W        W32896  17.302   2.308  10.312 -0.1304 -0.2524 -0.0405
14693W        W32897  11.445  11.919   0.536  0.1940 -0.0392 -0.0313
14694W        W32898  15.308  12.593  10.982 -0.1771  0.1810  0.4225
14695W        W32899  12.835   9.347   0.728  0.0043  0.3579 -0.0664
14696W        W32900  14.755  16.094  10.857 -0.0815 -0.1897  0.1646
14697W        W32901  13.260   6.293   2.962 -0.2847  0.2594  0.2136
14698W        W32902  15.819   5.915   4.053  0.0259  0.3326  0.2154
14699W        W32903   2.643  14.778  13.700 -0.0389 -0.2474  0.0334
14700W        W32904  13.394  10.893   2.315  0.1806  0.1079  0.1249
14701W        W32905  11.588   7.331  11.055 -0.0741 -0.1852 -0.1061
14702W        W32906   1.495  17.657   3.851  0.3100 -0.1856  0.0047
14703W        W32907  10.283   7.316   2.664  0.0744 -0.4862  0.6601
14704W        W32908  10.626   3.325  13.606  0.0419  0.0309 -0.2193
14705W        W32909   3.950  10.740   1.037  0.0415 -0.3060  0.2277
14706W        W32910  16.969   6.692   3.492 -0.0273  0.0945  0.4301
14707W        W32911  13.927  18.279  12.535 -0.0525  0.0594  0.0874
14708W        W32912   7.495   5.207  12.954 -0.0999 -0.1736  0.0379
14709W        W32913  15.452   2.714   3.325 -0.2132  0.1382  0.1202
14710W        W32914   9.166  10.340  13.775 -0.0053  0.0782 -0.1200
14711W        W32915   0.308   6.755   1.504 -0.0690  0.1824 -0.0263
14712W        W32916   7.313   7.207  12.025  0.2941  0.1155 -0.1449
14713W        W32917   0.828  16.560   0.443 -0.0465 -0.2013 -0.2008
14714W        W32918  18.776   8.613   1.517  0.1314  0.1116 -0.2393
14715W        W32919  11.274   5.956  13.539  0.1152  0.1590 -0.0338
14716W        W32920   5.752   7.760   3.626 -0.1064 -0.3104  0.0858
14717W        W32921  12.980   2.611  13.443 -0.1492 -0.3282  0.5629
14718W        W32922   0.534  11.778  12.927  0.1638 -0.0624 -0.4370
14719W        W32923   1.876  18.862  11.457  0.0007 -0.1605 -0.2932
14720W        W32924  14.566   8.164   3.610  0.0913  0.0248 -0.1608
14721W        W32925   6.310   9.697  13.380 -0.1774  0.2923 -0.0818
14722W        W32926   8.794   5.516  12.094 -0.0911 -0.0846  0.1197
14723W        W32927  15.308   7.960  11.617 -0.1731 -0.4902  0.3750
14724W        W32928  10.329  11.469  10.348  0.2499  0.0779 -0.0370
14725W        W32929   0.527  11.430   0.295  0.1177 -0.0781 -0.0795
14726W        W32930   8.058  17.816  11.160 -0.3004 -0.3753  0.2664
14727W        W32931  13.864   4.667   3.179  0.0323 -0.0883 -0.0395
14728W        W32932   0.900   5.002  14.864  0.5588 -0.0755 -0.1995
14729W        W32933   1.631   8.481  15.013 -0.0836 -0.0278 -0.1656
14730W        W32934  10.857   9.982  11.944 -0.0021  0.3311  0.2339
14731W        W32935  18.937   9.191  10.834 -0.1552  0.1168 -0.0252
14732W        W32936  15.567   5.882  12.684 -0.1988 -0.0668  0.1099
14733W        W32937   6.186   8.351   4.235 -0.0530  0.0242  0.3659
14734W        W32938  16.434   2.956   1.800  0.0010  0.0165 -0.0277
14735W        W32939   3.401  15.660  13.850 -0.0900  0.0386 -0.0236
14736W        W32940   8.742  10.066  13.046 -0.2033  0.2457  0.1106
14737W        W32941   3.790   6.783   1.024 -0.0517  0.0996  0.0970
14738W        W32942   1.795  17.038  12.098 -0.2512 -0.2768 -0.0446
14739W        W32943   2.824   0.978   0.283  0.0350  0.0293  0.0381
14740W        W32944  10.929  18.694   3.496 -0.4457 -0.0987 -0.0570
14741W        W32945  10.830   0.803   2.164 -0.0792 -0.2390 -0.0751
14742W        W32946  17.689  15.512  12.275 -0.0592  0.1760 -0.0404
14743W        W32947  18.186   9.703   2.590 -0.1902 -0.2426 -0.2261
14744W        W32948   1.874   9.353   1.924 -0.1162 -0.2090 -0.0524
14745W        W32949  18.019  13.784   3.260  0.0118  0.1553 -0.1063
14746W        W32950   3.546  16.394  12.109  0.0965 -0.0243 -0.0041
14747W        W32951   4.941  18.716  14.306 -0.1596  0.0373  0.1093
14748W        W32952  17.035  11.313  12.454  0.1550  0.4159  0.0164
14749W        W32953   0.273   6.512   2.815 -0.0079 -0.2044 -0.1232
14750W        W32954  16.695  10.224   9.696  0.0416 -0.3268  0.0568
14751W        W32955   8.987   9.065  14.026 -0.0341  0.4395  0.0951
14752W        W32956  10.636   8.226  13.609 -0.0928 -0.1413 -0.1114
14753W        W32957  12.140  18.721  12.739  0.0239  0.0954 -0.0329
14754W        W32958  10.051   1.849  14.090 -0.1593 -0.1433  0.0708
14755W        W32959   7.678  17.132   9.936 -0.2144  0.1571 -0.3651
14756W        W32960   6.976   3.519   2.727  0.1241 -0.2424  0.2955
14757W        W32961  14.063   6.027   3.126  0.0841  0.1014 -0.0803
14758W        W32962  13.582  11.932   0.748  0.0800  0.3865 -0.0296
14759W        W32963  16.105   5.332  13.321 -0.1462  0.0506 -0.1591
14760W        W32964  12.892   9.636  13.063  0.0506  0.2168  0.2028
14761W        W32965  13.844   5.899  11.794 -0.0069 -0.0337  0.1324
14762W        W32966   1.402   8.569   2.071 -0.0698 -0.1543 -0.0424
14763W        W32967   1.081   3.350   4.475  0.1148 -0.0022  0.0448
14764W        W32968  10.871  13.705   3.961 -0.1518 -0.0815  0.1628
14765W        W32969   7.870  16.431  12.064 -0.1012 -0.2541 -0.0344
14766W        W32970  16.563  16.329   0.803  0.2738 -0.2339 -0.1892
14767W        W32971  13.752   4.729   1.158  0.1096 -0.0042  0.3273
14768W        W32972   4.055  16.825   2.461 -0.1222 -0.1436 -0.1981
14769W        W32973  18.765  11.576   1.466  0.0504  0.2170  0.1284
14770W        W32974   7.660  15.731   3.287  0.1084 -0.2848 -0.1876
14771W        W32975  10.012   6.659   3.293 -0.0792 -0.0018  0.2423
14772W        W32976   7.971   7.600   2.646 -0.0809  0.2303  0.0020
14773W        W32977   9.013  15.230  14.985  0.1900 -0.1723  0.0020
14774W        W32978   4.449  15.327  12.567 -0.3403  0.2678  0.1759
14775W        W32979  17.314  17.998  12.183 -0.2171  0.1055 -0.2024
14776W        W32980   7.470   3.684   3.131  0.0165 -0.1359  0.0646
14777W        W32981   1.451  14.187  12.440  0.2359 -0.1569  0.1870
14778W        W32982  13.943   4.585  11.113  0.1032 -0.1841  0.0551
14779W        W32983   6.654  16.620  10.346  0.1201  0.2286  0.0677
14780W        W32984   5.843  18.534  13.368  0.0260  0.3122  0.1342
14781W        W32985   8.088   1.545  11.108 -0.3458  0.2712 -0.2760
14782W        W32986   0.681  11.129   2.915  0.0806  0.0545  0.0708
14783W        W32987  16.910  14.276  14.310  0.0580 -0.1596 -0.1120
14784W        W32988   7.250  11.563   2.758 -0.0691 -0.0401 -0.0288
14785W        W32989  17.617  11.395   0.748  0.0260  0.1292  0.1489
14786W        W32990  18.754   6.897   1.577 -0.2664  0.0321 -0.1645
14787W        W32991   3.075  13.411  13.654 -0.0317 -0.2633 -0.4929
14788W        W32992  12.113  10.964  14.769  0.0822  0.0549  0.3271
14789W        W32993   0.249   8.349   1.670  0.0135  0.0037  0.2133
14790W        W32994   0.627  16.039   2.150 -0.3552 -0.1315 -0.3075
14791W        W32995   3.454  11.580   1.357 -0.2518 -0.1214 -0.0264
14792W        W32996   0.450  14.942   2.525  0.2246 -0.2123  0.2011
14793W        W32997   8.558   7.349   2.800 -0.3247 -0.2635 -0.3924
14794W        W32998   0.098  18.904  11.659 -0.1557 -0.2628 -0.1826
14795W        W32999  12.045   3.664  10.417  0.2049  0.1572  0.0411
14796W        W33000   0.708  16.837  12.058 -0.1519  0.0454  0.0165
14797W        W33001  18.902   3.036   1.123 -0.2661 -0.0434 -0.0926
14798W        W33002  18.327  11.721  12.800 -0.0985 -0.3582  0.0630
14799W        W33003  12.286  15.171  13.107  0.1352  0.0217  0.1115
14800W        W33004  13.474   9.243  14.270  0.1450  0.1162  0.1918
14801W        W33005  10.882  10.538  14.755 -0.1632 -0.3831 -0.1255
14802W        W33006   5.628  12.560  10.966  0.1786 -0.0371  0.0413
14803W        W33007   7.704   5.743  13.561 -0.1149 -0.3017 -0.1027
14804W        W33008   9.222  12.256   4.200 -0.0112  0.2943 -0.2854
14805W        W33009  12.488  18.692  10.389  0.2284 -0.0079 -0.0586
14806W        W33010  17.840   9.576  14.108  0.1146  0.0529 -0.1378
14807W        W33011   8.591   9.271   2.242  0.2280  0.0278 -0.1619
14808W        W33012  15.627   9.442   1.043 -0.1957  0.0810 -0.0788
14809W        W33013   3.685   0.612  14.955  0.1947 -0.1138  0.2260
14810W        W33014   6.649  13.797   1.603 -0.2448 -0.2171  0.1149
14811W        W33015   0.648   0.307   3.684 -0.2784  0.0192 -0.0770
14812W        W33016  17.986  16.971  11.215  0.1230 -0.0626 -0.2706
14813W        W33017   1.025   5.327  12.105 -0.1349 -0.1495  0.2604
14814W        W33018   4.518  15.032  14.503 -0.2808  0.2275 -0.0196
14815W        W33019   4.562  13.729   3.293 -0.2111 -0.0443 -0.0734
14816W        W33020   9.990   2.381  12.361 -0.2694 -0.0289  0.2055
14817W        W33021  16.403   3.250   0.688  0.0751  0.0074  0.1821
14818W        W33022   9.088  16.400  14.750  0.2812 -0.0316 -0.1486
14819W        W33023   8.224  13.406   0.428 -0.2391  0.1041 -0.0304
14820W        W33024   4.091   1.686  13.030  0.2273  0.0777 -0.1902
14821W        W33025  18.099  17.492   2.222  0.0915 -0.2260 -0.3522
14822W        W33026   4.056   9.974   3.905 -0.1284 -0.0679  0.2636
14823W        W33027  10.982  12.503  14.659  0.0232  0.1790 -0.0187
14824W        W33028  16.313  13.070  13.240 -0.4243 -0.1172  0.0391
14825W        W33029   4.304  12.798   3.093 -0.1404 -0.2831  0.0948
14826W        W33030  12.344  11.510   1.851 -0.2331 -0.1083 -0.0114
14827W        W33031  15.083   6.949   1.125  0.0265  0.0396  0.2202
14828W        W33032   4.703  18.789  12.707  0.0304  0.2659 -0.0491
14829W        W33033   6.844  12.344   9.791  0.0851  0.1395  0.0702
14830W        W33034   4.180   6.420  12.884 -0.2134  0.1062  0.2657
14831W        W33035   3.198   7.839   2.368 -0.1912  0.0018  0.1781
14832W        W33036  15.824   3.231  13.928  0.0256  0.3071 -0.2884
14833W        W33037   1.608  15.571   2.888 -0.0399 -0.1365 -0.0225
14834W        W33038   3.768   5.130   0.738 -0.0600 -0.2367  0.1221
14835W        W33039   1.551   5.961   3.688  0.1991  0.1186  0.1008
14836W        W33040  13.900   9.547  14.419  0.2806  0.1140 -0.0777
14837W        W33041   0.548  15.306  10.274 -0.2695 -0.2956  0.3884
14838W        W33042  12.029  10.266   0.436 -0.1786 -0.1161  0.1779
14839W        W33043  10.485   6.800  12.559  0.1705  0.1069  0.1282
14840W        W33044   3.206   6.124  10.972  0.0552 -0.0877 -0.0310
14841W        W33045  14.643  18.438   4.010  0.3381  0.0385 -0.1195
14842W        W33046   6.502  11.734   0.624 -0.1524 -0.0380  0.0136
14843W        W33047   0.738  14.370  14.586  0.4617  0.0708  0.1657
14844W        W33048  14.921   6.876  13.403 -0.0302 -0.2780  0.0649
14845W        W33049   1.851   7.593   0.466  0.1000 -0.1305  0.1021
14846W        W33050  10.596  13.906   1.743 -0.1616 -0.1335 -0.0649
14847W        W33051   5.260   8.255  13.390 -0.3214 -0.0774 -0.3043
14848W        W33052   1.708   9.472   2.962 -0.1812 -0.0252  0.2461
14849W        W33053  15.539   7.955  13.298 -0.2112 -0.1049  0.1503
14850W        W33054   3.224  18.840   0.166  0.2089  0.0976 -0.3224
14851W        W33055  10.395  10.548   4.108 -0.0898 -0.1416 -0.0885
14852W        W33056   9.976   4.844  12.021  0.0020 -0.0289  0.1947
14853W        W33057   1.734   1.039   3.894 -0.1172 -0.0646 -0.0903
14854W        W33058   3.197  13.204   1.070 -0.1158  0.3064 -0.0835
14855W        W33059   7.125   8.778   1.572  0.1707  0.1280  0.0120
14856W        W33060  15.212  18.383   4.169  0.0904 -0.2137  0.1867
14857W        W33061   4.374  16.983   2.106 -0.0834  0.1450  0.0062
14858W        W33062  13.039  12.272  12.889 -0.1560 -0.1799  0.2307
14859W        W33063  18.875  15.029  11.840  0.1649  0.0172  0.0521
14860W        W33064  16.120  12.630   2.068 -0.1196 -0.0310 -0.2372
14861W        W33065   9.327   7.699   2.855 -0.0361  0.2631  0.1635
14862W        W33066   8.059   1.311  10.666  0.2011 -0.0660 -0.3137
14863W        W33067   3.493   8.088  10.829 -0.3494 -0.1639 -0.0978
14864W        W33068  10.158  10.856   5.375 -0.2122 -0.0309  0.4811
14865W        W33069   5.468  18.253   2.768  0.2272  0.2907  0.0170
14866W        W33070  17.468  13.134  10.649 -0.0874 -0.4792  0.3453
14867W        W33071   0.089  10.464   4.756  0.0303  0.0824  0.2491
14868W        W33072   1.923   5.007   2.285 -0.0490  0.1269 -0.2145
14869W        W33073   0.547  18.086  12.376 -0.1379 -0.2282 -0.1248
14870W        W33074  11.896   0.124   4.581  0.1565  0.1383  0.1482
14871W        W33075  16.178   3.128   2.464 -0.0888 -0.0621 -0.2309
14872W        W33076  17.038   0.396   1.310 -0.0351  0.0874  0.2007
14873W        W33077  10.369   8.732   1.694  0.0265  0.0124  0.0338
14874W        W33078  15.670   3.836  11.990 -0.3585 -0.0258 -0.0091
14875W        W33079  10.952   7.048   2.263 -0.1121  0.4294  0.2156
14876W        W33080   0.854  13.887  13.175 -0.0461 -0.2230  0.0854
14877W        W33081  11.944   2.554   0.553  0.1463 -0.2807  0.1841
14878W        W33082  14.727   1.920  12.343  0.2912 -0.0710  0.1562
14879W        W33083   5.828   5.783   5.435 -0.0367 -0.2137 -0.2693
14880W        W33084  12.893  11.528   0.364 -0.0341 -0.0706  0.0891
14881W        W33085   6.986   8.507  13.275  0.0659  0.0651  0.2018
14882W        W33086  13.105  18.535  13.126 -0.3163  0.2142  0.5107
14883W        W33087  13.882   0.483   3.409  0.0384 -0.2501 -0.1413
14884W        W33088   0.868  14.861   2.278 -0.2536  0.3548  0.0188
14885W        W33089  13.316   4.665  11.326  0.3617  0.0031  0.0704
14886W        W33090   6.072  16.778   1.665 -0.0528 -0.1884  0.3110
14887W        W33091   4.108  14.827   0.650  0.3301  0.0147 -0.1433
14888W        W33092   8.160   3.788   0.926  0.1926 -0.2808 -0.2825
14889W        W33093   6.574   6.141  11.334 -0.0230  0.2691 -0.0639
14890W        W33094  17.923   1.597   4.097 -0.0504 -0.0325 -0.3051
14891W        W33095   1.180   6.073  14.922 -0.1322 -0.2380 -0.0596
14892W        W33096   3.467   3.419   1.112 -0.0711  0.2268  0.0900
14893W        W33097   8.629   3.492   0.102 -0.1043  0.1688  0.0111
14894W        W33098  17.298   2.928  14.560  0.3261  0.2797 -0.2056
14895W        W33099  18.863   5.938   1.219  0.2662  0.1227 -0.2634
14896W        W33100   1.005  11.611   4.663 -0.1813 -0.0575 -0.0197
14897W        W33101  14.383   0.873  14.703  0.2102  0.0344  0.4910
14898W        W33102  16.655   0.155  10.662 -0.2907  0.1291 -0.0585
14899W        W33103  15.586   0.789   4.395 -0.0154  0.0870  0.1272
14900W        W33104   8.992  11.027   2.396  0.0602 -0.1269  0.0045
14901W        W33105  10.869  11.208   3.774 -0.0641  0.2728 -0.0929
14902W        W33106   6.371   4.147   2.902 -0.1047  0.4690 -0.2735
14903W        W33107  12.381   4.229   1.032  0.0957  0.0912 -0.0253
14904W        W33108   9.474  14.765   0.062  0.0373  0.0399 -0.2018
14905W        W33109   4.384   3.775   3.366  0.1393  0.0242  0.1233
14906W        W33110  16.394  13.551   3.880 -0.1183 -0.2471 -0.1254
14907W        W33111  15.661   2.515   1.486 -0.2815 -0.0314  0.0064
14908W        W33112   3.324  10.009  13.579 -0.0537  0.0394 -0.2313
14909W        W33113  10.734  13.108  10.864  0.2860  0.0625  0.0857
14910W        W33114   4.271   2.844  14.423 -0.0172  0.0925  0.1573
14911W        W33115   6.085   3.757  12.558  0.1807  0.0018 -0.0498
14912W        W33116   8.742   0.429   4.200  0.1064  0.0151  0.2282
14913W        W33117  12.241   6.075   0.739 -0.1943  0.0523  0.0083
14914W        W33118  15.074   9.549   9.854 -0.2328  0.3370 -0.0595
14915W        W33119   5.283   0.852   2.765 -0.1350 -0.1577  0.0527
14916W        W33120   3.902   6.020   4.889 -0.2664 -0.1160 -0.2698
14917W        W33121   3.564   9.939   2.532 -0.3167 -0.2083  0.1039
14918W        W33122   2.516  12.287   5.494  0.1063  0.1473  0.0521
14919W        W33123   3.678   7.858   1.438 -0.1573 -0.1405  0.0239
14920W        W33124   6.372   0.952  12.848  0.0160 -0.4020  0.1890
14921W        W33125   2.527   0.552  11.435  0.0101  0.1076  0.0941
14922W        W33126   2.615   2.090   0.124  0.2663 -0.2456 -0.1979
14923W        W33127   1.951   4.519   3.501  0.0595  0.0659 -0.0660
14924W        W33128   5.177   4.373  13.327 -0.3064  0.0679 -0.2009
14925W        W33129  16.543   3.122   1.156  0.1977 -0.1362 -0.1050
14926W        W33130   9.932   3.781  11.660  0.2397 -0.1190  0.0812
14927W        W33131  18.539  17.198  12.062 -0.3000  0.0998 -0.0504
14928W        W33132   9.157   5.254  13.648 -0.0470  0.2283  0.2540
14929W        W33133  10.079   3.434   0.151  0.1347 -0.0211  0.0491
14930W        W33134  14.451   8.670   1.296  0.0338 -0.0915 -0.2500
14931W        W33135   1.489  16.145   1.912  0.1536  0.2133 -0.0658
14932W        W33136   6.341  10.845  14.789 -0.0451 -0.2725  0.0055
14933W        W33137  10.124   5.798   3.783  0.0831  0.1638  0.2186
14934W        W33138  14.659   5.381   0.191 -0.1946  0.0548 -0.0937
14935W        W33139   0.698  16.873   1.525  0.1111 -0.1596  0.1955
14936W        W33140   2.149  11.847  14.925 -0.2746  0.0786 -0.2423
14937W        W33141   1.099   7.120   0.648  0.1192 -0.1792 -0.2998
14938W        W33142  14.739   0.971   4.562 -0.0340 -0.1023  0.0557
14939W        W33143  12.860  16.258   1.301 -0.0106  0.0784  0.0292
14940W        W33144  16.024  14.588  13.984 -0.1106 -0.0211 -0.0169
14941W        W33145  10.783  16.423   0.029  0.0500 -0.3396 -0.0458
14942W        W33146   6.750   9.885   4.027 -0.3490 -0.0768  0.0166
14943W        W33147   5.981  18.677  12.559  0.1130  0.1288 -0.1138
14944W        W33148  12.513   0.991  11.459  0.2011 -0.1408  0.0141
14945W        W33149   9.209   9.550   0.513  0.1601 -0.0863  0.0993
14946W        W33150   9.994  10.381   2.624  0.3367  0.1748  0.1080
14947W        W33151  12.775  13.534  14.147  0.0980  0.0352 -0.2205
14948W        W33152   2.064  16.218  12.262 -0.0019 -0.2647 -0.2663
14949W        W33153  12.490  12.907  13.857  0.2533 -0.1170 -0.2192
14950W        W33154  14.108   0.063   4.069 -0.1956  0.1445  0.0702
14951W        W33155   5.776   4.415   0.675  0.1681  0.2120  0.0548
14952W        W33156  10.089   6.908   0.985  0.0603  0.1858  0.0491
14953W        W33157   0.992  10.086   2.801  0.3839  0.0835 -0.2216
14954W        W33158   3.453   4.696  13.984  0.0149 -0.0137 -0.0588
14955W        W33159   0.394  17.039   3.506 -0.1992 -0.4056  0.0315
14956W        W33160  12.115  11.922  14.803  0.0826 -0.1183  0.3288
14957W        W33161  13.538   8.531   4.398 -0.0936  0.1601  0.3425
14958W        W33162   0.570  17.040   2.846  0.0233  0.1054 -0.1109
14959W        W33163   1.674  18.735   0.773 -0.0995  0.0584 -0.0046
14960W        W33164  17.309   7.567   3.903  0.3634  0.1566 -0.1295
14961W        W33165  14.952  10.737  13.014  0.3188 -0.0660  0.3522
14962W        W33166  13.967   3.956   4.345 -0.1640  0.1366 -0.0619
14963W        W33167   9.622  14.395  11.342  0.2645  0.0158 -0.4082
14964W        W33168   7.456   3.333  12.902 -0.2050 -0.0471 -0.0089
14965W        W33169   4.405   1.755  12.591 -0.4616 -0.1040 -0.0618
14966W        W33170   4.255   1.113   2.838  0.3315  0.1305 -0.0882
14967W        W33171   5.102  17.664   1.163 -0.1817  0.1801 -0.1316
14968W        W33172   6.730   4.732   1.804  0.0516  0.0356 -0.0306
14969W        W33173  15.811   6.491   1.658  0.5423  0.1793  0.0591
14970W        W33174   3.320   1.791   0.718  0.0263  0.1197  0.0343
14971W        W33175  13.468   7.034   1.703  0.0862  0.3835  0.0168
14972W        W33176  11.509   5.901  14.013 -0.1462 -0.2160  0.0425
14973W        W33177  17.161  15.808  11.554  0.2838  0.2460 -0.0238
14974W        W33178   7.501   0.288   1.215  0.2027 -0.0260  0.2659
14975W        W33179   0.823   4.684  11.592 -0.0069 -0.2716  0.1017
14976W        W33180  13.892  14.489  11.686  0.3574  0.3041  0.2637
14977W        W33181  10.562  12.770  14.017  0.3315 -0.1843  0.0553
14978W        W33182   3.764   6.307  13.144  0.3636  0.3811  0.1965
14979W        W33183   7.890  17.121   4.008 -0.0917  0.1962 -0.0330
14980W        W33184   4.643  18.687  10.848 -0.1720  0.1560  0.0009
14981W        W33185  18.367  16.415   0.913  0.0184  0.2481 -0.1805
14982W        W33186   3.309  16.273  13.507 -0.2024  0.2056 -0.0904
14983W        W33187  11.519  14.201   0.763 -0.1283  0.0989 -0.0356
14984W        W33188   8.695   4.175   2.791  0.2383 -0.2357  0.1745
14985W        W33189  15.157  16.195  10.536  0.0069  0.0389 -0.0776
14986W        W33190  17.755  15.086   1.459  0.2601  0.3132 -0.0675
14987W        W33191   9.555  11.160  10.821  0.0840  0.2600 -0.0469
14988W        W33192   1.804   4.588  14.751 -0.1102 -0.2780  0.0327
14989W        W33193  15.201  13.430  13.488 -0.2707  0.0727  0.1408
14990W        W33194  14.009   8.932  11.327 -0.0364  0.0753 -0.1469
14991W        W33195   5.099   0.704  14.890 -0.1099  0.0520  0.1624
14992W        W33196  12.668   2.074  11.807 -0.1593 -0.2495  0.4934
14993W        W33197   2.354  17.289  14.254  0.0242  0.0309 -0.1547
14994W        W33198  17.465   2.110   3.118 -0.0739 -0.0397  0.1689
14995W        W33199  16.913  16.692   3.231  0.1048 -0.2865 -0.0238
14996W        W33200  10.053  12.874  13.294  0.3241  0.3014  0.4057
14997W        W33201  12.043   3.808   1.098  0.3503 -0.2378 -0.2352
14998W        W33202  11.206  15.297  10.563  0.0126  0.4682 -0.2405
14999W        W33203   9.635  12.995   2.532 -0.0228  0.3838  0.2752
15000W        W33204   5.887  10.048   1.725 -0.0573  0.1881 -0.1315
15001W        W33205   4.114  16.703   1.762  0.1680  0.0201 -0.0361
15002W        W33206  14.113   0.066   1.704 -0.1104  0.0169  0.1591
15003W        W33207   0.030   8.257   1.259  0.0322  0.1109 -0.0206
15004W        W33208   2.701  11.636  13.738 -0.3142 -0.0220 -0.0004
15005W        W33209   1.434   3.113  12.354 -0.1180 -0.1242 -0.1827
15006W        W33210   1.253  15.255  10.790 -0.0395 -0.0701 -0.1644
15007W        W33211   5.960  10.670  11.666  0.1865 -0.0678 -0.0340
15008W        W33212   9.732  10.767   0.962  0.0672 -0.0417 -0.1387
15009W        W33213   8.843  10.313   2.201  0.0794  0.2239 -0.1552
15010W        W33214  13.649  13.007   0.277 -0.0016  0.2317 -0.0275
15011W        W33215   2.078   0.508   0.613  0.1610  0.2262 -0.1988
15012W        W33216  15.857  17.095   1.004 -0.2400 -0.0133  0.0198
15013W        W33217   9.684   8.111   3.598  0.1475 -0.0344 -0.2337
15014W        W33218   2.590   1.311   1.508 -0.1436  0.1389 -0.4738
15015W        W33219  10.071   4.616   3.564 -0.4186  0.1375  0.2566
15016W        W33220  12.069  16.391   2.872 -0.3237 -0.1302 -0.0431
15017W        W33221  13.507   0.756  10.659  0.0705 -0.0867  0.2020
15018W        W33222   3.241  10.232  14.667 -0.0109  0.3128  0.0088
15019W        W33223  13.249   8.777  14.083  0.1528 -0.4352  0.2684
15020W        W33224  15.166  14.650   3.600 -0.2016 -0.1851 -0.2040
15021W        W33225  11.108  17.294  13.456  0.1096  0.3264  0.1570
15022W        W33226  13.241   3.387   3.038 -0.0467 -0.2183  0.0112
15023W        W33227   7.568  18.480   0.481  0.0486  0.0858 -0.2141
15024W        W33228   8.724  11.127  14.202 -0.1348  0.0730  0.2766
15025W        W33229  13.401  14.863  12.601 -0.3693  0.0168  0.0706
15026W        W33230  11.879   1.828   3.913 -0.0845  0.0570  0.2996
15027W        W33231  14.696  16.083  14.846  0.1554 -0.2394 -0.1783
15028W        W33232  11.797  13.385   4.360 -0.0810 -0.1057  0.1410
15029W        W33233  12.043   9.166  12.276 -0.0495  0.1934  0.0149
15030W        W33234  15.642  17.713  12.539  0.2420 -0.0509  0.2125
15031W        W33235   1.909   5.957   1.836  0.1689  0.0945  0.0393
15032W        W33236  12.935   8.701   1.328 -0.0440  0.2279  0.0062
15033W        W33237   3.021   4.737  13.696 -0.1643  0.1897 -0.1791
15034W        W33238   1.915  13.860   1.857 -0.2184 -0.0206  0.1771
15035W        W33239   9.182   2.874   1.427 -0.1712 -0.1595  0.0878
15036W        W33240   0.495  12.199  14.314  0.0219  0.0474 -0.1601
15037W        W33241  13.491  16.633   2.470 -0.1440 -0.1336  0.1691
15038W        W33242   0.420   0.055   1.422 -0.2104  0.0977 -0.1453
15039W        W33243   3.254  11.028   0.664  0.0834  0.3299 -0.1201
15040W        W33244   6.711  13.163  12.425  0.3638  0.0857 -0.1318
15041W        W33245  16.107   5.434   1.691 -0.3373  0.2969  0.3986
15042W        W33246   2.276   1.791  11.402  0.0146  0.0491 -0.1839
15043W        W33247  14.377   9.423   3.336  0.0225 -0.0134 -0.0919
15044W        W33248   9.434   7.285  14.504 -0.0237  0.0182 -0.4871
15045W        W33249  11.761   1.980  11.756  0.0197  0.0589  0.0975
15046W        W33250   9.568  14.767   4.064 -0.1739 -0.2787  0.2409
15047W        W33251   9.200   6.270   4.752 -0.2514 -0.1188  0.0297
15048W        W33252   9.725  18.614   1.956 -0.0225 -0.0657 -0.0752
15049W        W33253   0.307  11.927  11.353  0.4834 -0.1671  0.0294
15050W        W33254   5.902   7.145   2.874 -0.0984 -0.2854 -0.1020
15051W        W33255   0.008   4.023   4.010  0.0987 -0.0253 -0.1688
15052W        W33256   6.855   2.790   3.296  0.0929  0.2492  0.2431
15053W        W33257  10.561  12.753  14.501 -0.1685  0.0936 -0.0888
15054W        W33258  17.453  18.626  10.224 -0.1453  0.2071  0.1344
15055W        W33259   6.343   5.142   0.830 -0.0577 -0.1850 -0.0215
15056W        W33260   9.779   8.784  13.754 -0.1981 -0.0698  0.3327
15057W        W33261   9.894   6.288   2.549  0.1104 -0.1135  0.0251
15058W        W33262  13.103   4.892   4.392  0.1375 -0.2226  0.2854
15059W        W33263   4.151   2.419  10.624  0.1801 -0.0079  0.0948
15060W        W33264   1.799   9.529   1.469 -0.1716  0.2042 -0.0267
15061W        W33265   7.193  14.818   3.178  0.1865  0.2623 -0.1511
15062W        W33266   2.734   4.817  12.717 -0.3539  0.1000  0.0675
15063W        W33267  11.838  16.482   0.011 -0.1130 -0.1734  0.0605
15064W        W33268  10.317  18.162   4.119 -0.4981  0.1856  0.3179
15065W        W33269  14.360   0.814  13.250  0.0624  0.1066 -0.0748
15066W        W33270  18.347  15.072  13.992 -0.0039  0.0559 -0.1440
15067W        W33271   0.456   6.723  12.290 -0.0447  0.0431  0.3037
15068W        W33272   8.540  18.676   2.451 -0.2512 -0.1059 -0.2570
15069W        W33273   1.525   6.374  10.417  0.0818  0.2235 -0.3252
15070W        W33274  11.251   0.619  13.672 -0.0757  0.0641  0.0497
15071W        W33275   7.657   1.939  11.191  0.0629  0.0914 -0.0160
15072W        W33276   6.353  17.835  12.167 -0.0253  0.2430  0.2492
15073W        W33277  16.853   4.129   2.292 -0.1248  0.0583 -0.0489
15074W        W33278  11.785  17.322  10.921 -0.1458  0.1044  0.0745
15075W        W33279   3.199   1.441   0.404  0.0990 -0.1651  0.1487
15076W        W33280  10.605  10.804   3.420 -0.2395 -0.2778  0.2805
15077W        W33281  14.745   1.301   2.626  0.3026 -0.1125  0.0130
15078W        W33282  13.429  16.528  14.628 -0.1500 -0.1188  0.0136
15079W        W33283   3.851  14.064  14.556 -0.1882  0.1455 -0.1001
15080W        W33284   9.280  18.035   1.595 -0.0248 -0.0735 -0.0078
15081W        W33285  17.351   1.231  14.022 -0.0964 -0.1967 -0.3520
15082W        W33286  11.296   5.777   4.371 -0.0114 -0.0048 -0.1121
15083W        W33287  18.414  12.865  13.809  0.1878  0.2049  0.1781
15084W        W33288   0.569   0.802   5.282  0.0274 -0.0095 -0.2735
15085W        W33289   4.906   3.285  10.265  0.0192 -0.1484  0.1625
15086W        W33290  15.587   5.718   1.528 -0.2484 -0.2404  0.0160
15087W        W33291  11.738   6.920   2.851  0.0514  0.1075  0.0896
15088W        W33292   7.141   5.212  14.859  0.1139  0.0692 -0.0149
15089W        W33293  11.860  11.551  11.461  0.0622 -0.0811  0.1107
15090W        W33294   7.866   0.790  13.117  0.1460  0.3282 -0.1872
15091W        W33295   2.595   7.283   0.632  0.0940  0.0474 -0.2094
15092W        W33296  15.251  10.398  13.256  0.1487 -0.2679 -0.0443
15093W        W33297  11.682  15.127   3.332 -0.0530  0.0144  0.0244
15094W        W33298   4.214   8.998   4.906  0.0714 -0.1162 -0.0703
15095W        W33299  16.693  16.834   0.037  0.2630  0.3788  0.0316
15096W        W33300   4.989   9.051  11.145 -0.1443  0.0902 -0.0264
15097W        W33301   7.038  11.586   2.216  0.0005  0.0662  0.1308
15098W        W33302  13.135   0.488  14.742 -0.1773  0.0639 -0.0896
15099W        W33303   1.630  16.093   0.620 -0.3649  0.2590  0.0261
15100W        W33304   5.627   3.743   3.409  0.0317 -0.2617 -0.1342
15101W        W33305  18.400  15.837  10.624  0.1369 -0.1918  0.0945
15102W        W33306   5.924  11.517  13.075  0.0078  0.2564  0.0870
15103W        W33307  13.088   6.951   2.306  0.0484  0.1420  0.0151
15104W        W33308  11.479  17.766   1.534 -0.1407  0.1759 -0.2057
15105W        W33309   6.288  13.553   2.155 -0.1374 -0.0517 -0.1127
15106W        W33310  11.742   7.560  11.863  0.1692  0.2818 -0.2523
15107W        W33311   1.718   1.280  11.729  0.4061  0.0696  0.0173
15108W        W33312   9.301   8.799  12.864 -0.0252  0.0184  0.1979
15109W        W33313   4.638   3.526  12.625  0.0375 -0.2586 -0.3220
15110W        W33314  14.038  16.775  13.910  0.0049 -0.0681 -0.2229
15111W        W33315   4.943  13.053  11.536 -0.2017 -0.3296  0.1165
15112W        W33316   4.474   2.783   2.319 -0.0608  0.0596  0.1839
15113W        W33317  18.045   1.094   1.963  0.2388  0.3077  0.0795
15114W        W33318  11.027  16.111  14.601 -0.1859  0.2572  0.1075
15115W        W33319   3.201  16.908  14.351  0.4297  0.2064 -0.0229
15116W        W33320   6.573   5.029   2.197 -0.1215 -0.5839 -0.1762
15117W        W33321   0.078   5.802   0.754 -0.0519  0.1136  0.3524
15118W        W33322  14.831  12.353   0.932 -0.0923  0.2094  0.1579
15119W        W33323   5.413   0.374   4.248 -0.2530  0.0778  0.3562
15120W        W33324   9.769   3.155   2.140 -0.1518 -0.1576  0.1132
15121W        W33325   3.169  15.887   1.257  0.2320  0.4814 -0.0345
15122W        W33326   8.065   5.848   5.582  0.0095  0.3703 -0.0549
15123W        W33327   5.419   3.697   2.247 -0.2924 -0.1632  0.0398
15124W        W33328  16.776   0.295  14.585 -0.1375  0.0916 -0.2289
15125W        W33329  11.172   5.489   3.986 -0.1448 -0.1101 -0.0723
15126W        W33330   5.363  12.803  13.764 -0.2400  0.2315 -0.2768
15127W        W33331   7.215  11.810   1.165  0.2555 -0.2522 -0.0203
15128W        W33332  15.361  14.175  12.963 -0.1798  0.1546 -0.1817
15129W        W33333   5.863  16.333   1.205 -0.2395 -0.0427  0.0857
15130W        W33334   5.617   0.135   2.492  0.0651 -0.1932 -0.0800
15131W        W33335  16.371   3.489  14.112 -0.2291  0.0172 -0.3706
15132W        W33336  12.839  10.961  13.584 -0.0276  0.3106  0.2312
15133W        W33337  16.080   2.332  12.995  0.2939 -0.3237 -0.4704
15134W        W33338  17.865   3.673   4.152 -0.0187 -0.0318 -0.3169
15135W        W33339   2.319  11.438  13.505  0.1705  0.0130  0.0997
15136W        W33340  14.435  16.709  14.858  0.0698 -0.1438  0.1509
15137W        W33341  16.733   5.492  12.126 -0.4302 -0.2508 -0.3275
15138W        W33342  13.603  18.950   3.076  0.0632  0.0603  0.0823
15139W        W33343   2.654   8.897  15.009  0.0316  0.1966 -0.1679
15140W        W33344   2.925   4.145   4.190  0.1561  0.2682 -0.0914
15141W        W33345   2.535  15.333  14.337 -0.0467 -0.0148  0.0976
15142W        W33346   3.874  11.589   3.967  0.0816  0.0189  0.1861
15143W        W33347  14.963  18.501  10.677  0.3014 -0.2749 -0.1298
15144W        W33348   6.078  15.034   3.799  0.0552  0.0580 -0.1996
15145W        W33349  16.160  18.944   3.134  0.0668 -0.2101 -0.0576
15146W        W33350   3.119  14.619   4.428 -0.0146  0.2278 -0.0983
15147W        W33351   3.242   9.178   3.815 -0.1602  0.1144  0.0240
15148W        W33352   4.847  11.214  12.430  0.2029  0.0724 -0.0259
15149W        W33353   9.306   1.437   0.268  0.0490  0.0148  0.1696
15150W        W33354   3.504  15.036  11.490  0.0153  0.2463 -0.1805
15151W        W33355  14.043  10.994  11.400 -0.1114 -0.1638  0.2106
15152W        W33356  17.115   2.333   1.324 -0.4362 -0.1297  0.1268
15153W        W33357  12.955  13.062  12.370  0.0573  0.1725  0.1795
15154W        W33358   0.835  10.773   2.443  0.2457 -0.1597  0.2375
15155W        W33359   0.238   2.566  10.705  0.3487  0.1106  0.0444
15156W        W33360  11.717   9.928  13.238 -0.0805  0.0996  0.4818
15157W        W33361   1.347   7.439  13.112  0.0191  0.0167  0.0905
15158W        W33362  10.605   6.939   3.898 -0.0129 -0.0442  0.2580
15159W        W33363   7.181   1.637   3.817  0.0310 -0.1124 -0.0161
15160W        W33364   6.153   0.546  13.604  0.3796 -0.1100  0.0656
15161W        W33365   6.139  17.568  12.567  0.0950  0.1009  0.2936
15162W        W33366   9.829   1.870   3.571  0.2710  0.2002 -0.3107
15163W        W33367  15.573   7.104   2.181  0.0583 -0.1316  0.3275
15164W        W33368   6.891  13.838   3.284 -0.2654  0.3354 -0.3263
15165W        W33369   9.640  11.412   3.591 -0.2737  0.0807  0.0558
15166W        W33370  17.730  18.162   0.039  0.0364  0.1001  0.1448
15167W        W33371   8.574   4.307  14.589  0.1691 -0.0406  0.1076
15168W        W33372  11.023  10.423   2.571 -0.1561 -0.3289  0.3314
15169W        W33373   7.327   1.942  14.930 -0.3371  0.1069 -0.1847
15170W        W33374  16.325   8.139   3.434  0.1063 -0.2573  0.0282
15171W        W33375   2.180   4.278  14.760 -0.3126 -0.0657 -0.1124
15172W        W33376   2.031   4.420   0.532  0.0029 -0.1319 -0.0788
15173W        W33377  15.327   2.121   0.460  0.1419 -0.0631  0.1245
15174W        W33378  14.192   4.545   0.997  0.0526 -0.0112 -0.0465
15175W        W33379   9.182   2.314  12.269 -0.1902  0.3214 -0.0386
15176W        W33380  15.585   1.106  11.100  0.3264 -0.1163 -0.0624
15177W        W33381  17.792   8.188  12.815 -0.3305  0.0619  0.0472
15178W        W33382   8.664   4.116   3.552  0.1784  0.1730  0.3194
15179W        W33383   2.038   8.049  10.338  0.3685  0.0473  0.1586
15180W        W33384  14.219   7.638   0.376  0.1657  0.0518 -0.0332
15181W        W33385   4.398  11.498  14.449  0.1308 -0.0661  0.1165
15182W        W33386  11.003  14.512  13.390 -0.0670 -0.0024  0.0399
15183W        W33387  16.692  18.700  10.912  0.1137 -0.0389  0.1979
15184W        W33388   6.573  15.976  13.584 -0.0464 -0.0568 -0.1165
15185W        W33389   3.401  12.170  10.973  0.5396 -0.3962  0.1621
15186W        W33390  17.383   4.006   2.494  0.0883  0.2152  0.2391
15187W        W33391  10.174   8.777   0.909 -0.0559  0.0674 -0.0905
15188W        W33392  14.394  15.176   2.992  0.3077 -0.0596  0.3295
15189W        W33393   8.102  18.547  14.813  0.0253  0.0574  0.1602
15190W        W33394   7.123   2.629   2.842  0.3380  0.2751 -0.0879
15191W        W33395   4.388  13.772  13.266  0.1370  0.3496 -0.0148
15192W        W33396   6.468  13.480   3.820 -0.0661  0.0605  0.0139
15193W        W33397   2.768   9.479  14.883  0.2929  0.0810  0.4831
15194W        W33398   4.786   9.939   4.159  0.2414 -0.2544  0.0197
15195W        W33399  14.628   4.575  10.133  0.0612  0.0532  0.1803
15196W        W33400  17.671   4.520   1.856  0.0756 -0.0331  0.1125
15197W        W33401  16.824   8.594  10.790  0.0944  0.1862  0.0330
15198W        W33402  14.783   8.372   0.957 -0.0844  0.1751 -0.1054
15199W        W33403   5.403  11.178   0.359  0.0595  0.2830  0.3165
15200W        W33404  18.629   3.476   2.901 -0.0414 -0.0398 -0.0947
15201W        W33405   5.079  10.505  13.328  0.1571  0.2245 -0.1143
15202W        W33406   2.854   5.557   0.860 -0.0452  0.1304 -0.1768
15203W        W33407  10.424  15.289   2.110  0.0905  0.0793 -0.1675
15204W        W33408  11.495  10.915  11.835 -0.1324 -0.4452 -0.0465
15205W        W33409  13.535   8.096  11.936  0.0961  0.3952  0.3917
15206W        W33410  17.327   1.523   3.323 -0.1728 -0.2837 -0.0868
15207W        W33411   3.851   7.193   0.691  0.0642 -0.3469 -0.0329
15208W        W33412  16.627   6.338  11.127  0.1092  0.0412 -0.0567
15209W        W33413   3.494  13.418   1.500 -0.2894  0.1086  0.0048
15210W        W33414  16.735   0.509  13.439  0.0382  0.2378 -0.1640
15211W        W33415  14.772   1.095   1.109 -0.0044 -0.1220 -0.6342
15212W        W33416   7.256  12.685  12.009  0.2540  0.0911  0.0208
15213W        W33417   8.803  17.566  12.657  0.0400  0.2231  0.2722
15214W        W33418   2.551   0.360   9.909  0.2512  0.0669 -0.2787
15215W        W33419  12.294  13.506   2.000 -0.2437 -0.0844  0.3134
15216W        W33420  18.789   0.362  12.476 -0.1627  0.0472  0.0658
15217W        W33421   0.745  10.599   0.051 -0.1599 -0.1771  0.1078
15218W        W33422   2.706   7.903   2.497 -0.2965 -0.2656 -0.2709
15219W        W33423  17.060  16.280   1.447 -0.0215 -0.1083 -0.3683
15220W        W33424   5.983  14.675   0.210 -0.1595 -0.0729 -0.0590
15221W        W33425   8.170   9.050  13.395  0.2056 -0.2174  0.0102
15222W        W33426  18.210  11.739   4.308 -0.1135  0.1569  0.1846
15223W        W33427   6.344   7.549  14.636 -0.1524  0.2385  0.4132
15224W        W33428   7.567  16.065  11.775  0.1029  0.1989 -0.3142
15225W        W33429  17.960   2.274   2.055 -0.1350  0.0634 -0.2224
15226W        W33430   9.313  18.464  14.676 -0.0088  0.0744  0.0959
15227W        W33431  12.753  13.034  10.832 -0.1298  0.0956  0.1315
15228W        W33432  10.926  14.761  14.699 -0.1165  0.4700 -0.2816
15229W        W33433  11.570   5.458   2.213  0.1495  0.1930  0.1672
15230W        W33434  18.908   9.471  13.334 -0.0911  0.0476  0.1604
15231W        W33435  16.518  17.545  10.637  0.1443  0.0728  0.3369
15232W        W33436  10.417  18.856  10.784  0.0070  0.0778 -0.1371
15233W        W33437   0.195  18.193  14.893  0.2107  0.1756  0.1731
15234W        W33438   8.254  10.645  11.576  0.0283  0.1981 -0.0939
15235W        W33439  12.221   3.048   1.646 -0.0166 -0.0353  0.0106
15236W        W33440   2.096   0.791   4.205  0.4728 -0.0716  0.0258
15237W        W33441  18.260   0.497  14.806  0.1205 -0.0766  0.2692
15238W        W33442  18.190  13.984  11.575  0.0169  0.1024 -0.2658
15239W        W33443   7.208   0.341  12.104  0.1622 -0.2654  0.1662
15240W        W33444   1.119   8.100   1.434 -0.1940  0.2877 -0.0150
15241W        W33445  17.202   8.010   1.867 -0.0644 -0.0434 -0.0834
15242W        W33446  13.623  18.225   0.222  0.1499 -0.0770 -0.0154
15243W        W33447   3.924  17.776   3.408 -0.1957  0.2092 -0.0889
15244W        W33448   4.131   0.317   0.050 -0.0955 -0.4545  0.0364
15245W        W33449  14.107   0.636  14.156 -0.2731 -0.1126  0.1565
15246W        W33450  16.825   5.410  15.009 -0.0350 -0.1465  0.1758
15247W        W33451  15.526  17.471  14.833 -0.0405 -0.0442  0.0758
15248W        W33452  10.860   4.411  10.714  0.0113  0.1721  0.1235
15249W        W33453  17.106  14.002   3.182 -0.0992 -0.0982  0.0447
15250W        W33454   0.064   8.019   3.489 -0.0187  0.1687  0.0096
15251W        W33455   4.492   8.245  12.254 -0.0582 -0.1931 -0.0820
15252W        W33456  10.141  18.830   2.915 -0.1689  0.3668 -0.0709
15253W        W33457  11.569   5.703  11.829  0.2801  0.0279 -0.1098
15254W        W33458  15.277   0.174  11.955 -0.0738  0.1918 -0.0766
15255W        W33459  13.006  16.627   0.415  0.2232 -0.2983  0.1580
15256W        W33460  14.445   9.151  11.951  0.1592  0.2913  0.3468
15257W        W33461  11.649  15.769   2.094  0.2276  0.0915  0.0240
15258W        W33462   9.207   7.230   3.099  0.0689  0.0705  0.2880
15259W        W33463   3.894   7.313  11.319  0.0083 -0.0490  0.4063
15260W        W33464   4.380   7.537  14.309  0.0596  0.4740 -0.1843
15261W        W33465  18.116   9.995   2.152  0.1660  0.1847  0.1765
15262W        W33466   7.716   2.666  12.970  0.4501  0.2323 -0.0560
15263W        W33467  12.554  10.899   1.659 -0.1786 -0.0059 -0.2793
15264W        W33468   9.786  14.176  12.465  0.0493 -0.0951  0.0964
15265W        W33469  17.981  16.449   1.312 -0.2183  0.4347 -0.2267
15266W        W33470  14.962   6.518   1.395 -0.0040 -0.0913 -0.0127
15267W        W33471  15.469   1.110   1.818 -0.0369 -0.1918 -0.2242
15268W        W33472   0.576   4.082  14.566 -0.0072  0.1437 -0.1820
15269W        W33473  14.460  18.667   0.199 -0.0489 -0.2207 -0.0820
15270W        W33474   3.000  10.455   1.005 -0.0869  0.0115  0.3273
15271W        W33475  11.950   6.627   2.173  0.2145  0.1828 -0.3608
15272W        W33476   8.815   9.273   0.479  0.0202 -0.0325  0.0264
15273W        W33477  16.697  18.103  12.389 -0.0038  0.0363  0.1068
15274W        W33478   9.698   3.049   0.754 -0.2140 -0.1124 -0.0853
15275W        W33479   5.556  17.677  11.337 -0.1179  0.0820  0.4693
15276W        W33480   4.602   0.072  14.209  0.2079 -0.0109 -0.2243
15277W        W33481   2.523   0.117  12.816  0.2066  0.1742 -0.0115
15278W        W33482   2.355   1.266   2.781  0.1347  0.1370 -0.1233
15279W        W33483  13.768  10.250   2.878  0.2702 -0.3186 -0.0865
15280W        W33484   1.840  17.129  11.250 -0.0269 -0.1503 -0.1526
15281W        W33485   8.442  17.272   0.640  0.0473 -0.0869 -0.3051
15282W        W33486   7.669  14.867  11.107 -0.2943 -0.1707  0.3010
15283W        W33487  15.317  15.042  13.417 -0.0020 -0.1480  0.0535
15284W        W33488   0.413  15.137  13.141  0.0199  0.2876  0.2514
15285W        W33489  17.035   9.855   0.827  0.3806  0.2678  0.0119
15286W        W33490  18.376  17.804   2.556  0.1570  0.1431  0.1831
15287W        W33491   4.124  14.427   5.519 -0.1584 -0.4352 -0.1284
15288W        W33492   3.602   9.839   0.707  0.5032 -0.1807 -0.0238
15289W        W33493   5.612  15.283   3.679  0.1534 -0.1454  0.0931
15290W        W33494   9.295   3.051   2.236 -0.3287 -0.0905  0.5802
15291W        W33495  12.531  16.962  11.038  0.1817 -0.3172 -0.3455
15292W        W33496   9.536  15.434   0.719 -0.2365  0.0385  0.1256
15293W        W33497  16.230   3.552  10.467 -0.0023  0.0240  0.0714
15294W        W33498  16.803  13.786   0.816  0.0084 -0.1436 -0.0693
15295W        W33499  11.599  11.155   1.400 -0.0216  0.1327  0.0882
15296W        W33500   3.890   9.350  13.548 -0.2145  0.0539 -0.0786
15297W        W33501  10.705  11.703   3.840  0.2431 -0.0392 -0.0364
15298W        W33502   4.957  16.158  11.586 -0.2282  0.0928  0.0974
15299W        W33503  17.821   6.419   0.819 -0.3406 -0.1244  0.2035
15300W        W33504  12.164  13.246   2.593  0.3201 -0.0238 -0.0314
15301W        W33505  16.515  18.630   0.545  0.0163  0.2574 -0.0491
15302W        W33506   9.804   0.720   0.081 -0.1836 -0.1076  0.0713
15303W        W33507   7.026   0.487  11.649  0.1377  0.2689 -0.3319
15304W        W33508  11.690  12.955   9.888  0.0450  0.2882  0.1180
15305W        W33509   7.381  14.777  12.750 -0.1113 -0.0374 -0.1303
15306W        W33510  10.575   0.705  12.268  0.0205  0.1206 -0.2611
15307W        W33511  14.384  18.495  14.711  0.1005 -0.0693  0.0076
15308W        W33512   5.509   2.415   3.745  0.0263  0.0952 -0.2850
15309W        W33513   3.132  12.720  12.149  0.2051 -0.2089  0.3877
15310W        W33514  14.210  10.612   3.104 -0.0848  0.1087  0.0571
15311W        W33515   6.680  11.816  13.792 -0.1404 -0.2239 -0.2613
15312W        W33516   7.829   1.680   0.753 -0.3035  0.0477 -0.1329
15313W        W33517   0.103  11.965  14.582  0.0794  0.0250 -0.2103
15314W        W33518   6.804  15.389   1.108 -0.0413 -0.0768  0.3868
15315W        W33519   8.323   6.514  13.771  0.2305  0.1112  0.1878
15316W        W33520  14.994  18.293  13.898  0.2100  0.1998 -0.2281
15317W        W33521   4.605  15.946  10.591  0.0189 -0.1742 -0.2574
15318W        W33522  15.018   7.239  11.141 -0.1644 -0.1405 -0.0202
15319W        W33523   6.439  16.857   4.461  0.1558 -0.0884  0.1994
15320W        W33524  10.750   0.923  10.982  0.2681  0.1053 -0.0145
15321W        W33525  16.776  13.158   2.594  0.0629  0.2366 -0.1688
15322W        W33526   4.815   7.515  12.981  0.1925 -0.0412  0.1434
15323W        W33527  11.592  10.081   0.190  0.1325  0.1108  0.0384
15324W        W33528   1.372   4.996   2.513 -0.0987 -0.1197  0.1955
15325W        W33529  17.947   9.088  14.814  0.1095  0.2251  0.0156
15326W        W33530   5.525  17.082   1.831 -0.2244  0.1129  0.3927
15327W        W33531  12.681  10.112  14.251  0.0706  0.1998 -0.1373
15328W        W33532   2.701  10.657   1.903  0.0497 -0.6852 -0.0570
15329W        W33533  12.311   9.120   4.301 -0.1572  0.1798 -0.0019
15330W        W33534   9.744   2.274   4.307  0.1273  0.2736  0.3530
15331W        W33535  12.082  11.943  11.688 -0.2200 -0.1110 -0.2685
15332W        W33536   7.208  10.514   1.984 -0.1358 -0.0477  0.0324
15333W        W33537   0.139   7.231   1.161 -0.0436 -0.0810  0.1299
15334W        W33538  11.247  14.677   0.143  0.0642  0.1078 -0.1620
15335W        W33539   2.407   0.537  10.931  0.0731  0.1272  0.0608
15336W        W33540   1.683   2.756  11.469 -0.0308 -0.3148 -0.0774
15337W        W33541  14.622   3.828   3.550 -0.0819  0.0603  0.0810
15338W        W33542   7.950  10.036  14.020 -0.2060 -0.2078  0.1012
15339W        W33543   2.160  12.176  14.019 -0.1408  0.4293 -0.0325
15340W        W33544   8.783  15.315  11.318  0.2321 -0.3727 -0.3447
15341W        W33545   9.594   5.439   4.846 -0.5003 -0.3476 -0.1306
15342W        W33546   8.397   6.971  14.563 -0.4477  0.0371  0.1715
15343W        W33547  16.241  18.725  11.695 -0.0455 -0.1531 -0.0076
15344W        W33548  13.638  10.393   3.675 -0.1258  0.0686  0.3715
15345W        W33549   3.131  10.845  14.089  0.1498 -0.2922  0.1404
15346W        W33550  18.192   8.123  14.652 -0.1156  0.1954 -0.3376
15347W        W33551   6.659  13.400  10.993  0.0975 -0.0732 -0.1730
15348W        W33552   2.979   1.210   3.391 -0.0344  0.1543  0.1319
15349W        W33553   7.882  15.624   2.341  0.0861  0.1907  0.1027
15350W        W33554   3.602   4.219  14.228 -0.1223 -0.1438  0.1821
15351W        W33555   9.228   1.537  11.006 -0.1166  0.0429 -0.0235
15352W        W33556   6.646  16.138  11.812 -0.1144  0.0423 -0.0877
15353W        W33557   4.175  10.048   3.374 -0.1245 -0.0234  0.1772
15354W        W33558  10.459   7.517  11.018  0.2705 -0.0052  0.0168
15355W        W33559   5.994  12.158   0.749  0.2531 -0.1853 -0.1417
15356W        W33560  12.681   8.371   4.530  0.1539  0.0290  0.4070
15357W        W33561  15.527   8.367   3.644  0.4012 -0.3513  0.2667
15358W        W33562   0.208   0.211  12.141 -0.1687 -0.1940  0.1455
15359W        W33563  15.507   4.034   4.247 -0.1677 -0.3759 -0.0707
15360W        W33564   0.330  13.461   2.237 -0.1632 -0.1931 -0.1064
15361W        W33565  14.863   6.614   0.841  0.2689 -0.5476  0.1029
15362W        W33566   9.078   3.569   3.312  0.0033  0.2026 -0.1149
15363W        W33567   0.665   5.800   0.592  0.1613  0.1939 -0.0417
15364W        W33568   7.611  13.787   0.931  0.0599  0.2882 -0.0161
15365W        W33569   3.814  14.506  14.193  0.1094 -0.0742  0.1118
15366W        W33570  14.609   0.292   2.809 -0.1884  0.2540 -0.0501
15367W        W33571   2.433  15.162  12.260 -0.0564  0.0599 -0.0902
15368W        W33572  15.016   5.094   3.159 -0.0060 -0.0475 -0.2227
15369W        W33573  15.244  15.896   3.316 -0.2432 -0.0793  0.3977
15370W        W33574  10.348   3.919  11.991 -0.1902 -0.0069  0.1591
15371W        W33575   4.889   7.019   4.749 -0.1445 -0.4792  0.0879
15372W        W33576   5.959   5.415  11.519 -0.1721 -0.0374 -0.0752
15373W        W33577   4.309   5.840   1.999  0.1572  0.2023  0.0143
15374W        W33578  11.840  11.050   3.765  0.0230 -0.1185  0.0689
15375W        W33579  17.607   3.386   2.812  0.0320  0.2962 -0.1418
15376W        W33580   7.504  12.984   9.710 -0.2107  0.2818  0.4118
15377W        W33581   9.154   5.994   1.188  0.2202  0.2422  0.0944
15378W        W33582  11.021   4.124  14.536 -0.1937 -0.3309  0.0379
15379W        W33583   7.254  12.880   2.992 -0.2046  0.0002  0.1846
15380W        W33584  17.060  11.266   2.128  0.0864 -0.2177 -0.2824
15381W        W33585  15.906   6.731  12.973  0.0160  0.1513 -0.0120
15382W        W33586   7.787  10.814   0.670 -0.1859 -0.0117 -0.3000
15383W        W33587  12.788  12.826  11.417  0.1874  0.1443 -0.3009
15384W        W33588   1.806  11.622   2.109  0.0019 -0.0908 -0.1774
15385W        W33589   6.387  11.490  12.954  0.1412  0.4420 -0.2089
15386W        W33590   9.403   0.311   1.877 -0.0390  0.3047 -0.3269
15387W        W33591  17.126  16.422  12.839 -0.4962 -0.0267  0.0536
15388W        W33592   4.797  14.090   3.795  0.1693 -0.1456 -0.0637
15389W        W33593   5.092   1.218  12.690  0.2008  0.1351  0.2431
15390W        W33594   6.930  17.371   3.569  0.0902 -0.3346  0.1152
15391W        W33595  16.049  10.204  13.221  0.0909 -0.1933 -0.0789
15392W        W33596   1.234   1.836   2.806  0.2520 -0.2842  0.0838
15393W        W33597  11.336   2.195  14.308 -0.0776  0.1326  0.1654
15394W        W33598   9.470  16.759  12.901  0.0274  0.1594  0.2396
15395W        W33599  18.069  16.300  10.566 -0.3445  0.0851 -0.0339
15396W        W33600  15.245   6.522  13.568  0.0700 -0.2018  0.1296
15397W        W33601   5.423   1.035  14.676 -0.2335  0.2832  0.0894
15398W        W33602  16.905   7.291  13.809  0.0488 -0.2654 -0.0452
15399W        W33603   0.818  17.130  14.182 -0.1746 -0.1013 -0.2435
15400W        W33604   3.240  12.622   3.600  0.0359  0.0649 -0.0160
15401W        W33605  17.338  17.373   0.219  0.1127 -0.1274 -0.1890
15402W        W33606   1.023  15.210  14.434  0.0398 -0.0776  0.0029
15403W        W33607   1.547  13.928  14.872 -0.2334  0.3071 -0.0105
15404W        W33608  14.252   3.012  13.890  0.0757 -0.0011 -0.2527
15405W        W33609  11.148   4.201  11.693  0.0195  0.0053 -0.0073
15406W        W33610   3.691  13.233  11.938  0.1543  0.0526 -0.2014
15407W        W33611  10.844   5.169   3.303 -0.4170  0.1829  0.0707
15408W        W33612   8.447   6.050   4.232 -0.2587  0.0869  0.0570
15409W        W33613   8.720   2.098  12.896 -0.1520  0.1110 -0.0212
15410W        W33614  11.019   6.507   2.246 -0.2964  0.0620 -0.1374
15411W        W33615  12.313   6.992   1.333  0.0443  0.0075 -0.1329
15412W        W33616   2.195  12.147   2.840 -0.3610  0.0390 -0.0195
15413W        W33617  13.391   9.271   1.394 -0.3227  0.4295 -0.1998
15414W        W33618  11.334  12.655  11.628  0.0004  0.4709  0.0709
15415W        W33619  13.190  10.063  13.042  0.0785  0.1164  0.2816
15416W        W33620   2.358  11.415  14.517  0.2891  0.0597  0.2709
15417W        W33621   2.911   7.002   2.883 -0.0466 -0.0851  0.0321
15418W        W33622  11.492  16.283   1.183  0.1204  0.1426 -0.2348
15419W        W33623   1.502   8.967  14.844 -0.1564 -0.1388 -0.0326
15420W        W33624   4.947  11.752   9.389  0.1675  0.2478  0.2477
15421W        W33625   6.621  18.823   2.503 -0.2305 -0.1329  0.2138
15422W        W33626  10.730   0.420   1.767 -0.0622  0.1089  0.0079
15423W        W33627   2.953   3.012  13.174  0.3764  0.1269 -0.0268
15424W        W33628   9.815   7.914   2.144 -0.0385 -0.2412 -0.1596
15425W        W33629  13.786  10.640  12.523  0.4148  0.0465  0.4236
15426W        W33630  13.860   8.128  14.184  0.1860 -0.0099  0.3529
15427W        W33631   4.399   9.144   3.394 -0.0138  0.1375 -0.3843
15428W        W33632   4.031  10.463  11.575  0.2621  0.4205  0.0335
15429W        W33633  17.277   2.957  11.777 -0.0316  0.0435 -0.0786
15430W        W33634  11.732   2.747   3.392 -0.3532 -0.1297 -0.1155
15431W        W33635  18.633  16.481  11.136  0.0512  0.0314  0.1173
15432W        W33636   5.887   4.191   3.811  0.0054 -0.1449  0.2661
15433W        W33637   0.026   6.723   2.070  0.0195  0.0387 -0.0767
15434W        W33638   5.060   5.904  11.716 -0.2750 -0.1151 -0.0843
15435W        W33639   8.615   3.806  13.484  0.2337 -0.3374  0.3609
15436W        W33640  13.417   4.361   1.503  0.1056  0.2815  0.1119
15437W        W33641   8.250  10.888  10.307  0.0675  0.1497  0.1783
15438W        W33642   3.050   8.619   1.381 -0.0793 -0.0774  0.0946
15439W        W33643  12.646  18.049   1.567  0.0770  0.5419 -0.3816
15440W        W33644  10.792  18.750  10.456 -0.2382  0.0167  0.1928
15441W        W33645  13.941   0.924   3.727 -0.1577  0.0197  0.0064
15442W        W33646  14.500   2.879  11.181  0.0421  0.0039 -0.3550
15443W        W33647  16.614  17.500   3.857 -0.2059  0.0334 -0.2443
15444W        W33648   7.468   1.022   1.898  0.1037 -0.1483  0.2916
15445W        W33649   3.396   7.034   3.118  0.1771 -0.0618  0.2283
15446W        W33650  13.958  14.781   2.846 -0.0983  0.0254 -0.2257
15447W        W33651   3.242   3.804  12.045 -0.2146 -0.0328  0.0949
15448W        W33652  13.546  18.372  11.067  0.0626  0.2571  0.2097
15449W        W33653   3.970   4.288  12.500 -0.0343  0.4806  0.1075
15450W        W33654  11.264   5.267   1.792 -0.2122  0.0587  0.1876
15451W        W33655   5.048  14.312   2.876 -0.2479  0.0440 -0.1008
15452W        W33656  18.323   6.326   3.339 -0.0683  0.0790  0.0547
15453W        W33657  14.639   2.118   3.860  0.2215  0.1700 -0.0405
15454W        W33658  14.352  13.524  11.851 -0.0371  0.1074 -0.0448
15455W        W33659   8.187   3.939  12.091 -0.0884 -0.1191  0.2928
15456W        W33660   6.121   9.396   3.053  0.0416 -0.3077 -0.2683
15457W        W33661  13.598  12.832   1.309  0.1985  0.2220 -0.0108
15458W        W33662   4.336   5.340   1.160  0.1058 -0.1111 -0.0450
15459W        W33663   8.880   8.329   1.168  0.1595  0.0197  0.2705
15460W        W33664   7.483   1.032  12.219 -0.0373 -0.2328  0.0674
15461W        W33665   0.472  12.958   0.568  0.0168  0.0991 -0.1306
15462W        W33666   7.488   8.306   3.686  0.1598  0.1439 -0.4018
15463W        W33667   0.628   6.337   3.663 -0.0427 -0.0239 -0.0163
15464W        W33668   7.416  11.889  11.698 -0.0266  0.0155  0.0757
15465W        W33669  12.807  11.606   3.612 -0.2877  0.4312  0.1175
15466W        W33670   9.974  15.366  11.071  0.3277 -0.1416 -0.0688
15467W        W33671  14.531   0.248   2.277  0.0191 -0.1280 -0.0485
15468W        W33672  15.551   4.785   2.094  0.0009  0.2745  0.0422
15469W        W33673  14.655  11.518   2.052  0.1360 -0.2535 -0.2403
15470W        W33674   4.530   5.605  12.616 -0.2844  0.1737 -0.2500
15471W        W33675   6.384   5.574   5.199  0.1581  0.1347 -0.0894
15472W        W33676   6.491  14.507  12.773  0.0756  0.1850 -0.0322
15473W        W33677   5.936   8.051   4.563 -0.4845  0.1904  0.1838
15474W        W33678   2.585  14.767  11.973 -0.1462  0.1506 -0.1304
15475W        W33679  10.883   9.857  10.834 -0.3139  0.3377 -0.1349
15476W        W33680   8.399  10.334  11.142  0.0021  0.0489 -0.1275
15477W        W33681   6.555   9.418   0.724 -0.1007  0.3365  0.0529
15478W        W33682   2.195  13.673   3.002 -0.3182 -0.2222 -0.1479
15479W        W33683  10.276  15.646  13.747 -0.0591 -0.0057 -0.2299
15480W        W33684   8.629  12.699  13.297 -0.1893  0.1262 -0.2484
15481W        W33685   8.093  16.775   2.562 -0.0062 -0.1007  0.1209
15482W        W33686  12.735   2.007  12.882  0.3080 -0.3429 -0.0572
15483W        W33687  16.320  12.662   1.236 -0.0526 -0.0477 -0.1535
15484W        W33688   2.358   2.974   9.848 -0.2441 -0.0641  0.1351
15485W        W33689  11.698  12.062  13.517  0.3262 -0.1389  0.0944
15486W        W33690  18.167   1.903  12.118  0.0946 -0.1147  0.1029
15487W        W33691  12.943  18.158  14.796  0.0622  0.1233 -0.1236
15488W        W33692  12.778  10.947  11.868  0.2003  0.1954  0.0935
15489W        W33693  11.453   4.478   0.164  0.3088 -0.0623 -0.0592
15490W        W33694   6.178  13.425  11.873 -0.2842 -0.1999 -0.3335
15491W        W33695   3.646   5.351  10.998  0.1000  0.6301  0.2640
15492W        W33696  17.106   6.756  13.363  0.0855 -0.1500  0.1337
15493W        W33697   6.692   0.621   3.023 -0.0081 -0.3045 -0.0925
15494W        W33698  18.100  10.310  10.616 -0.0651  0.2587  0.0157
15495W        W33699  18.342  12.728   1.083  0.1497  0.0442  0.0762
15496W        W33700   9.243  18.474   1.906  0.2832  0.1672 -0.2267
15497W        W33701   6.070   6.866  11.991 -0.0924  0.0626 -0.0210
15498W        W33702  18.612   5.477  12.019  0.2861 -0.2264 -0.0690
15499W        W33703  18.026   0.032   0.970 -0.2089 -0.1895 -0.0904
15500W        W33704   7.972  13.422  12.693 -0.3399 -0.0777  0.1089
15501W        W33705   3.999  13.951   3.077  0.1903  0.0309  0.3199
15502W        W33706  13.550  13.786  14.984  0.2411  0.1974  0.2924
15503W        W33707   4.852   4.564   0.810 -0.0628 -0.0184 -0.2127
15504W        W33708   1.250  17.462  11.366 -0.2528 -0.1924  0.1886
15505W        W33709   1.079   3.423  14.030 -0.2312  0.1620  0.2219
15506W        W33710  10.538   5.395   1.016  0.1367  0.0327  0.0381
15507W        W33711   6.888   5.887  10.949 -0.1673 -0.1012 -0.0166
15508W        W33712  10.535  12.518   5.438  0.3456 -0.0442  0.1807
15509W        W33713   8.423   5.839  13.356 -0.3519 -0.1626  0.2640
15510W        W33714   2.316  10.225  14.142  0.0682  0.2699  0.1453
15511W        W33715  18.272  11.443  13.192 -0.0891 -0.2902  0.2282
15512W        W33716   9.526  10.927   1.855  0.2252  0.0273 -0.0627
15513W        W33717  14.575   2.898   3.633 -0.0853 -0.0646 -0.1722
15514W        W33718   3.443  11.401  12.028  0.0371  0.1614 -0.0243
15515W        W33719  15.418   2.928  10.510  0.2391 -0.0302 -0.1478
15516W        W33720  17.157   4.068   0.760  0.1538  0.0723 -0.0533
15517W        W33721  18.054   9.657  10.826  0.0727 -0.0118 -0.2023
15518W        W33722   8.692  17.317   3.670 -0.2168  0.2559  0.1559
15519W        W33723   1.724   4.666  14.010 -0.0140  0.1376 -0.1185
15520W        W33724  14.237   0.796   3.296  0.0472  0.0376 -0.1204
15521W        W33725   3.777   1.495   0.579 -0.1742  0.0893  0.1118
15522W        W33726   1.425   8.888  11.861 -0.0092  0.2341 -0.1101
15523W        W33727   4.994  16.956   3.958 -0.1241  0.1500 -0.0556
15524W        W33728   1.050  11.531  10.027 -0.0499 -0.1249 -0.0805
15525W        W33729   0.058  18.929   3.051 -0.0796  0.1520  0.0498
15526W        W33730   8.467   4.953  12.763 -0.1800 -0.1309  0.0366
15527W        W33731  12.292   0.737   1.241  0.1096  0.1910  0.0782
15528W        W33732  11.554  15.812  10.253  0.0373  0.0803  0.2087
15529W        W33733  18.408   9.362  15.018 -0.3340  0.5051  0.2688
15530W        W33734   0.559  13.221  13.110 -0.1694  0.1338  0.5854
15531W        W33735  12.266  12.931   3.632 -0.0165  0.0640 -0.2536
15532W        W33736  12.099   1.579  13.303 -0.1723 -0.1796 -0.2529
15533W        W33737   6.570   1.560  11.630 -0.1391  0.1348 -0.2611
15534W        W33738   4.274  10.518   1.464  0.4346  0.1981  0.2767
15535W        W33739  16.874  18.073  11.941 -0.1103 -0.1541  0.2230
15536W        W33740   9.080  15.687   4.437 -0.0111  0.1791 -0.0916
15537W        W33741   1.942   0.810   2.987 -0.0399  0.0287 -0.0913
15538W        W33742   2.818  15.458  10.679  0.0117 -0.1476  0.1532
15539W        W33743   1.789  12.594   1.761  0.3003 -0.1693  0.0039
15540W        W33744   2.285   0.106   1.297  0.3194 -0.0154  0.1394
15541W        W33745  17.227  15.366   5.102 -0.3219 -0.0589 -0.0727
15542W        W33746  14.867   9.174  10.766  0.1995  0.1340 -0.1659
15543W        W33747   0.184   4.929   4.248 -0.2466 -0.0207  0.0417
15544W        W33748  10.526   2.206  11.319 -0.0732  0.2121 -0.2681
15545W        W33749   8.056  12.890  11.455 -0.0861 -0.2146  0.1613
15546W        W33750   9.538   2.981  14.912  0.1698  0.4348  0.1984
15547W        W33751  16.330  12.894  13.837 -0.1684  0.0263 -0.2048
15548W        W33752   2.441   4.415  12.895  0.1124  0.1230  0.2130
15549W        W33753  18.106  12.170  12.775 -0.1954  0.2534  0.0496
15550W        W33754  10.566   0.585  12.795 -0.1693 -0.0039 -0.0798
15551W        W33755   6.681  15.363   2.985 -0.1986  0.0260 -0.2276
15552W        W33756  11.468   9.808  14.253 -0.3348 -0.0156 -0.2513
15553W        W33757   8.400   1.156   3.858 -0.1978 -0.0204 -0.0238
15554W        W33758  13.494   3.391  13.497  0.1290 -0.2463  0.1523
15555W        W33759   7.805  16.041  12.823 -0.0180 -0.1921 -0.1607
15556W        W33760   0.845   5.604   2.877 -0.2434  0.0360 -0.0192
15557W        W33761   4.893  13.278   0.388 -0.0305  0.1082  0.1781
15558W        W33762  14.474   7.527   2.271 -0.0262 -0.0604  0.1815
15559W        W33763  18.576   9.320   3.664  0.1850 -0.3981 -0.0137
15560W        W33764   0.500   8.401  12.584 -0.2147 -0.2053  0.0190
15561W        W33765   8.353   7.662  13.075  0.0344  0.2190 -0.5499
15562W        W33766   3.625  15.823  12.108  0.1130  0.3663  0.0837
15563W        W33767   9.002   6.710  12.439  0.4110 -0.0407 -0.1373
15564W        W33768  16.159  13.306  14.081  0.1519 -0.3182 -0.1834
15565W        W33769  13.914   9.614   0.716 -0.1522 -0.1779 -0.0287
15566W        W33770  13.409  10.164   0.201  0.0308  0.1122  0.0912
15567W        W33771   1.243   9.788   0.496 -0.0136 -0.0473  0.1932
15568W        W33772  14.292   3.423  11.872 -0.1212  0.1321 -0.1630
15569W        W33773  18.130  10.579  12.464  0.0104  0.0004 -0.0390
15570W        W33774   4.114  17.701  10.908 -0.1847  0.1323 -0.1111
15571W        W33775   3.978   6.400  13.555 -0.3498  0.2781  0.0607
15572W        W33776   7.023  18.482   1.034 -0.0938 -0.0895 -0.0305
15573W        W33777   0.175  18.439  12.497  0.2039 -0.1101 -0.1710
15574W        W33778  17.576   4.889   1.547  0.1934 -0.2055  0.0679
15575W        W33779  15.597   1.268  12.950  0.0365  0.1551  0.2974
15576W        W33780  18.165  15.457   1.691 -0.2956 -0.1483 -0.2157
15577W        W33781  16.529  13.397   1.790  0.1065 -0.2250 -0.1194
15578W        W33782  17.768   4.515   3.944  0.1247 -0.0983  0.0418
15579W        W33783   1.412   1.104  13.348  0.3548  0.3860 -0.1548
15580W        W33784  11.736   3.285   2.270 -0.3161  0.1918  0.3579
15581W        W33785  17.592   7.920   0.432 -0.0460  0.0766 -0.2504
15582W        W33786  12.077   8.216  12.729 -0.0361 -0.2364  0.4124
15583W        W33787   8.637   6.823  13.658 -0.0785  0.1499 -0.0620
15584W        W33788   6.789  12.776   1.717 -0.2580 -0.1053 -0.4176
15585W        W33789  11.468  10.729  12.330  0.2126 -0.1739  0.2561
15586W        W33790   8.048  10.753  12.037  0.1222  0.3586  0.1966
15587W        W33791   2.210   5.348   2.571 -0.0104  0.0270  0.1893
15588W        W33792   2.901   2.564   4.105  0.1146  0.2325 -0.2856
15589W        W33793   0.918  10.762  11.672 -0.2981  0.1509  0.4241
15590W        W33794  17.914  12.645  14.197 -0.4341  0.2246 -0.1734
15591W        W33795   1.373  13.299   0.363 -0.0661 -0.1385  0.2596
15592W        W33796   1.332   7.482   0.081  0.2357 -0.1295 -0.1768
15593W        W33797  15.612   1.456  10.642  0.2415 -0.1164  0.1933
15594W        W33798   5.209   4.490  14.971 -0.1276 -0.3489  0.3897
15595W        W33799  11.106  13.649  13.689 -0.3162  0.1416 -0.1869
15596W        W33800  11.471   7.009  12.383 -0.1453 -0.2306 -0.1578
15597W        W33801   4.445   1.711   3.971 -0.0920  0.1241  0.0321
15598W        W33802   9.929   0.079   0.602  0.1339  0.0075  0.2746
15599W        W33803   9.894  11.854   0.045  0.3042  0.0782  0.1999
15600W        W33804   3.133  10.261   9.649 -0.0736 -0.1129  0.0718
15601W        W33805  15.081  15.385  11.098 -0.2017  0.2951 -0.0084
15602W        W33806  13.813  12.209  13.502 -0.2954 -0.0610 -0.0991
15603W        W33807   0.035   3.523  10.142  0.1516 -0.2605  0.0661
15604W        W33808  16.995   4.150   2.804 -0.1584  0.1995  0.0441
15605W        W33809   0.797   8.171   4.172 -0.0008  0.2724  0.1894
15606W        W33810   5.774  14.387   2.566 -0.0777 -0.1107 -0.2371
15607W        W33811   3.920   3.823  12.875  0.2339 -0.1671  0.1142
15608W        W33812   0.431   2.196  11.884 -0.2271  0.1239 -0.1526
15609W        W33813   8.832  18.722  14.676 -0.3620  0.2461 -0.1745
15610W        W33814   9.776   1.673   0.097  0.1627 -0.1691 -0.2017
15611W        W33815   2.729   2.216   9.687  0.1391 -0.3878  0.3847
15612W        W33816   4.455  15.787   1.000 -0.1594 -0.4856 -0.2331
15613W        W33817   7.760   7.151  14.087 -0.2847 -0.0414  0.1047
15614W        W33818   1.274   5.396  15.012  0.1748 -0.1241 -0.0534
15615W        W33819  14.111  18.104  13.001 -0.1085  0.0407 -0.0613
15616W        W33820  14.914   7.805   3.498  0.0702 -0.2669 -0.1043
15617W        W33821  11.049  16.806   3.154  0.1576  0.1293  0.3839
15618W        W33822  14.957   5.777  12.560  0.1737 -0.4839 -0.1270
15619W        W33823  15.857  15.808   0.450  0.0051 -0.2893 -0.0094
15620W        W33824   9.792  12.972  10.630 -0.0988 -0.2745  0.1236
15621W        W33825   6.412  12.691   3.169 -0.2040 -0.2119  0.0362
15622W        W33826  13.903  18.227  14.664  0.0115  0.1124  0.3311
15623W        W33827   7.709  13.068  10.777 -0.0647 -0.1800 -0.0806
15624W        W33828   8.859   8.117   0.315 -0.0697 -0.2166  0.3768
15625W        W33829  12.470  14.207  11.516  0.0392 -0.2231 -0.1150
15626W        W33830  10.898  10.762   0.153 -0.2123 -0.2635 -0.2829
15627W        W33831  16.753   5.606   4.347 -0.0661 -0.3352  0.1610
15628W        W33832   4.593   0.752   3.358 -0.2854  0.0995  0.2390
15629W        W33833   8.787  18.079   1.488  0.1980  0.0282  0.1564
15630W        W33834   3.390  14.545   0.750  0.0913 -0.0389 -0.0679
15631W        W33835   5.141   8.384   0.652  0.0746  0.0376  0.0038
15632W        W33836  10.256  16.806   2.750 -0.0139 -0.3090 -0.2921
15633W        W33837   5.812   0.727  12.693  0.1594 -0.0509  0.1486
15634W        W33838   4.702   8.347   0.355  0.0226  0.1563  0.1199
15635W        W33839  12.357   1.452  14.860  0.2354  0.1023  0.0380
15636W        W33840   1.005   7.694   3.190 -0.1338  0.1086 -0.2734
15637W        W33841   2.811  17.424  12.393 -0.0230 -0.3086 -0.2737
15638W        W33842  11.921   8.690   1.784 -0.0392 -0.0869  0.2339
15639W        W33843  13.198  16.324   0.136 -0.5049  0.1071 -0.0387
15640W        W33844  18.728  12.602   4.141 -0.0157  0.2141  0.1536
15641W        W33845   2.729  17.379  10.774  0.0032 -0.3259  0.0488
15642W        W33846   3.489   3.621   4.210  0.2319  0.1972 -0.2869
15643W        W33847  14.985  10.643   0.597 -0.0581  0.1247  0.2706
15644W        W33848   1.492  10.388   1.705  0.0868  0.0232 -0.1855
15645W        W33849   4.215   2.481   2.775 -0.1528 -0.2625 -0.0280
15646W        W33850  12.655  18.538  14.696 -0.0330  0.0432  0.0636
15647W        W33851  14.884   5.921   2.059 -0.0250  0.0099 -0.3122
15648W        W33852   1.849  16.221   4.246 -0.1736 -0.0721 -0.1405
15649W        W33853   3.711   3.972   0.360 -0.2240 -0.0009 -0.2412
15650W        W33854   3.810  14.047   9.704 -0.1010  0.0097  0.1884
15651W        W33855  15.408   7.900   3.473 -0.1306  0.0732  0.2475
15652W        W33856   3.176  18.191   2.667 -0.1828  0.3465 -0.0536
15653W        W33857  17.464  16.548   0.047 -0.0380  0.0332  0.3106
15654W        W33858   3.658   2.612  14.915  0.0298 -0.1582  0.2874
15655W        W33859   1.353  10.949   0.600 -0.0279 -0.0835  0.0854
15656W        W33860   0.608  17.934   3.684 -0.0214 -0.0861  0.1015
15657W        W33861  12.995  10.470  12.785 -0.0178  0.0778 -0.2084
15658W        W33862  17.019  17.814   1.609 -0.0220  0.0051  0.0087
15659W        W33863   4.037   3.617  13.510  0.0817  0.0619  0.0039
15660W        W33864  15.975   6.028  11.822  0.0799  0.0527 -0.0095
15661W        W33865  17.088   3.257  12.292  0.0664 -0.3931  0.0673
15662W        W33866  14.981   0.702  13.830 -0.0122  0.0902 -0.0937
15663W        W33867   6.572   7.283   2.757  0.0223 -0.3028  0.0618
15664W        W33868   1.522   7.672   1.997  0.0062  0.0862  0.2203
15665W        W33869  13.900  11.993   2.309  0.2855  0.0362  0.2027
15666W        W33870   0.751   0.685  12.465  0.1386 -0.3021 -0.0859
15667W        W33871   8.182  14.052   4.849  0.3311 -0.3328 -0.0491
15668W        W33872   7.637  16.517  13.033  0.0598 -0.2609  0.1617
15669W        W33873  12.839  13.910   2.973  0.0281  0.0091 -0.2129
15670W        W33874   1.680   3.197   0.870  0.2425 -0.1794  0.4074
15671W        W33875   8.854  10.677   3.507  0.1829 -0.1534 -0.1301
15672W        W33876  14.209   9.448   0.261 -0.2053  0.0392 -0.1487
15673W        W33877   0.747  14.427  12.113  0.0624 -0.0807  0.0343
15674W        W33878  12.083   5.361   2.065 -0.1200 -0.2198 -0.2191
15675W        W33879  18.156  10.203   4.374 -0.2978  0.2233 -0.0359
15676W        W33880   6.483   8.765  12.101 -0.0137 -0.0196 -0.0483
15677W        W33881  10.530   4.537  12.791  0.2502 -0.1247 -0.3611
15678W        W33882   7.793  11.584   2.646  0.2613 -0.1468  0.3719
15679W        W33883   0.752  15.126   0.998  0.0841  0.0017  0.1153
15680W        W33884  12.739   0.071  13.206  0.2264  0.0807  0.0296
15681W        W33885  17.242  14.072  12.937 -0.3831 -0.1382 -0.1273
15682W        W33886   3.950   5.799  14.923 -0.0753 -0.0328  0.2799
15683W        W33887   4.278   1.604  11.609  0.2311 -0.0487 -0.1053
15684W        W33888   6.853   1.875   2.385  0.2230  0.0651 -0.0800
15685W        W33889  11.708  10.186  11.488  0.2672 -0.0375  0.0992
15686W        W33890   1.133  18.023  13.531 -0.1601 -0.1097  0.1630
15687W        W33891   7.177  11.531   3.962  0.2553  0.0685 -0.0154
15688W        W33892  16.040  16.716  10.176  0.1659  0.1909  0.0128
15689W        W33893   9.382  10.678  12.234  0.0854  0.0745  0.0570
15690W        W33894   9.986   4.760   0.496  0.0242 -0.0617  0.3287
15691W        W33895  15.239   6.658  10.593 -0.1984  0.1781  0.0408
15692W        W33896   5.226   4.647   2.604  0.2755  0.0591  0.1565
15693W        W33897   7.391   9.214   3.717  0.0024 -0.1167  0.0963
15694W        W33898  10.126   9.106   0.590  0.1914 -0.1377  0.1320
15695W        W33899  12.420   1.449   5.119 -0.1484  0.1211 -0.1272
15696W        W33900  10.533   5.733   1.475  0.0206 -0.3288  0.0709
15697W        W33901   8.221  14.906   4.551 -0.1977  0.2425  0.0829
15698W        W33902   7.231  14.460  14.283 -0.2278 -0.1416  0.0097
15699W        W33903   5.705  17.186   2.266 -0.0876  0.0236  0.0268
15700W        W33904  12.495   7.409   0.610 -0.0909 -0.0120 -0.3270
15701W        W33905   1.532  12.088   3.300 -0.2450 -0.2606 -0.1337
15702W        W33906   8.215   6.842   3.904  0.1184  0.0546 -0.1497
15703W        W33907   0.113  17.902  13.743  0.1821 -0.2290  0.0974
15704W        W33908   4.837   4.674   1.370 -0.3927  0.4670 -0.2232
15705W        W33909  10.965  11.260  14.200  0.3027 -0.0741 -0.0463
15706W        W33910   1.102   6.072   2.874  0.0005 -0.2733  0.3347
15707W        W33911  10.671   7.405   0.684 -0.1145 -0.1589  0.1171
15708W        W33912   1.514   3.600  14.683 -0.1719 -0.0269  0.0712
15709W        W33913   8.638   9.096   4.283 -0.0277 -0.0427  0.0415
15710W        W33914  13.416  14.084  13.991  0.1718  0.0188 -0.2834
15711W        W33915  14.889   2.971  13.686  0.2623  0.1261  0.0608
15712W        W33916  12.117  15.708  11.001  0.1555 -0.0440  0.1508
15713W        W33917   5.761   2.950   5.400  0.3624  0.1633 -0.1086
15714W        W33918  11.267  17.841  13.469  0.1816 -0.2737 -0.0757
15715W        W33919   9.771  15.212  13.360  0.1068  0.0148 -0.0344
15716W        W33920  18.895  14.506  11.828 -0.3127 -0.1276  0.3499
15717W        W33921   3.663   0.975   0.585 -0.0403  0.0004  0.2759
15718W        W33922   7.928   0.507  15.022  0.2081 -0.1992  0.0344
15719W        W33923   9.119   6.706  13.807  0.2481  0.0396  0.0232
15720W        W33924  11.298  10.508   4.222 -0.0978  0.0099 -0.1741
15721W        W33925  17.045  12.345  11.520  0.2688  0.2714 -0.3609
15722W        W33926   3.367   0.819  13.234  0.2544  0.0792 -0.0435
15723W        W33927  12.653   6.079   1.148 -0.3257 -0.0385 -0.0147
15724W        W33928   4.561  17.183   3.738 -0.1977  0.0344 -0.1756
15725W        W33929   6.294  18.935   3.984 -0.0422 -0.0002 -0.2932
15726W        W33930  11.390   4.559  14.708 -0.1401  0.1046 -0.0128
15727W        W33931   2.615   3.207   2.965 -0.0614 -0.3302 -0.3771
15728W        W33932  16.660  12.520  14.917  0.1066 -0.2227  0.1080
15729W        W33933   2.505   8.768   2.951  0.0569  0.0346  0.2582
15730W        W33934   9.937   4.089   0.973 -0.1979 -0.0273 -0.0009
15731W        W33935  12.916   5.500   1.293  0.0717 -0.2368 -0.1193
15732W        W33936  14.894  18.294   1.209  0.2353  0.0417 -0.1563
15733W        W33937  11.945  16.879   0.337 -0.0505  0.0698 -0.0252
15734W        W33938  10.143  10.702   2.234  0.1339 -0.1596  0.1698
15735W        W33939   8.930  11.187   3.402  0.0884  0.1555  0.0434
15736W        W33940   9.645  10.662   2.876 -0.0699  0.1646 -0.1433
15737W        W33941   2.284  17.453   4.436 -0.0771  0.1177 -0.5008
15738W        W33942  15.945   6.554  12.206  0.0337  0.2208  0.0697
15739W        W33943  10.118  15.198   2.492  0.0362 -0.0637 -0.1120
15740W        W33944   6.956  18.180   2.881 -0.1286 -0.1091  0.0488
15741W        W33945  11.158  10.663  12.823 -0.0496 -0.3890  0.0625
15742W        W33946   3.184  16.477  11.667 -0.3029  0.2194 -0.2005
15743W        W33947  12.121  16.382  11.795  0.0372  0.0238 -0.0414
15744W        W33948  17.151   6.318   3.865 -0.0904 -0.0955  0.1287
15745W        W33949   9.909   3.254  12.701  0.3520  0.0860 -0.2341
15746W        W33950   7.612  15.929   4.531  0.5183 -0.0690 -0.1933
15747W        W33951   6.806  15.742  12.127 -0.0342  0.0746  0.1401
15748W        W33952   7.629  16.116   2.948 -0.1719 -0.0815 -0.0286
15749W        W33953  15.126   6.872   2.261  0.4439  0.4656  0.1179
15750W        W33954   7.524  10.731   2.362 -0.0533  0.1059 -0.0994
15751W        W33955  10.308  11.612   1.937  0.0454  0.1432  0.4450
15752W        W33956  10.181   0.846  11.849 -0.1145  0.3846 -0.0246
15753W        W33957   9.342  15.839   1.566 -0.0209  0.3958  0.1521
15754W        W33958   0.948   5.102   2.240 -0.1210  0.2480  0.0663
15755W        W33959   8.095  11.341   0.013 -0.0265 -0.1440 -0.0876
15756W        W33960  11.767   4.326  13.973  0.2191  0.2615  0.3267
15757W        W33961  14.762   3.403   1.829 -0.3104 -0.1608  0.1685
15758W        W33962   8.795  18.841   1.043  0.0729 -0.3758  0.3522
15759W        W33963  14.151  11.840  14.833 -0.0295  0.0986 -0.0315
15760W        W33964  14.574   4.419  11.586 -0.0919  0.0228 -0.1797
15761W        W33965   5.758  12.133   1.299  0.2657  0.0202 -0.0912
15762W        W33966  16.939   6.620   2.334 -0.0082  0.1398 -0.7126
15763W        W33967  13.589   6.188   0.365 -0.1021 -0.3818 -0.3342
15764W        W33968  15.580   4.260   3.299 -0.1543  0.1245 -0.1519
15765W        W33969   6.600  11.734  14.305  0.1746  0.0630 -0.2490
15766W        W33970   1.128   6.247   0.689  0.3220  0.1347  0.0630
15767W        W33971   1.311  14.821   2.563  0.1065 -0.0453  0.3782
15768W        W33972   1.335  17.731  13.053 -0.2653  0.1600 -0.0489
15769W        W33973  17.047  13.053   1.531 -0.0178  0.0206 -0.0754
15770W        W33974  15.443  16.977   0.165 -0.1360  0.1131  0.1429
15771W        W33975  13.623   0.887   1.376 -0.0383 -0.4954 -0.0216
15772W        W33976  16.686  17.903   5.199 -0.0315  0.2154 -0.0554
15773W        W33977  10.187  18.369   1.874  0.1475  0.0546  0.0223
15774W        W33978   1.032   4.391  12.881 -0.3626 -0.2606 -0.2947
15775W        W33979  16.217   2.692   4.158  0.0621 -0.1964  0.3186
15776W        W33980  13.958  10.610   5.767 -0.0192  0.0755 -0.1718
15777W        W33981  17.679   4.737  10.203  0.2531 -0.1838  0.0462
15778W        W33982   9.553  15.922   2.901 -0.0621  0.2711 -0.2733
15779W        W33983  13.101  15.005  11.495 -0.0028 -0.0388  0.4158
15780W        W33984   3.994  13.662   2.424  0.3319 -0.0594 -0.1136
15781W        W33985   3.786  17.368  11.090 -0.0724 -0.2686 -0.3360
15782W        W33986  15.235   8.880   0.599  0.0437 -0.3234 -0.1584
15783W        W33987  18.060  12.539   2.859  0.2941  0.2134 -0.0159
15784W        W33988  17.178  16.865   0.322 -0.2251 -0.0209 -0.1355
15785W        W33989   9.747  17.994  11.852 -0.0490 -0.1186 -0.0164
15786W        W33990   2.304  12.574  12.048 -0.1039 -0.0925 -0.0415
15787W        W33991  15.154  14.177  11.931 -0.3930  0.0891  0.1126
15788W        W33992  12.449  16.628   0.271  0.1662 -0.1305 -0.0881
15789W        W33993   1.264  16.796   3.115 -0.0499 -0.0837 -0.0552
15790W        W33994   7.812   7.666   0.828  0.2321 -0.1371  0.0794
15791W        W33995  11.609  17.411  13.401 -0.2726 -0.0534  0.3618
15792W        W33996   3.474   1.222  13.513 -0.3421 -0.0502  0.2863
15793W        W33997   5.026  10.062  12.544 -0.1412  0.0262  0.2212
15794W        W33998  12.991   6.816  14.679  0.1126  0.0533  0.2963
15795W        W33999  10.414  14.421   0.385  0.1452  0.1307 -0.0939
15796W        W34000   3.907   7.137  10.844 -0.1326  0.0040  0.1347
15797W        W34001   2.600   6.248  12.322  0.2992 -0.2253  0.0339
15798W        W34002   9.469   4.622  11.263 -0.1690 -0.1800  0.1590
15799W        W34003   7.560   9.136  11.137  0.0790  0.0649 -0.0471
15800W        W34004   2.964  14.291   0.443  0.1535 -0.1468 -0.1396
15801W        W34005   2.836  16.089   4.319  0.1850 -0.5168 -0.1709
15802W        W34006  13.868  16.996  14.738 -0.0960 -0.0085 -0.2129
15803W        W34007  14.313  15.169   3.832  0.0860 -0.0343 -0.1876
15804W        W34008   5.059  14.923   1.603 -0.4124  0.1644  0.0063
15805W        W34009  12.729   1.911  14.581 -0.0835 -0.0120 -0.0172
15806W        W34010   4.119  12.289  12.691  0.0442 -0.0592  0.2491
15807W        W34011   7.124  14.425  13.679 -0.1960  0.3904 -0.3180
15808W        W34012   9.764  16.442  11.786  0.0129 -0.0485  0.0021
15809W        W34013  13.750  18.852  12.439 -0.3366 -0.2305 -0.1096
15810W        W34014   0.526   9.529   3.332  0.0956 -0.2554  0.0171
15811W        W34015   1.820   7.245  12.861 -0.2319  0.2332  0.2240
15812W        W34016  11.574   1.360  14.893 -0.1805  0.0380 -0.0140
15813W        W34017   0.632  14.315   0.718 -0.0920 -0.2463 -0.0122
15814W        W34018  12.501   5.206   3.766 -0.0443 -0.1656  0.3282
15815W        W34019   5.776   7.351   0.263 -0.0403 -0.0609  0.1120
15816W        W34020   7.243   0.565   4.136 -0.1206 -0.4799 -0.3459
15817W        W34021  10.418  14.717  10.686 -0.1971 -0.0482  0.1332
15818W        W34022   4.794  12.077  13.703 -0.1264 -0.1360  0.0226
15819W        W34023  12.985  17.534   3.636 -0.3325 -0.2876 -0.0020
15820W        W34024   2.412   4.793  11.272 -0.0206  0.3704  0.2105
15821W        W34025   3.905   3.959  11.655  0.2294  0.2424  0.0934
15822W        W34026   7.942  18.537   4.322  0.2825  0.0852 -0.0511
15823W        W34027   5.411  16.235   9.913 -0.2681  0.0447  0.1368
15824W        W34028  10.397   4.835   4.963  0.0475  0.0789 -0.1952
15825W        W34029   3.073  15.349  11.471  0.2410 -0.0585  0.5623
15826W        W34030   0.983  18.477  11.491 -0.3519  0.0587 -0.2216
15827W        W34031  10.349  10.408  14.892 -0.0955 -0.3018 -0.0604
15828W        W34032   6.126   1.726  11.290 -0.2239 -0.0061 -0.3557
15829W        W34033  10.613  12.709   3.087  0.2841 -0.3495  0.0808
15830W        W34034  16.033   1.300   9.632  0.2275  0.1723  0.0994
15831W        W34035  11.313  10.216   2.856 -0.0061  0.2750  0.1988
15832W        W34036  18.572  16.608   3.217  0.2211  0.2905 -0.2123
15833W        W34037   2.570  13.111   1.716  0.0066 -0.2836 -0.0823
15834W        W34038   1.388   2.171   4.627 -0.0401 -0.1693  0.0367
15835W        W34039   8.626   6.453   4.033 -0.2988 -0.2182  0.0137
15836W        W34040   7.022   0.148  14.023  0.1073  0.1327 -0.2207
15837W        W34041   5.689   7.958  13.361 -0.1541  0.0597  0.0336
15838W        W34042   5.377  11.100   4.125  0.0504  0.2210  0.1214
15839W        W34043  17.455  13.843  12.523 -0.0937 -0.1925  0.0261
15840W        W34044  11.480   9.307   1.230  0.0496  0.0949  0.3187
15841W        W34045   0.059   7.910  13.185 -0.2495 -0.0781 -0.0353
15842W        W34046   0.882  15.934  11.771 -0.0040 -0.0147  0.0318
15843W        W34047   3.162   2.342   2.156 -0.0180  0.3161  0.1669
15844W        W34048  17.090  15.054   4.455 -0.1793 -0.0113  0.2996
15845W        W34049   9.865   4.304  10.290  0.5488 -0.2908  0.1195
15846W        W34050  12.045   0.611   0.312 -0.0220 -0.2740  0.1215
15847W        W34051  12.060   9.855   3.415 -0.0734 -0.1941  0.1497
15848W        W34052   0.264   1.878  12.971 -0.3715  0.3045 -0.0156
15849W        W34053  10.472  14.937  14.559  0.1481 -0.1886 -0.1686
15850W        W34054   8.225  12.769   1.772 -0.0479  0.0512  0.1170
15851W        W34055  15.828   9.066   3.903 -0.0120 -0.3856  0.2420
15852W        W34056  16.845   7.421  12.682 -0.2936 -0.1927  0.0740
15853W        W34057   5.894   8.905  12.061 -0.3580 -0.5546  0.3136
15854W        W34058   6.988  18.111  14.452  0.2131  0.0852 -0.1585
15855W        W34059   4.126  18.889  12.221  0.0013 -0.0576  0.0192
15856W        W34060  11.044  15.607  12.521  0.3080  0.1128 -0.0272
15857W        W34061   7.965   0.113   4.816  0.2620  0.1670  0.1877
15858W        W34062  14.232  11.460  10.908  0.0513  0.2403 -0.2207
15859W        W34063   6.529  12.282   2.827  0.0951  0.2183 -0.1953
15860W        W34064   7.602  15.866  10.859 -0.3967 -0.2696 -0.0890
15861W        W34065  14.905  18.598  13.526  0.0220  0.0241  0.2668
15862W        W34066   8.099   4.875   9.786 -0.3942  0.3092  0.0532
15863W        W34067   9.196  10.387   3.232 -0.0446 -0.0937 -0.3518
15864W        W34068   0.964   0.924  14.755  0.1057  0.0025  0.0658
15865W        W34069   8.830  11.162   0.552 -0.0080  0.0958 -0.1948
15866W        W34070   1.975   0.075   0.424 -0.2537 -0.5500  0.0784
15867W        W34071   0.748   9.212  11.211  0.0357  0.0124  0.0849
15868W        W34072  16.819   9.844  12.867  0.0843  0.3491  0.0517
15869W        W34073   7.199   9.230  13.447  0.3188  0.1625  0.2223
15870W        W34074   2.730   8.112  12.394  0.1028  0.0804 -0.0758
15871W        W34075  11.257  18.316  14.908  0.0004 -0.4507  0.1970
15872W        W34076   5.850   7.545   2.055 -0.3176  0.2066 -0.1279
15873W        W34077   5.417   8.872   0.593  0.3253  0.0855  0.0670
15874W        W34078  11.922   5.102   1.699  0.1567 -0.3266  0.3058
15875W        W34079  16.151  12.616  14.758 -0.0255 -0.0647 -0.3200
15876W        W34080   8.430   2.333  11.294  0.2104  0.1041  0.0681
15877W        W34081   0.869  11.912   1.275  0.6119  0.1907 -0.2330
15878W        W34082   9.428   2.943   4.578  0.1028  0.1309  0.1579
15879W        W34083   0.424   7.098  13.772 -0.0544 -0.0338  0.0559
15880W        W34084  14.948   4.043  11.455  0.1152  0.1873 -0.1653
15881W        W34085   5.942   7.679  14.912 -0.0325  0.1118  0.1778
15882W        W34086   0.905  11.800   2.299  0.2104 -0.0336 -0.0892
15883W        W34087  11.806  14.076   4.227  0.0950 -0.0614 -0.0581
15884W        W34088   2.544   3.997  14.941 -0.1970 -0.0913 -0.3086
15885W        W34089  17.793  11.083  11.400  0.1179  0.0912 -0.0320
15886W        W34090   0.489  16.617  10.263 -0.0769  0.0381  0.3016
15887W        W34091  18.384   0.788   4.369  0.2990  0.2761 -0.2336
15888W        W34092   9.454   7.488  13.711  0.0491  0.2051  0.1913
15889W        W34093   5.853  12.106  12.776 -0.1994  0.0294 -0.2132
15890W        W34094   8.699  11.695  12.109 -0.0803  0.3548 -0.0759
15891W        W34095  14.214  12.032  13.972 -0.0619 -0.1065 -0.0041
15892W        W34096  18.035   3.795  13.540  0.2250 -0.1193 -0.1332
15893W        W34097   7.842   9.048   3.719  0.0412  0.0194  0.0378
15894W        W34098  13.227   4.400   2.015 -0.0950 -0.0384 -0.4347
15895W        W34099   2.542   5.734   2.601  0.1569 -0.0159  0.0875
15896W        W34100  11.659  13.555  11.671  0.3288  0.1663  0.1440
15897W        W34101   2.428  10.343   4.110 -0.3072  0.0818  0.0011
15898W        W34102  11.351   2.257  11.861 -0.0087  0.3269 -0.2239
15899W        W34103   5.660  18.177   2.194  0.0599 -0.1173 -0.1881
15900W        W34104   5.903   0.267   1.928  0.0954 -0.2735 -0.0022
15901W        W34105   0.096   1.179   0.349  0.2267 -0.3157 -0.0410
15902W        W34106   2.436   9.985   2.881 -0.1537  0.0532 -0.3664
15903W        W34107  16.179  17.300  13.366  0.1315 -0.1443 -0.0077
15904W        W34108   5.184  11.950  13.351 -0.0626 -0.2152 -0.0651
15905W        W34109  16.602   7.417   2.139 -0.0351 -0.1715 -0.3182
15906W        W34110  12.335   0.133   1.779  0.1514 -0.0771  0.2527
15907W        W34111   5.319   9.689   1.094 -0.1541  0.0221 -0.0512
15908W        W34112   5.719  11.001   3.768 -0.0958  0.0303  0.0680
15909W        W34113   7.588   3.625   1.837  0.1042 -0.0662 -0.3207
15910W        W34114  13.755   7.190   4.181 -0.3481 -0.1304  0.0484
15911W        W34115   9.479  15.245   0.117 -0.0681 -0.3836  0.1014
15912W        W34116   0.977   3.251  13.587 -0.2032 -0.0772  0.2660
15913W        W34117   0.917  14.252   2.207 -0.0463 -0.3044  0.0431
15914W        W34118   3.584   9.459   2.251 -0.0559  0.3860  0.0722
15915W        W34119  17.220   7.738  11.178 -0.0026 -0.3030 -0.1146
15916W        W34120  10.776   0.037   9.476  0.4532 -0.1597 -0.1294
15917W        W34121  12.251   8.045  11.928  0.0595 -0.3020 -0.3141
15918W        W34122   8.748   8.896  10.797  0.2226  0.1260  0.2153
15919W        W34123   6.572   4.860   2.696  0.0091  0.0342 -0.1140
15920W        W34124  18.573   0.252   0.605 -0.2879 -0.0536  0.0360
15921W        W34125  18.603   6.633  13.491 -0.2151 -0.2705 -0.3395
15922W        W34126   2.146   7.081  11.845  0.2358 -0.1184 -0.1256
15923W        W34127   0.270  10.375   3.374  0.4420 -0.0474  0.0586
15924W        W34128  11.701  18.613  11.259  0.2136  0.1479  0.2380
15925W        W34129  14.835   4.164  13.300  0.1213  0.0632  0.2060
15926W        W34130   8.854  11.744  11.121  0.1015  0.1332  0.2025
15927W        W34131  12.759   7.187  13.323  0.3013 -0.1148 -0.0071
15928W        W34132  10.698  11.502  11.320 -0.0019  0.1807 -0.0768
15929W        W34133  18.901  17.380  14.750  0.4919 -0.1128  0.1540
15930W        W34134   3.711  18.657  13.995  0.0157  0.0592 -0.0375
15931W        W34135  13.902  10.391  14.574 -0.2844  0.1004 -0.0132
15932W        W34136   5.275  10.521  10.655  0.0755  0.0080  0.0440
15933W        W34137   1.662   6.251   1.505  0.0191 -0.1812 -0.0742
15934W        W34138  13.366   4.215   0.388  0.0932  0.0121  0.2619
15935W        W34139   9.455   6.868  13.091 -0.0046  0.0438  0.1586
15936W        W34140   9.255   5.801   0.146 -0.1271 -0.0346 -0.1564
15937W        W34141  16.180  11.135   5.486 -0.0058  0.1944  0.0211
15938W        W34142   8.357   4.189   1.092  0.3032  0.0431  0.0006
15939W        W34143  12.596   8.778   2.827  0.0929  0.1032  0.4569
15940W        W34144  11.464  12.323   1.870  0.0763 -0.0946 -0.1168
15941W        W34145   9.495   0.260  11.892  0.2028  0.0199 -0.0182
15942W        W34146  11.065  18.785   2.936 -0.1114 -0.2199 -0.1768
15943W        W34147  16.961  10.837  12.593 -0.1159  0.0665 -0.1006
15944W        W34148   3.648  14.285   1.609 -0.2572  0.2751  0.0691
15945W        W34149  17.373  12.421  11.898 -0.1223  0.1826 -0.0879
15946W        W34150  10.870   6.890   0.726 -0.1047 -0.4349 -0.0929
15947W        W34151  15.607   1.059   1.304  0.0182 -0.0290 -0.2611
15948W        W34152  14.664   6.955   3.824 -0.0122 -0.1769  0.0717
15949W        W34153   8.534   6.398  10.791  0.0210 -0.2667 -0.1978
15950W        W34154   6.820  11.737  12.888  0.0232 -0.1461  0.1998
15951W        W34155   2.495   1.312  14.703  0.1810  0.0429 -0.3610
15952W        W34156   8.524   8.417   4.942  0.1344 -0.1240 -0.1277
15953W        W34157  18.941  13.792   2.321 -0.0974 -0.1509 -0.2294
15954W        W34158  13.765   6.176  14.605  0.3917 -0.1926  0.0698
15955W        W34159   6.681   7.555  12.513  0.0838 -0.1390 -0.1455
15956W        W34160  13.700   9.569  11.960 -0.0680 -0.0639 -0.1924
15957W        W34161  12.698  15.618  14.452  0.1330 -0.1685  0.0363
15958W        W34162  17.129   3.297   2.725  0.1746  0.0291 -0.0119
15959W        W34163   1.448   0.888   2.629 -0.0545  0.3610 -0.0134
15960W        W34164   7.217  17.688   1.082  0.2336 -0.1360 -0.1162
15961W        W34165  14.867  12.452  11.177 -0.2649  0.0416 -0.0042
15962W        W34166  14.046  14.838   1.129 -0.1737  0.3640  0.3099
15963W        W34167   7.755  15.432   2.765 -0.3719 -0.0245  0.2855
15964W        W34168   6.633   3.280  12.123 -0.0612 -0.0382 -0.0798
15965W        W34169   9.520   1.076  14.131  0.0150  0.1517  0.0420
15966W        W34170  10.613  12.873   1.249  0.1649 -0.2482  0.1152
15967W        W34171  10.974  13.241   4.128 -0.1125 -0.0216  0.0921
15968W        W34172   4.137   1.811   1.977  0.0276  0.1143  0.1532
15969W        W34173   2.476  15.741  14.033  0.0222  0.1225  0.0754
15970W        W34174   8.431  11.555  11.284  0.0674  0.0968 -0.2308
15971W        W34175   8.098  13.262   1.798  0.0945 -0.0436 -0.0765
15972W        W34176   8.016   1.656   1.195 -0.0031  0.0542 -0.1546
15973W        W34177  15.294  10.914  11.267 -0.1605 -0.0763  0.1532
15974W        W34178  11.190  14.743   0.651 -0.1526  0.0798  0.0524
15975W        W34179   9.919   9.873  13.498 -0.1490  0.1425 -0.1530
15976W        W34180   2.204   1.296   3.645  0.3653 -0.1739  0.1778
15977W        W34181  14.110  12.125  10.498  0.0236 -0.1047 -0.1534
15978W        W34182   3.824  18.300  10.944  0.2456  0.4798  0.0608
15979W        W34183  14.972   3.216  11.290 -0.2424  0.0615 -0.1563
15980W        W34184   4.312   2.580  11.968 -0.0751  0.3238 -0.0600
15981W        W34185  18.854  17.970   3.728  0.1012 -0.1939  0.0871
15982W        W34186   0.327   1.067   1.067 -0.2304  0.1601 -0.1251
15983W        W34187  13.771  14.509  14.148 -0.0368 -0.1107 -0.0870
15984W        W34188   2.838  17.363  13.263 -0.1018 -0.3761 -0.3106
15985W        W34189   6.386  16.831  13.683  0.3208  0.1075  0.1249
15986W        W34190  11.580   0.609  14.556  0.3463  0.0498 -0.1174
15987W        W34191   7.213   0.620  13.436 -0.3201 -0.1518  0.0977
15988W        W34192   5.512   3.603  14.497  0.1104 -0.3986 -0.0083
15989W        W34193   7.773  16.612  13.727  0.2047  0.1387  0.1528
15990W        W34194  18.187  15.619  11.057 -0.1015 -0.0830 -0.3977
15991W        W34195   5.637   8.892  12.513 -0.3267  0.0103  0.3153
15992W        W34196  10.449   3.466  14.193 -0.2494 -0.2593 -0.2100
15993W        W34197  14.182  18.510   3.036  0.0596  0.0826 -0.0913
15994W        W34198   5.991   3.595   3.121  0.1224 -0.2765  0.0743
15995W        W34199  12.003   3.869  14.265  0.0581  0.0862  0.1989
15996W        W34200   1.255  12.102   0.963 -0.0131 -0.0425 -0.0673
15997W        W34201  12.007  18.229   1.777  0.3592  0.1272 -0.0200
15998W        W34202   0.591   1.198   3.470 -0.0845  0.4531  0.4325
15999W        W34203   0.075   5.284   3.832  0.2388 -0.3242 -0.0956
16000W        W34204   5.754   2.867   4.645  0.3049  0.2702 -0.1472
16001W        W34205   4.328  13.889   0.261  0.0867 -0.1791 -0.4053
16002W        W34206  10.723   1.657   0.501 -0.3200  0.1368  0.2301
16003W        W34207   8.361   0.010  13.489 -0.3221  0.0793  0.1918
16004W        W34208   2.067   6.223  12.309  0.2185  0.1470  0.3229
16005W        W34209   6.627  12.976   0.502  0.0636  0.1249  0.0253
16006W        W34210   8.361  11.641   2.513 -0.1036  0.1918 -0.0317
16007W        W34211   3.808  10.042  12.197 -0.4881 -0.1380 -0.0544
16008W        W34212   4.834  17.218   1.256  0.0317 -0.0002  0.0181
16009W        W34213  12.409  18.358  12.452  0.2158  0.4200 -0.1049
16010W        W34214  10.224   1.261  13.225  0.0527  0.1338 -0.0748
16011W        W34215  11.500  13.826   2.866  0.1549 -0.0273  0.1666
16012W        W34216  11.664  18.434   9.993  0.1926 -0.0315 -0.2769
16013W        W34217   1.398   6.024  14.213 -0.0938  0.1532 -0.0499
16014W        W34218  13.610   3.504   2.008  0.2529  0.0524  0.0194
16015W        W34219   5.345  17.791   0.234 -0.0361  0.3031  0.1086
16016W        W34220   2.904  10.053   3.651 -0.0069 -0.0898 -0.1444
16017W        W34221   6.881   5.703   2.974  0.2159  0.0515 -0.0247
16018W        W34222   6.753  17.879   4.229 -0.1966  0.1567 -0.1059
16019W        W34223   6.943   0.848   0.656  0.0888  0.0655  0.1740
16020W        W34224   1.176   7.389  10.501 -0.0049  0.0191 -0.1428
16021W        W34225   9.464   3.437   2.437  0.3877 -0.1480 -0.2772
16022W        W34226   0.585  13.688  11.995  0.0107  0.1546 -0.1541
16023W        W34227   8.886   5.627   1.413  0.1034  0.0520  0.2085
16024W        W34228  15.108   2.114  13.674  0.1646 -0.0179  0.1670
16025W        W34229  17.108   9.140  11.690  0.0920  0.1274 -0.2068
16026W        W34230  17.399  11.961  11.636  0.1091  0.1092 -0.0803
16027W        W34231   0.936   2.958  14.058  0.2407  0.4072 -0.0214
16028W        W34232  13.156   2.637  10.660 -0.3638  0.0029  0.0558
16029W        W34233   7.686   4.803  11.392  0.0864 -0.2437  0.0279
16030W        W34234  14.792  11.778   1.569 -0.4913 -0.2263  0.0625
16031W        W34235  11.425  13.308  13.466  0.0439 -0.2491 -0.1026
16032W        W34236   3.812  12.802   1.488 -0.1383  0.1860 -0.1092
16033W        W34237  14.375   2.579  13.075 -0.0159  0.0981 -0.0973
16034W        W34238   5.992  13.856  12.079  0.2298  0.1798 -0.4185
16035W        W34239   0.734   8.854  14.341 -0.2863  0.0787 -0.0299
16036W        W34240   8.959   2.471   4.043 -0.2925 -0.2890  0.1937
16037W        W34241   0.895   3.098   0.176  0.1017  0.1777 -0.4100
16038W        W34242  13.076   3.864   2.736 -0.0504  0.2664 -0.0261
16039W        W34243  16.532   8.222   1.830  0.0484 -0.0275 -0.2617
16040W        W34244  11.552   0.987   5.360  0.0759  0.4823  0.1531
16041W        W34245   5.044   4.400   4.352  0.1418 -0.1326  0.2872
16042W        W34246   5.759   5.490  11.979  0.1890 -0.1725 -0.2135
16043W        W34247  11.831   5.403  11.117  0.1318 -0.0609  0.2984
16044W        W34248   5.835  15.046  13.295 -0.0034  0.1091 -0.2199
16045W        W34249  17.381   3.815  12.883  0.0779  0.0610 -0.5188
16046W        W34250   2.598  10.154  14.928 -0.3497  0.0181  0.0041
16047W        W34251  18.687   4.650  15.006 -0.2081 -0.1916  0.4112
16048W        W34252  10.371  17.083   2.347 -0.0476 -0.0540 -0.2477
16049W        W34253   6.422   9.511   0.195  0.4219  0.0780  0.0914
16050W        W34254   7.161  13.130   1.649  0.0376  0.5706  0.1716
16051W        W34255   4.263   4.163  10.494  0.0098  0.1047 -0.1045
16052W        W34256  15.977   8.314   0.519 -0.0802 -0.1700 -0.0190
16053W        W34257   8.607  14.745  14.368 -0.0259 -0.1881  0.2750
16054W        W34258  11.187  12.780   2.610  0.4529 -0.1199 -0.0230
16055W        W34259  14.698  10.637   3.146  0.1538  0.1301  0.0252
16056W        W34260  10.841   2.359  12.949 -0.1950 -0.0240  0.0927
16057W        W34261   0.841  10.766  12.200 -0.1539  0.0177 -0.1931
16058W        W34262   0.446  12.048   0.468  0.3783 -0.0245  0.0858
16059W        W34263   7.337  10.314  13.352  0.0239 -0.1615 -0.4678
16060W        W34264   0.530  17.139  11.741  0.0806  0.0233  0.2534
16061W        W34265   5.246  12.990   0.642 -0.0058 -0.1472  0.0559
16062W        W34266   9.597  12.878  13.648 -0.1550  0.1508  0.2512
16063W        W34267   7.204  17.551  14.456  0.1466  0.3062  0.0091
16064W        W34268  17.429  12.093  14.149 -0.3390  0.0725 -0.0895
16065W        W34269   9.421   3.693  12.887 -0.2267  0.0158 -0.1349
16066W        W34270   9.754  13.457   2.376  0.1491  0.1583  0.1479
16067W        W34271  17.494   2.711  14.133  0.2334 -0.1323  0.1795
16068W        W34272   2.524  16.950  10.463  0.0655  0.2679 -0.0336
16069W        W34273   5.170  12.080  11.477 -0.1520  0.0850 -0.3904
16070W        W34274   9.542   5.049   1.140  0.0888 -0.0934 -0.2086
16071W        W34275  10.632  11.339   1.590  0.1012  0.0059  0.3036
16072W        W34276   5.371   0.265   0.037  0.2014  0.0485  0.1099
16073W        W34277  16.984   5.023  14.163  0.0117  0.3007  0.1033
16074W        W34278  11.965  12.446  13.267  0.2989  0.2176  0.1476
16075W        W34279  12.623  16.219  11.643  0.0234 -0.0783 -0.0072
16076W        W34280  17.974   2.838   4.440  0.1970 -0.1686 -0.2561
16077W        W34281  12.507  14.362  14.099 -0.0966  0.3833 -0.2341
16078W        W34282   3.910  16.438   2.171  0.0887 -0.1108 -0.0484
16079W        W34283  18.660  11.839  13.872  0.0885 -0.2771 -0.0634
16080W        W34284   5.906   3.612   0.885 -0.1328 -0.0961 -0.2228
16081W        W34285  10.820   3.480  11.051 -0.2226  0.1077  0.1278
16082W        W34286   3.627   6.661  10.847 -0.1092  0.1706 -0.0342
16083W        W34287   9.328   5.503  14.577 -0.2427 -0.0061  0.1666
16084W        W34288   6.593  12.695  14.544 -0.0831 -0.0324  0.0943
16085W        W34289   6.310  18.657  11.813  0.0685  0.1105  0.0767
16086W        W34290  10.365   5.469   4.493 -0.1377 -0.0246  0.3848
16087W        W34291  13.643   4.021  12.395 -0.2580 -0.1303 -0.0296
16088W        W34292  10.582   4.030   2.094 -0.0762  0.1290 -0.1531
16089W        W34293   2.170  10.700   2.035 -0.0482 -0.2329  0.0730
16090W        W34294   8.265  13.256  11.744 -0.1778 -0.3383 -0.2893
16091W        W34295  14.575  11.338   0.097 -0.1250  0.0090 -0.1117
16092W        W34296  15.063   4.901  11.999  0.1629 -0.3312 -0.1365
16093W        W34297  11.950  11.584  10.462  0.2534  0.3201 -0.4568
16094W        W34298   7.468  13.685  12.601  0.1048 -0.0832 -0.2090
16095W        W34299   8.077   0.218   5.309  0.3120 -0.2312 -0.1444
16096W        W34300  17.389  17.741   1.163  0.3346 -0.3597  0.0560
16097W        W34301   5.150  15.751   2.733 -0.0216  0.2117  0.2859
16098W        W34302   2.910  11.386  12.358  0.2487 -0.1898 -0.3073
16099W        W34303  14.423  14.031   1.037  0.0814 -0.0762  0.0202
16100W        W34304  12.333  16.792   1.656  0.0764  0.0723  0.1044
16101W        W34305   4.508  14.115  11.022 -0.4541  0.1320 -0.2405
16102W        W34306  16.263   1.798  14.823  0.2542 -0.0477 -0.0025
16103W        W34307  15.522   9.627  10.830 -0.2823 -0.0208 -0.1010
16104W        W34308  13.510  11.375   0.518 -0.0372 -0.0357  0.1401
16105W        W34309   3.677   0.227  13.882 -0.2497 -0.0427 -0.1585
16106W        W34310   9.914  17.489  13.249  0.1690  0.1183 -0.0868
16107W        W34311  11.623   3.890  11.880  0.0891  0.0133 -0.2633
16108W        W34312  18.089  11.945  10.923  0.2806 -0.2810 -0.1781
16109W        W34313   2.279  13.101   0.492  0.0664  0.2125 -0.1173
16110W        W34314   1.009  17.607   0.336  0.1164 -0.2436  0.0065
16111W        W34315   8.803   8.447  11.703  0.1450 -0.1243 -0.0920
16112W        W34316  10.430   4.329  13.913  0.2100  0.2651 -0.0025
16113W        W34317  12.172   9.697   2.613  0.0727 -0.2897  0.3098
16114W        W34318  14.708  11.592  14.702 -0.1790 -0.0131 -0.3273
16115W        W34319   1.439  13.717   4.192 -0.3038  0.2470 -0.3123
16116W        W34320  12.884   0.898  13.733 -0.1757 -0.0903 -0.0230
16117W        W34321  14.533   1.335  10.465  0.0448 -0.0189 -0.2128
16118W        W34322  11.120   0.164  13.329  0.1435 -0.5571  0.2202
16119W        W34323   3.566  12.835  14.826 -0.1662 -0.3981  0.2380
16120W        W34324  10.905  10.655   1.045 -0.1356 -0.1185  0.1190
16121W        W34325   3.908   7.311  13.729 -0.1289 -0.0577 -0.1475
16122W        W34326  13.607  14.181  12.075 -0.3564  0.2727  0.2236
16123W        W34327  18.266  11.802  14.924  0.1193  0.0631 -0.1452
16124W        W34328  11.281  18.546  13.647 -0.4253 -0.1951  0.1090
16125W        W34329  12.235  15.457   2.622  0.1844 -0.2413 -0.3933
16126W        W34330  18.628  11.013   2.550  0.1435 -0.0557 -0.0346
16127W        W34331  18.762   7.173   3.746  0.0511  0.1054  0.1947
16128W        W34332   4.673   3.145  14.302 -0.2478  0.1389  0.1712
16129W        W34333  12.496  13.212   3.325  0.0369  0.1055 -0.1965
16130W        W34334   2.101   9.927   1.284  0.2480  0.2246 -0.0751
16131W        W34335  14.116  12.286   3.531  0.0012 -0.1087  0.0098
16132W        W34336  17.397  10.072  10.708  0.1038  0.2602 -0.2371
16133W        W34337   4.074   5.427   2.410  0.0224  0.2919  0.1059
16134W        W34338  16.833  11.851   4.989 -0.1204 -0.0190 -0.1812
16135W        W34339   3.139   0.747   3.048 -0.0900  0.0879  0.2133
16136W        W34340  18.247  18.707   4.011  0.0965 -0.3490  0.3896
16137W        W34341   1.316   1.776   5.028 -0.2819  0.1843 -0.2947
16138W        W34342   9.088  17.143   1.673 -0.1865  0.1072  0.1137
16139W        W34343  13.133  11.874  12.532  0.2412 -0.0333  0.1307
16140W        W34344  14.902  14.167  11.406 -0.1655 -0.1124  0.0822
16141W        W34345   9.746  10.972   1.455  0.1963  0.0684  0.3363
16142W        W34346   0.197  10.312  11.795  0.0351  0.2604 -0.2403
16143W        W34347   0.734   3.855   2.964  0.1533  0.0025 -0.1427
16144W        W34348  11.509   7.242   5.437 -0.0358  0.0533 -0.0755
16145W        W34349  13.093   6.331   0.674  0.2960 -0.1097 -0.1705
16146W        W34350  11.363   7.607  13.891 -0.0024  0.0746 -0.3299
16147W        W34351   9.099  18.710  14.252  0.2878 -0.0304 -0.0541
16148W        W34352   2.537  12.442   2.529 -0.1155 -0.0420 -0.2078
16149W        W34353  14.038   5.459  13.520  0.0617 -0.0042  0.3130
16150W        W34354   9.849  11.124   0.485  0.3002 -0.1146 -0.0969
16151W        W34355   5.039   2.901  12.962 -0.0892 -0.0192 -0.2564
16152W        W34356   0.769   0.041   2.484 -0.4144 -0.1523 -0.2927
16153W        W34357  18.066  18.573  13.519 -0.0580 -0.2601  0.1618
16154W        W34358   5.015   3.107   2.090  0.2531  0.2919 -0.1013
16155W        W34359   0.208  13.691   1.010 -0.2391  0.1855  0.1770
16156W        W34360   1.674  10.104  10.852  0.1490 -0.0529 -0.4322
16157W        W34361  13.390   6.033  13.678 -0.1026 -0.2125 -0.3195
16158W        W34362   1.395   0.606  12.333  0.1554  0.1025  0.0238
16159W        W34363  18.630  14.675  14.854  0.2300 -0.0329  0.0398
16160W        W34364   1.921   9.301  14.636  0.1942  0.0181  0.0025
16161W        W34365  11.649  14.014  10.862 -0.0006  0.0448 -0.3884
16162W        W34366  16.269   0.134  13.364  0.2112  0.1379 -0.2804
16163W        W34367  13.161  15.506  12.116  0.1802  0.1136  0.1040
16164W        W34368  11.625   7.305   0.190 -0.1898  0.2014  0.3536
16165W        W34369   3.318  16.135   4.123 -0.0800 -0.0496  0.1254
16166W        W34370   2.736  11.883  11.520 -0.2115  0.0272  0.3509
16167W        W34371   3.530   7.662  11.286  0.1415 -0.0906 -0.1279
16168W        W34372   8.423   8.447   9.872  0.0870  0.1340  0.3391
16169W        W34373  14.524  11.961   2.259  0.1300 -0.0701  0.1610
16170W        W34374  10.049   8.061  11.856 -0.1567  0.1888 -0.0202
16171W        W34375   6.399   4.310   1.933 -0.0682  0.1091 -0.0157
16172W        W34376  15.963   7.729   4.165 -0.0461  0.2011  0.3462
16173W        W34377   6.935   0.198  13.532 -0.0603  0.1319  0.1244
16174W        W34378  13.662  17.232  12.306 -0.0935 -0.2741 -0.2914
16175W        W34379   7.315   5.997   1.632 -0.0242  0.0823 -0.4163
16176W        W34380  17.191   3.304  13.682  0.2588 -0.0575  0.2571
16177W        W34381   4.008   2.901   2.468 -0.0747 -0.0038 -0.2944
16178W        W34382  15.284   8.150   2.183 -0.0120 -0.0438  0.2038
16179W        W34383  13.849   4.513   1.740  0.2523 -0.3254 -0.1451
16180W        W34384   5.282  15.740  12.705 -0.1009 -0.0275  0.2573
16181W        W34385   4.947  13.906   1.476  0.1809  0.0386 -0.0432
16182W        W34386  18.313  13.903   0.557  0.1000 -0.2412  0.1800
16183W        W34387  17.025   3.342  11.509  0.1752  0.1856 -0.0175
16184W        W34388   4.999  15.005  13.150  0.0568  0.1945  0.0983
16185W        W34389  17.045   9.150   4.755  0.1132  0.1297 -0.0393
16186W        W34390  14.646   0.696  14.144  0.1414  0.2330 -0.4514
16187W        W34391  13.174   0.821  11.882  0.3811  0.0326  0.1985
16188W        W34392  15.821   8.687  14.146 -0.2683 -0.0384  0.1274
16189W        W34393   2.966   0.638   4.639  0.1012 -0.2788 -0.1470
16190W        W34394  18.163  18.071   1.233  0.0420 -0.2321 -0.2596
16191W        W34395   6.803  11.014  11.424  0.1657  0.1818 -0.3714
16192W        W34396  15.644   8.887  13.599  0.0419  0.0467  0.2094
16193W        W34397  11.605   5.488   2.721 -0.1804 -0.1092 -0.1955
16194W        W34398  12.897  13.847   9.523 -0.1992  0.1391 -0.1998
16195W        W34399   7.583  12.043   3.345 -0.1532 -0.2298 -0.0903
16196W        W34400   3.895   6.697  12.542  0.1249  0.2390  0.1645
16197W        W34401   7.591   2.854  14.855  0.1126  0.1083 -0.0037
16198W        W34402   9.809  11.729   3.192  0.0148  0.1459 -0.1998
16199W        W34403  15.749   2.757  14.296  0.1757 -0.2229 -0.0944
16200W        W34404  18.326  13.331   3.121  0.1009  0.3484  0.2925
16201W        W34405  12.977   1.224  11.174  0.1864  0.2090 -0.0447
16202W        W34406  15.434  10.252   3.390 -0.3693  0.3287 -0.1097
16203W        W34407  14.644   7.323   3.050  0.0532 -0.1985  0.2828
16204W        W34408  14.352  10.910  14.246 -0.1724  0.0826 -0.1033
16205W        W34409   1.883   2.831   2.652 -0.1232 -0.1351  0.3729
16206W        W34410  18.785   8.513   3.114  0.1634 -0.0791  0.1304
16207W        W34411  18.566   1.435   0.010  0.2872  0.0477  0.1586
16208W        W34412  11.911   7.069  12.079  0.0309 -0.0786 -0.1437
16209W        W34413  12.555  12.284  13.109  0.0877 -0.1286 -0.1285
16210W        W34414  12.779  12.358   1.026  0.1024 -0.1713 -0.0843
16211W        W34415   6.081  12.629  11.332  0.2039 -0.0567  0.0321
16212W        W34416  15.655   8.853   3.426  0.0776  0.1437 -0.0521
16213W        W34417   6.888  16.328   3.539 -0.2495 -0.2018 -0.0294
16214W        W34418  18.810   7.439   1.531  0.2742  0.1166  0.4031
16215W        W34419   2.366  18.213  14.386  0.0023 -0.1166  0.1582
16216W        W34420  13.206  18.159   1.634 -0.1352  0.2815 -0.0546
16217W        W34421   9.293  13.102   3.635  0.0210  0.0435  0.1593
16218W        W34422  17.834  11.101   3.388  0.1684 -0.4430 -0.0371
16219W        W34423  16.385   6.674  12.695  0.1366  0.5449  0.3247
16220W        W34424  10.995   4.345   2.749 -0.1273 -0.0208  0.1540
16221W        W34425  15.856   8.996  14.521  0.1028 -0.0205  0.1137
16222W        W34426   2.210   4.298  11.479  0.2627  0.0829  0.1583
16223W        W34427   9.093  11.770   1.099 -0.0442  0.3572  0.4319
16224W        W34428  18.845  13.957   1.393  0.2180 -0.0096 -0.0655
16225W        W34429   6.473   6.123  10.555  0.2288  0.2483  0.2143
16226W        W34430  16.497  13.636   0.453 -0.0245 -0.1044  0.0663
16227W        W34431  13.249  13.548  13.987 -0.3695 -0.1560 -0.1550
16228W        W34432   2.410   6.155  11.468 -0.0141 -0.2535 -0.1355
16229W        W34433  14.451   6.577   2.915 -0.0517 -0.0556 -0.2776
16230W        W34434  10.111   2.849   2.517  0.0485 -0.2289 -0.2095
16231W        W34435   8.220   3.411   1.225 -0.4663  0.0924  0.2306
16232W        W34436  13.327   9.895   3.792  0.5156 -0.2385 -0.1900
16233W        W34437   0.750  13.544  12.663 -0.0256  0.1505 -0.1940
16234W        W34438  13.476   7.658  12.356 -0.0871 -0.2326 -0.2664
16235W        W34439   0.665   6.998  14.780 -0.1381  0.1235  0.1008
16236W        W34440  11.852  10.623  13.266 -0.1342 -0.1098 -0.1505
16237W        W34441   3.619   3.646  14.553  0.0603 -0.0588  0.1785
16238W        W34442   6.739  13.433   2.024 -0.0477 -0.1886 -0.1147
16239W        W34443   9.570   9.984  10.257  0.1573 -0.1814 -0.1586
16240W        W34444   8.719   8.396  14.250 -0.1535 -0.0916 -0.1419
16241W        W34445   9.746   2.325  10.717 -0.3762  0.2770 -0.1200
16242W        W34446  10.353   2.999  14.348 -0.1511  0.0263 -0.0689
16243W        W34447   4.649   1.568   2.194 -0.2389  0.1960  0.0824
16244W        W34448  11.921  11.859   0.766  0.0100 -0.0027  0.2372
16245W        W34449   5.710   9.233   4.050  0.0302  0.0247 -0.2358
16246W        W34450   9.989  13.419  13.481  0.1867  0.0456  0.0461
16247W        W34451   5.065   0.753   3.207 -0.2121 -0.4458  0.2631
16248W        W34452  16.835  10.913  10.856  0.2430 -0.1098 -0.2660
16249W        W34453  17.443  13.521   3.106 -0.0461 -0.2941  0.1278
16250W        W34454  10.607  14.752  12.312 -0.2101  0.0738  0.2065
16251W        W34455  16.111  10.963   3.707  0.0101  0.2886  0.0287
16252W        W34456   6.499  14.852  10.750 -0.1222  0.2829  0.0878
16253W        W34457   0.449  16.121  14.741 -0.1733 -0.1421  0.1566
16254W        W34458  12.443  15.787  12.658  0.1633 -0.2167  0.1553
16255W        W34459   3.933   8.652  10.592  0.0373 -0.1149 -0.2414
16256W        W34460  14.791   7.534   0.543  0.1231  0.1228  0.0371
16257W        W34461   8.869  15.461   2.322  0.0237 -0.0940  0.2816
16258W        W34462  12.844  10.304   4.314 -0.0649 -0.2994  0.3562
16259W        W34463  16.534   6.844   2.187 -0.3319  0.2086  0.0368
16260W        W34464   9.722   3.777  14.380  0.0001  0.0026 -0.1764
16261W        W34465  18.802  18.937  14.572  0.1193 -0.0509 -0.2609
16262W        W34466   5.101  15.307  10.989 -0.0176  0.2476  0.1061
16263W        W34467  14.866  12.928   2.538 -0.2364  0.0287 -0.0195
16264W        W34468   8.775  12.017   4.005 -0.0238 -0.1919 -0.1261
16265W        W34469   2.167   6.353   1.123  0.0669  0.0125 -0.1228
16266W        W34470  14.781  10.331  12.336  0.3878  0.0842  0.0334
16267W        W34471   6.962  17.599  13.156  0.2204 -0.1561  0.0828
16268W        W34472   5.876  16.101  12.484 -0.1696  0.2402  0.1148
16269W        W34473   8.647  16.775  10.944 -0.0370  0.1401 -0.0245
16270W        W34474   5.792  12.705   3.242 -0.1174  0.3042 -0.1786
16271W        W34475   1.579  16.484   2.862 -0.2450 -0.2708  0.0006
16272W        W34476   7.478  18.163   4.662 -0.1509  0.2697 -0.0240
16273W        W34477  17.995  18.173   1.924 -0.3101 -0.1449 -0.3137
16274W        W34478  10.984  16.360  12.782 -0.0902 -0.1047 -0.3509
16275W        W34479   0.975   7.397   3.640 -0.2170  0.0432  0.0225
16276W        W34480   6.071  10.002  13.722  0.1211 -0.0463  0.1371
16277W        W34481   5.853  17.024  10.740 -0.2205  0.1271 -0.3033
16278W        W34482   3.404   3.068  10.890  0.0392 -0.0884 -0.1999
16279W        W34483  13.027   3.717   1.718 -0.1431  0.0579  0.1553
16280W        W34484  11.813   7.843   0.294  0.0554 -0.1390 -0.2088
16281W        W34485   2.021   5.815   2.843 -0.1816  0.3575  0.5003
16282W        W34486  15.993  10.141  13.755 -0.2364  0.2010  0.1272
16283W        W34487  14.191   4.366   3.455  0.1860 -0.0582 -0.3519
16284W        W34488   6.724  15.358   0.531 -0.3080  0.1226 -0.3167
16285W        W34489   0.195  13.348  12.649 -0.1623  0.1211 -0.2172
16286W        W34490  13.275  13.505   1.714 -0.1464 -0.0397  0.1255
16287W        W34491  10.450  16.208  14.681  0.1155 -0.2338  0.0669
16288W        W34492   5.247  10.758  13.881  0.0860  0.0515  0.3683
16289W        W34493   6.818  14.417  11.736  0.1033  0.2270  0.2703
16290W        W34494   8.430   7.364   4.649  0.2462 -0.0060  0.0456
16291W        W34495   8.144  15.357  12.991 -0.0074 -0.2280 -0.0840
16292W        W34496   8.576  17.997  13.452 -0.4021  0.0487  0.1826
16293W        W34497   9.067   4.904  12.671  0.1524  0.0881 -0.2739
16294W        W34498  15.167  11.494  14.493  0.1479  0.0637  0.0157
16295W        W34499   1.010   6.480  12.474 -0.2947  0.1132  0.2405
16296W        W34500   5.266   9.820  13.428 -0.2558  0.1012 -0.3779
16297W        W34501  15.420   9.543  12.344  0.0598  0.0434  0.0883
16298W        W34502  17.199   4.413   2.044 -0.0336 -0.0290 -0.2379
16299W        W34503   3.768   7.243   4.805 -0.3196  0.0138  0.2070
16300W        W34504   5.854  12.750   0.781  0.0520 -0.1223  0.2625
16301W        W34505   1.990  16.623  11.804 -0.0066  0.3592  0.1862
16302W        W34506   7.123   0.464   4.612  0.0192 -0.0832  0.0435
16303W        W34507   6.917   2.625   0.212 -0.0467  0.0322 -0.1134
16304W        W34508  16.910   3.668  14.976 -0.0662  0.1716  0.1693
16305W        W34509   0.564   8.478   0.533 -0.0856  0.0503 -0.1537
16306W        W34510  13.106   7.252  11.139  0.0769  0.1948 -0.2619
16307W        W34511  17.435  14.057  10.745  0.2827 -0.0108 -0.0844
16308W        W34512   5.450   8.039   1.987 -0.0006  0.0191 -0.0175
16309W        W34513  16.284  15.557   1.079 -0.0661  0.1076  0.0069
16310W        W34514   4.146   0.601   2.843 -0.0888 -0.2338  0.0341
16311W        W34515   9.573   9.863   0.674  0.4830  0.0742  0.2415
16312W        W34516   0.513   2.039  14.775 -0.1114 -0.0979 -0.0639
16313W        W34517  17.169   9.803   2.341 -0.1250  0.1950 -0.0434
16314W        W34518   8.669  16.888  13.999 -0.1091 -0.1849  0.0343
16315W        W34519   9.738  16.403   2.811 -0.0123 -0.1149 -0.0102
16316W        W34520  10.484   1.819  12.294 -0.0474 -0.0369  0.1179
16317W        W34521  12.043   6.054  14.735 -0.2283 -0.3694  0.1201
16318W        W34522   2.306   6.738   0.478 -0.1171 -0.1690  0.2201
16319W        W34523   2.885   1.879  14.758  0.1269  0.1525 -0.0033
16320W        W34524  16.378  15.536  11.396 -0.0479  0.2679  0.0022
16321W        W34525   7.518   6.366  10.533  0.1013 -0.1190  0.0807
16322W        W34526  15.562  18.196   5.562 -0.0648  0.1479  0.2760
16323W        W34527  17.082  12.363   2.369  0.1748 -0.1026  0.4559
16324W        W34528  11.072   9.795   1.586  0.1394 -0.2055  0.0938
16325W        W34529   1.280  14.599   2.097 -0.3479  0.0149 -0.0900
16326W        W34530   1.930   4.225  13.055 -0.1673  0.0784 -0.2371
16327W        W34531  14.743  14.003   1.866 -0.4175 -0.0121 -0.1296
16328W        W34532  16.874  10.755  13.629  0.1488 -0.0355  0.1733
16329W        W34533  14.687  14.519   0.096 -0.4251 -0.1007  0.1538
16330W        W34534  11.125  11.227  12.018  0.0203 -0.0519 -0.2318
16331W        W34535   6.643  11.819   3.215 -0.0706  0.2537  0.0928
16332W        W34536   7.174   3.229  14.529  0.0426  0.2285 -0.2172
16333W        W34537   9.311  10.017  11.646 -0.0987 -0.1067  0.3845
16334W        W34538  17.140   1.647  14.192  0.1225 -0.1924  0.1545
16335W        W34539  16.664   6.455   3.130 -0.1073  0.0083 -0.0880
16336W        W34540   6.350  17.043   0.603  0.2108  0.0730  0.1890
16337W        W34541   7.232  17.941  14.864 -0.1520  0.0726 -0.1486
16338W        W34542   8.126   3.851   1.431  0.2101  0.1652 -0.1694
16339W        W34543  16.130  14.031   4.541 -0.2536  0.0982  0.1926
16340W        W34544   5.680  11.954  11.660 -0.1975 -0.1899 -0.0741
16341W        W34545  18.277   9.737   5.063 -0.2152  0.0776  0.1506
16342W        W34546   0.887  14.414  10.316 -0.1647  0.1268  0.4093
16343W        W34547   6.720   0.472  12.287 -0.0466  0.0306 -0.2377
16344W        W34548   0.028  10.499   4.102  0.0891  0.1025 -0.0609
16345W        W34549  13.036  13.542  14.948 -0.0454 -0.0464 -0.1378
16346W        W34550   4.361   9.632   0.824  0.0665  0.0164 -0.3662
16347W        W34551   6.079  13.382  11.154  0.1667 -0.3747 -0.0151
16348W        W34552  15.683  11.755  11.102  0.0073 -0.1057 -0.2072
16349W        W34553   0.907  12.424  14.126  0.1091  0.1751 -0.0271
16350W        W34554   7.643   9.825   0.993 -0.2412 -0.0610 -0.3939
16351W        W34555   0.522  15.385   1.320  0.1152 -0.1225  0.0377
16352W        W34556   8.864   8.183   4.232 -0.0745  0.0655  0.3065
16353W        W34557   1.678   6.699  13.730 -0.2993  0.0807 -0.1200
16354W        W34558  17.507  11.479  11.519 -0.0979 -0.3465  0.1240
16355W        W34559  11.587   1.788   0.980  0.2761  0.0178 -0.2581
16356W        W34560   3.843   4.169   4.415 -0.1364  0.0680 -0.0123
16357W        W34561   4.148  12.963   0.871 -0.0941 -0.3739  0.2662
16358W        W34562   1.448   5.748  14.662 -0.0132  0.0255 -0.0091
16359W        W34563  10.482  15.440  14.272 -0.5678 -0.4281 -0.1502
16360W        W34564  15.902  16.622   0.014  0.1368 -0.1928  0.2419
16361W        W34565   2.178   5.786   0.922 -0.1816  0.0574  0.0432
16362W        W34566   2.655  18.917   1.595  0.1941 -0.1867  0.1215
16363W        W34567   2.900  17.028   1.353  0.2558 -0.2359 -0.1748
16364W        W34568   9.457   9.340   3.641 -0.1851  0.1701  0.1195
16365W        W34569  18.871  17.182  10.842  0.2515  0.2430  0.2235
16366W        W34570   6.625   4.598   0.680 -0.0141 -0.2277 -0.2192
16367W        W34571  12.442  15.314  11.808 -0.0693 -0.0714  0.0429
16368W        W34572   3.465   3.751  14.075  0.3047 -0.1628 -0.1419
16369W        W34573  18.046   8.852  12.040 -0.0357  0.0118  0.1421
16370W        W34574  17.021  17.739   0.365  0.1151  0.1592  0.0064
16371W        W34575  12.206   6.122   4.112  0.0009  0.0551 -0.2029
16372W        W34576  10.168  16.584   1.040 -0.1747  0.1260  0.2661
16373W        W34577  15.409   6.284  14.576  0.2689 -0.0552  0.1842
16374W        W34578   0.798  16.539   2.257 -0.1307 -0.0132  0.6165
16375W        W34579  17.465   8.842   2.661 -0.1297 -0.1124 -0.0152
16376W        W34580  13.578   5.560  13.696 -0.1925 -0.1529  0.0694
16377W        W34581   5.066  14.417  12.378  0.2025 -0.0556 -0.1407
16378W        W34582   8.624   9.089  13.027  0.0192  0.0239  0.1960
16379W        W34583   7.624  14.785  14.505  0.2008  0.2008 -0.0150
16380W        W34584  15.116   9.531  11.070  0.0551  0.0484 -0.2365
16381W        W34585   0.940  10.769  10.743 -0.2459 -0.2259  0.1951
16382W        W34586   2.341  13.217   2.214  0.0486 -0.1269 -0.4469
16383W        W34587  18.477   7.744  14.900  0.3633  0.1570 -0.1264
16384W        W34588   5.393   0.187  11.273  0.1285 -0.1073 -0.2711
16385W        W34589  11.309   4.308  13.769  0.0719  0.2440 -0.1863
16386W        W34590  14.417   3.041  10.419  0.3601  0.1963 -0.0166
16387W        W34591   1.448   6.842  12.436  0.2034 -0.0676 -0.1932
16388W        W34592   7.966   5.002  13.091  0.1266  0.0481  0.0870
16389W        W34593  14.985   3.570  10.636  0.4060 -0.0200  0.0199
16390W        W34594   5.626  12.950  11.322 -0.0554 -0.0739  0.0116
16391W        W34595   9.979   4.606  13.773 -0.0781 -0.0606 -0.4303
16392W        W34596   8.253  18.338   2.071 -0.3606  0.0100  0.0946
16393W        W34597   1.203   2.490   3.065  0.2610  0.1596 -0.2751
16394W        W34598  17.254  15.516  12.576  0.1617  0.2292 -0.0799
16395W        W34599  11.987  11.780   3.932  0.0403  0.1960  0.2781
16396W        W34600   6.987   8.328   3.918 -0.0819 -0.1434  0.1663
16397W        W34601   3.016  18.869  13.272 -0.0780  0.1853 -0.0654
16398W        W34602   3.152   0.784  12.780 -0.1620  0.2455 -0.2992
16399W        W34603  18.562   1.092   0.404  0.0499  0.0710  0.1199
16400W        W34604   4.318   5.120   3.000 -0.1180  0.0786 -0.0062
16401W        W34605   2.296   8.025   3.956 -0.4009  0.1233  0.1552
16402W        W34606  10.228   2.592  13.618  0.2444  0.2278 -0.0083
16403W        W34607   6.784  15.760   3.303 -0.0471 -0.1560 -0.0531
16404W        W34608   4.241  18.640  11.182 -0.1893 -0.1593 -0.2386
16405W        W34609  15.273   8.519   0.035  0.1198  0.0674  0.0167
16406W        W34610   1.801   4.872   5.616 -0.0606  0.0076 -0.1709
16407W        W34611   8.303   5.076   3.700 -0.1886 -0.2084 -0.2558
16408W        W34612  12.295  11.540  14.051 -0.0045  0.1175 -0.1370
16409W        W34613  16.772   3.234  11.907  0.1078 -0.1113 -0.3953
16410W        W34614   1.895  12.531  12.391 -0.2568 -0.1168 -0.2346
16411W        W34615  14.168   8.768  11.788  0.0950  0.0583  0.0943
16412W        W34616   9.574   2.350  12.619 -0.1680 -0.2275  0.1716
16413W        W34617   0.416   0.100   2.041  0.0906  0.0769 -0.0923
16414W        W34618  13.164   7.141   3.806  0.2527  0.1078 -0.1135
16415W        W34619  12.006   5.268  11.922 -0.3420  0.0519 -0.0268
16416W        W34620  13.472  18.461   0.634  0.0430  0.2839 -0.3937
16417W        W34621   0.083  15.005   1.158 -0.2707  0.0283 -0.0295
16418W        W34622  12.407   4.289   2.035 -0.0108  0.0427 -0.0587
16419W        W34623  13.491   9.117  12.182  0.0814 -0.1659  0.4313
16420W        W34624   1.936   2.488  12.774 -0.0369  0.0895 -0.0842
16421W        W34625  18.907   2.165   1.079 -0.2780  0.0305  0.0363
16422W        W34626  10.957   7.610   2.937 -0.0588  0.0519  0.2900
16423W        W34627  17.109   6.492  11.019  0.0883 -0.0642  0.1612
16424W        W34628  10.911   5.095   1.347 -0.0094  0.1391  0.1248
16425W        W34629   1.437   9.327  14.491  0.2211 -0.1963 -0.0575
16426W        W34630  12.638  18.666   2.228 -0.2649  0.2130  0.5217
16427W        W34631  16.488  18.296  13.393 -0.0252  0.1333 -0.1805
16428W        W34632  15.318  18.705  13.938  0.0799 -0.1235  0.3425
16429W        W34633  13.493   1.271   4.344 -0.2888  0.3921 -0.0871
16430W        W34634  13.606  18.220  11.585  0.0278  0.3677  0.2281
16431W        W34635  15.642   9.347   3.182 -0.3797 -0.1909 -0.0903
16432W        W34636  10.663  14.031  10.971 -0.5520 -0.2130 -0.3425
16433W        W34637   4.695   5.277   0.226  0.1217 -0.0835 -0.1811
16434W        W34638   3.364   1.977   3.581  0.1019  0.3990 -0.1535
16435W        W34639  15.121   1.589  14.504 -0.2199  0.2919 -0.0957
16436W        W34640  11.081   5.740   1.999 -0.0593  0.3326 -0.0080
16437W        W34641   6.670   1.526  12.163  0.3123  0.1684 -0.2863
16438W        W34642  12.328  10.207   9.842  0.0542  0.0162 -0.0045
16439W        W34643  16.774  15.997   1.169  0.2041  0.0983 -0.4708
16440W        W34644  17.713   2.014   3.927 -0.0925 -0.1402 -0.3113
16441W        W34645  16.492   8.029  12.764  0.1330  0.1179 -0.3524
16442W        W34646   7.344  17.379   2.666 -0.0281  0.3493 -0.0397
16443W        W34647   6.698   3.283  13.181 -0.1299  0.0613  0.1077
16444W        W34648   0.666   8.882   0.341  0.1638 -0.2659  0.3842
16445W        W34649   8.403  15.112  12.037 -0.2515 -0.3934  0.0630
16446W        W34650  10.582  16.445  11.372 -0.0867 -0.0141  0.0050
16447W        W34651   0.271  15.609  13.145  0.0664  0.3112  0.1484
16448W        W34652  17.013  12.714   2.857 -0.1267 -0.4283 -0.1442
16449W        W34653   0.361   0.380   3.216 -0.0458  0.1105  0.0303
16450W        W34654  14.431  13.025   0.902  0.3393  0.0584 -0.2071
16451W        W34655   7.684   6.433  14.773  0.1156 -0.0668 -0.1866
16452W        W34656  17.747  17.252  12.642 -0.3025  0.1020 -0.1096
16453W        W34657  11.885  15.011  12.240  0.1679  0.0104  0.3514
16454W        W34658   7.523  13.661  13.895  0.1552  0.2199  0.4249
16455W        W34659   7.715   2.651   1.068  0.0140 -0.0107  0.2164
16456W        W34660   7.371   6.515  13.028  0.2933  0.1598  0.0416
16457W        W34661  10.354  13.596  14.494 -0.1693 -0.0951  0.0357
16458W        W34662  10.882   2.340   1.273  0.2182  0.0184  0.3688
16459W        W34663  12.895   1.674  14.993 -0.1930 -0.3841 -0.2946
16460W        W34664  16.766  14.340   3.206 -0.0144  0.1339 -0.3013
16461W        W34665   7.108  11.999   0.155  0.0301  0.1213  0.0853
16462W        W34666   1.504   7.228  10.840  0.2207 -0.2204  0.0261
16463W        W34667   8.734  17.619   3.174 -0.0837  0.1517 -0.1509
16464W        W34668  15.399   8.345  14.101  0.2067  0.1684 -0.1302
16465W        W34669   6.419   9.050   3.232 -0.1693 -0.0007  0.0535
16466W        W34670  11.237   0.763   1.850 -0.0317 -0.1855 -0.2061
16467W        W34671  17.399   4.784  13.347 -0.1793 -0.1863 -0.0075
16468W        W34672  17.975   0.864   2.411  0.2963  0.0596  0.4144
16469W        W34673   6.259  15.580   0.560  0.2346  0.1642  0.0876
16470W        W34674  17.604  18.138   4.689 -0.1184  0.0706 -0.1702
16471W        W34675   6.485  10.499   1.005  0.1056  0.1206 -0.1731
16472W        W34676   1.712  16.302   0.046  0.5236  0.1703  0.0622
16473W        W34677  18.938   8.215  10.719 -0.0710  0.3196 -0.0329
16474W        W34678   2.151  15.824  11.730 -0.2133 -0.1399  0.2678
16475W        W34679   9.857   8.317   4.422  0.2802 -0.0617 -0.0868
16476W        W34680   6.128   1.423   0.179 -0.3501 -0.1635 -0.1021
16477W        W34681   4.027   4.288   1.293  0.0879  0.1492  0.3766
16478W        W34682   2.249   1.642  12.979  0.0874 -0.0009 -0.2585
16479W        W34683  10.215   5.799  11.346 -0.1132 -0.1490  0.3097
16480W        W34684  13.855  18.412   3.485 -0.2827 -0.2680  0.0526
16481W        W34685  15.401   7.979  10.578 -0.0651  0.1671  0.1153
16482W        W34686  11.985   9.425   1.267  0.0148 -0.0339  0.0745
16483W        W34687  14.690   4.545  13.584 -0.1153  0.0440 -0.1964
16484W        W34688   1.629   6.425  13.297 -0.3276  0.3053  0.0265
16485W        W34689   2.710  11.667   1.974  0.5479 -0.1303 -0.0496
16486W        W34690  18.231  15.005   3.082  0.0670 -0.0749  0.2436
16487W        W34691   4.617   8.799  13.081 -0.0309  0.1251  0.4819
16488W        W34692  11.394   0.016   4.282 -0.1408  0.1799  0.0123
16489W        W34693   9.942  10.995  13.303 -0.1555  0.0095  0.2630
16490W        W34694   8.436  18.197  11.040  0.2798 -0.0851 -0.1989
16491W        W34695   3.987  18.844  14.653  0.1909  0.1715 -0.1305
16492W        W34696  10.189   8.803   0.107  0.1586 -0.0382  0.0461
16493W        W34697   0.883   9.630  13.107 -0.2370  0.1550 -0.4197
16494W        W34698  12.782   0.088   4.051 -0.1057  0.1052  0.2591
16495W        W34699   7.835   3.075   5.266 -0.1396  0.0114  0.0547
16496W        W34700   8.142   3.452   4.208 -0.1111  0.1710 -0.0694
16497W        W34701   0.503   5.433   4.014  0.0922  0.2105 -0.1949
16498W        W34702   0.096   8.409   2.598  0.1052 -0.5586 -0.1929
16499W        W34703   5.627  18.730  13.794  0.2612  0.4057  0.0844
16500W        W34704  11.492  14.909  13.586  0.1748 -0.0322  0.1269
16501W        W34705   3.874  16.821  13.401 -0.1470 -0.0179 -0.0589
16502W        W34706  10.398  12.353   4.849  0.3277 -0.1366  0.1978
16503W        W34707   9.904   6.475  11.763  0.0856 -0.2551  0.0742
16504W        W34708   9.522   0.553  13.614 -0.3592 -0.1399 -0.3794
16505W        W34709   2.019   8.160  12.288  0.0633 -0.2391  0.0525
16506W        W34710  10.178   3.930   0.055  0.3204 -0.2080 -0.0492
16507W        W34711  18.320   0.551   2.597  0.1008 -0.1024  0.2661
16508W        W34712   8.279   9.073  14.394 -0.1684 -0.2174 -0.2550
16509W        W34713  11.508   6.587  11.487  0.2227 -0.3421  0.0617
16510W        W34714   3.493  14.815   2.631  0.0919 -0.2870  0.0854
16511W        W34715  12.506   3.834   1.429 -0.1385 -0.1392 -0.0736
16512W        W34716  11.503  11.225   3.258 -0.1039 -0.4697 -0.3652
16513W        W34717   2.190   1.243  10.887 -0.2077  0.1085  0.2876
16514W        W34718  11.769  13.910   0.446  0.2717 -0.0731 -0.4281
16515W        W34719   6.189   4.608   1.023  0.0426  0.0722 -0.0885
16516W        W34720   7.433   8.571   0.662  0.0583 -0.0476 -0.1599
16517W        W34721   5.487  15.058  10.594 -0.1877  0.0185 -0.1693
16518W        W34722   4.282  18.388   4.123  0.1289  0.2184  0.1510
16519W        W34723  12.123  17.031   2.057  0.2172 -0.0455 -0.0414
16520W        W34724   8.471  15.146   3.449  0.2552 -0.0932  0.2050
16521W        W34725   8.409  11.775  10.833 -0.1353  0.0475 -0.4283
16522W        W34726   3.668   9.780  12.611 -0.1758 -0.2146 -0.0870
16523W        W34727  12.373   9.111   3.398 -0.2461  0.1507  0.2168
16524W        W34728   8.029  18.336  12.365  0.1403  0.1092  0.2062
16525W        W34729  13.933   4.692  14.897  0.1046 -0.0545  0.3698
16526W        W34730  16.346   5.572   2.198  0.0454  0.2982  0.3024
16527W        W34731   8.406   7.646   1.070  0.0964  0.0255  0.2882
16528W        W34732   7.943  16.828  13.251  0.2224  0.0849 -0.1842
16529W        W34733  16.395  11.883   4.052  0.1069 -0.1773 -0.0897
16530W        W34734  15.160  11.471   0.015 -0.0711  0.0874  0.2349
16531W        W34735   7.513   9.423  11.616  0.1352 -0.0693 -0.1608
16532W        W34736  10.352   3.006   4.456  0.2333 -0.1346 -0.4104
16533W        W34737  15.146   5.064  13.472 -0.3131 -0.4593 -0.0811
16534W        W34738   0.095  11.737   0.306  0.3585 -0.4025  0.0108
16535W        W34739   9.017  12.723  11.993 -0.2174 -0.0136 -0.1927
16536W        W34740  16.150   5.396   1.034  0.1674  0.1091 -0.1639
16537W        W34741  15.764   7.574   3.583 -0.0466 -0.0574 -0.0071
16538W        W34742   4.088   8.272  13.974  0.1453  0.1746  0.0076
16539W        W34743  10.777   9.814   1.184 -0.2333  0.0108 -0.1707
16540W        W34744   4.402   9.880   4.464 -0.1220 -0.1030  0.0716
16541W        W34745   4.803  12.806   3.301 -0.2412  0.1341 -0.3422
16542W        W34746  18.918  16.032  12.426 -0.0280  0.0353  0.0360
16543W        W34747  16.573   8.523  12.540  0.1003 -0.2252  0.2090
16544W        W34748   5.485   2.163   2.218 -0.0830  0.3372 -0.0369
16545W        W34749   4.718   1.507  13.001 -0.1612 -0.2896 -0.0507
16546W        W34750  12.712   4.011  11.938 -0.1593 -0.1426  0.0538
16547W        W34751  18.635   6.044  14.814 -0.0742  0.1442 -0.3946
16548W        W34752   4.761   8.663  10.790 -0.0554 -0.0866  0.1455
16549W        W34753   4.278  11.402   1.691  0.2441 -0.0112 -0.2414
16550W        W34754  15.333   2.973   2.882 -0.1232  0.0045  0.1091
16551W        W34755   0.839   0.414  13.078  0.1400 -0.1713 -0.1219
16552W        W34756  15.110   5.245   0.403  0.1226 -0.1537 -0.1462
16553W        W34757  16.600   1.232   0.305 -0.1156 -0.0085 -0.1522
16554W        W34758   7.531  15.930   0.654 -0.4936  0.2821  0.1179
16555W        W34759   6.085   0.094  13.797  0.0709  0.3001  0.0913
16556W        W34760   7.492   0.648  11.257  0.0176 -0.0024  0.0605
16557W        W34761   1.230  12.413   3.578  0.0523 -0.0628 -0.5259
16558W        W34762   4.157   3.905   4.159 -0.2752  0.0215  0.2791
16559W        W34763  17.923   7.195  11.841  0.2222  0.0096 -0.1329
16560W        W34764  17.750   4.409  14.293 -0.0294  0.0702 -0.2698
16561W        W34765  11.611  15.694  11.991  0.1489  0.0306  0.0489
16562W        W34766  16.916  10.242   2.525  0.2080 -0.2594  0.1196
16563W        W34767   3.057  15.510  12.956  0.0087 -0.0177  0.2284
16564W        W34768   7.467   7.572   2.459 -0.2078 -0.0366 -0.4949
16565W        W34769   7.284   6.657   3.662 -0.2820  0.2136 -0.3312
16566W        W34770  12.654   8.655   3.724 -0.0650  0.0135 -0.2290
16567W        W34771   8.779   4.468   1.364 -0.0485 -0.0061 -0.1571
16568W        W34772   9.334   9.216  11.541  0.5344  0.4026  0.0176
16569W        W34773  14.479   7.701   1.315  0.1639  0.3522  0.4573
16570W        W34774   9.797  15.913   3.825 -0.2180 -0.0126  0.1504
16571W        W34775  10.169   3.977   2.399  0.1365 -0.0941 -0.0699
16572W        W34776  13.626   9.962   3.371  0.0823  0.0946  0.0764
16573W        W34777  15.852   2.496  14.783 -0.3033  0.2493 -0.0812
16574W        W34778  18.335  16.849   0.486  0.1109 -0.2965 -0.0602
16575W        W34779   2.119   5.398   3.589  0.2610 -0.0170 -0.2523
16576W        W34780   9.313   2.546   0.030 -0.0038 -0.0873 -0.1579
16577W        W34781   1.796   3.706  12.957  0.2831  0.1110  0.0910
16578W        W34782   6.567  18.432   4.718 -0.0239  0.2514 -0.0502
16579W        W34783   8.188  13.629   4.552 -0.2555  0.0232  0.0016
16580W        W34784  18.512  15.573   3.813  0.2984  0.2149 -0.2213
16581W        W34785  12.657  11.148   3.906 -0.0776 -0.0516  0.2483
16582W        W34786   1.168  15.647   2.572 -0.2591  0.0145  0.2827
16583W        W34787  16.059  10.944   2.453 -0.0433  0.0137 -0.3545
16584W        W34788  14.477   3.400   3.811 -0.0001  0.0099  0.1996
16585W        W34789   4.957  17.004   3.455  0.0540 -0.0477 -0.1590
16586W        W34790  10.460  15.405   3.363  0.1094  0.0392 -0.0378
16587W        W34791   2.109   0.131  12.481  0.3117  0.2082 -0.0971
16588W        W34792   2.998   4.695   3.161  0.2588 -0.1309 -0.0437
16589W        W34793   4.552  11.992   3.658  0.5215 -0.0549  0.3094
16590W        W34794   9.672   1.026  11.868 -0.0552  0.0795  0.1916
16591W        W34795  11.503   2.824  13.569 -0.2597  0.3336  0.0067
16592W        W34796   5.682   6.113  14.796  0.1427 -0.0213 -0.0131
16593W        W34797  14.758   7.909  11.568  0.0830  0.1955  0.4864
16594W        W34798  11.608   1.111  11.740 -0.0239  0.0759  0.1472
16595W        W34799   3.209   3.257  13.856 -0.1471  0.2870  0.2673
16596W        W34800  12.071  13.695   2.387  0.1129  0.0673  0.0352
16597W        W34801  16.418   0.386  14.215  0.3130 -0.0352  0.2349
16598W        W34802  16.702   1.754  14.544  0.2393 -0.2824  0.3150
16599W        W34803   7.100   9.667   2.594  0.1997 -0.0109  0.0051
16600W        W34804   8.308   4.469  12.061 -0.4162  0.0174  0.1908
16601W        W34805   2.383  17.863   2.335 -0.0715 -0.0410 -0.0670
16602W        W34806   9.194  10.429  13.150 -0.2642  0.0496 -0.1103
16603W        W34807  12.105   6.509   0.565 -0.0471  0.0872 -0.1061
16604W        W34808  18.272   4.872   2.137  0.1661  0.0960 -0.3098
16605W        W34809   8.586   8.596  12.793 -0.0928  0.3161  0.0277
16606W        W34810   3.254  18.369   3.196 -0.1121 -0.2038  0.1543
16607W        W34811  16.653  14.713  10.502 -0.1861  0.0320 -0.0668
16608W        W34812   8.323  15.967  11.207 -0.0674 -0.2934 -0.0170
16609W        W34813   2.407   5.858   1.935  0.1945  0.4779 -0.0597
16610W        W34814  18.707  10.174  12.819  0.0590  0.2572  0.4082
16611W        W34815  13.006  14.129   2.445  0.0355 -0.0815 -0.0253
16612W        W34816   3.743  16.057  12.562  0.3721 -0.2771 -0.0102
16613W        W34817  17.634  13.031   3.709  0.0618 -0.1557  0.0347
16614W        W34818   6.219  12.740   2.546 -0.0690 -0.0671 -0.0147
16615W        W34819   1.859  14.456  10.651 -0.0431  0.1583  0.1748
16616W        W34820   1.360   6.651   3.705  0.3389 -0.1412  0.1035
16617W        W34821  11.678   3.406   4.066  0.3638 -0.0037 -0.0466
16618W        W34822  16.869   3.319   3.747  0.2920 -0.0047  0.2147
16619W        W34823  11.744   0.980   0.142  0.1244  0.0186 -0.1122
16620W        W34824   4.924  15.289  12.267 -0.1908  0.0961 -0.1346
16621W        W34825   7.769   5.164  11.782  0.0722 -0.1915  0.0728
16622W        W34826  10.061  12.290   3.535 -0.1354  0.2614  0.2681
16623W        W34827  14.720   5.912   2.520  0.0573 -0.0077  0.4448
16624W        W34828   7.809  15.495  11.976  0.2786  0.0394  0.0925
16625W        W34829   4.621  10.814  13.303  0.0130  0.4335 -0.1704
16626W        W34830  18.424   6.697   4.383  0.2023 -0.1030  0.0743
16627W        W34831  14.327  18.038  12.308  0.2193  0.0256 -0.2911
16628W        W34832   9.539  10.074  13.170 -0.2631 -0.1923 -0.1323
16629W        W34833  10.571   4.688   1.248  0.1662  0.0329 -0.0499
16630W        W34834  14.478  17.728  10.978 -0.0014 -0.3181  0.0993
16631W        W34835   6.334   3.232   3.440 -0.1442 -0.1517 -0.1065
16632W        W34836   2.708  13.298   0.295 -0.0591  0.1924 -0.2290
16633W        W34837  17.794   0.956  12.713  0.1250  0.1811  0.1491
16634W        W34838  15.683   6.834  14.762 -0.0381  0.4283  0.0390
16635W        W34839  10.971  10.761  11.814  0.1319  0.0440  0.2300
16636W        W34840   8.306  16.748   4.159 -0.0768 -0.0087  0.1074
16637W        W34841  12.426  14.308   0.257 -0.0997 -0.3404  0.1501
16638W        W34842   3.491   0.052   3.938 -0.1491 -0.1054 -0.0611
16639W        W34843  16.275   2.946   0.272 -0.0133 -0.0228 -0.1377
16640W        W34844  10.598   3.317  10.442  0.0804  0.0118 -0.0340
16641W        W34845   9.400   8.680   2.691  0.0690 -0.1861  0.0944
16642W        W34846  11.553  16.904  13.311  0.1465  0.3283  0.4261
16643W        W34847   3.973  18.374  12.091  0.1961  0.1336  0.2314
16644W        W34848  16.323  10.844  15.011  0.2194  0.1678 -0.0365
16645W        W34849   2.989   1.629  10.787  0.0424  0.1417  0.1974
16646W        W34850  11.706  13.692  12.579  0.1811 -0.2062 -0.1853
16647W        W34851   1.079  17.845   3.627  0.0461 -0.0376 -0.1934
16648W        W34852   7.903   3.101  12.804  0.0121 -0.2658 -0.1117
16649W        W34853   6.483  15.860  11.378 -0.0169  0.1243  0.5344
16650W        W34854  13.506   7.497   0.108 -0.0427  0.2458 -0.1334
16651W        W34855   9.347   1.134   1.125 -0.4743 -0.0674 -0.1319
16652W        W34856  13.034   0.579  10.529 -0.3250  0.0235  0.3666
16653W        W34857   2.652  14.271   3.498 -0.0960 -0.0190 -0.0949
16654W        W34858   4.415  17.600  13.172 -0.1127 -0.0149 -0.0626
16655W        W34859  18.934   5.939  14.125  0.0107 -0.1161  0.1976
16656W        W34860  10.118  16.581  12.320  0.1184 -0.0298  0.0391
16657W        W34861   8.847   1.229  10.194  0.1360 -0.0289 -0.1263
16658W        W34862  15.188   4.634  10.886  0.0943 -0.0232  0.5062
16659W        W34863  10.403  17.959  13.807 -0.1623  0.1343  0.1839
16660W        W34864  17.879   9.510   5.671 -0.1942 -0.0877  0.2748
16661W        W34865   1.142  15.912  10.513  0.0737  0.0911 -0.2849
16662W        W34866   3.214   5.147   0.186  0.0145  0.0160 -0.0821
16663W        W34867   2.020   5.735  12.088 -0.0338 -0.2422  0.1172
16664W        W34868   4.436  12.210  10.879  0.0770 -0.2824  0.3590
16665W        W34869   7.358   3.669   4.718  0.2717 -0.2792 -0.0450
16666W        W34870   3.642  15.379   0.520 -0.1430  0.1857 -0.2069
16667W        W34871   8.837  17.388  10.603 -0.1639  0.0557  0.0266
16668W        W34872   1.885   5.475   2.062 -0.0618 -0.0928  0.1199
16669W        W34873   4.540   0.841   2.539 -0.2833  0.1901  0.1272
16670W        W34874  16.898  13.817  10.697  0.4403  0.2090  0.1447
16671W        W34875   6.846  13.974  13.041 -0.2405 -0.0092 -0.1044
16672W        W34876  15.319   0.120   1.049  0.1270  0.1615  0.6846
16673W        W34877   0.229   6.256  10.976  0.5750 -0.1243  0.0727
16674W        W34878   0.694   2.702   3.019  0.0424 -0.0759  0.0072
16675W        W34879   7.238  13.662  13.110 -0.2043 -0.1859 -0.0626
16676W        W34880   8.444   5.247  14.782 -0.0860 -0.0856 -0.2773
16677W        W34881   6.352   2.436  11.838 -0.3141  0.0784 -0.0483
16678W        W34882  17.273   0.427  14.522 -0.1811 -0.1474  0.0849
16679W        W34883  10.753   8.302   5.692  0.0931 -0.2832 -0.0586
16680W        W34884   3.110   2.388  13.996 -0.1437  0.0528  0.0149
16681W        W34885   9.524   0.054   2.302 -0.1785  0.2268  0.1832
16682W        W34886   6.678  12.198   5.451 -0.2290 -0.0462  0.0842
16683W        W34887   0.335   6.307   2.365  0.3124  0.0748  0.0566
16684W        W34888   9.704  17.428   0.116 -0.4050 -0.0985  0.2940
16685W        W34889  15.256   5.136  10.896  0.2455 -0.1741 -0.1442
16686W        W34890   0.479  13.080   3.058 -0.0083  0.1205  0.3742
16687W        W34891   2.654  13.286  11.016  0.0838 -0.1811 -0.0932
16688W        W34892  11.388   3.017  13.086 -0.0140 -0.0939 -0.0671
16689W        W34893   8.474  14.876  13.847  0.1280 -0.0848  0.0582
16690W        W34894   9.075   2.194   2.050  0.0357 -0.6433  0.0752
16691W        W34895  11.785   1.152   9.311  0.1603 -0.1867 -0.0860
16692W        W34896  17.803  18.928  11.004  0.0907 -0.1448  0.0985
16693W        W34897   0.885  16.284  15.012 -0.0659  0.1219 -0.0413
16694W        W34898   8.502  18.118   4.503 -0.0391  0.0199  0.0190
16695W        W34899   9.252  17.800   3.125  0.0795  0.0405  0.1070
16696W        W34900  11.646  11.021   5.283  0.2561  0.4428 -0.0815
16697W        W34901   8.959  18.426   2.310 -0.2737  0.2747  0.0046
16698W        W34902   8.952  11.039   4.472  0.4271  0.2354  0.0084
16699W        W34903   9.084   4.801  13.789  0.0261  0.2333 -0.0083
16700W        W34904   0.985  10.263  11.138  0.4639 -0.0671  0.0787
16701W        W34905   1.414  11.330   2.302 -0.1087  0.1518 -0.1322
16702W        W34906  12.863  18.516   1.809 -0.1376  0.1427  0.2838
16703W        W34907  11.456   6.410  12.457  0.1680 -0.1335  0.0438
16704W        W34908   5.280  12.829   2.465 -0.1037 -0.1553  0.1757
16705W        W34909   1.522   3.606   3.064 -0.0792 -0.1997  0.0837
16706W        W34910   2.365  10.686  14.490  0.3178  0.0816  0.1732
16707W        W34911  14.434  14.713  13.577 -0.1750  0.3141  0.2784
16708W        W34912   5.668   7.159   0.773  0.0558  0.1556 -0.2905
16709W        W34913   5.238   1.881   9.855 -0.1478 -0.0631  0.1441
16710W        W34914   2.923  17.756   4.399  0.2933  0.2228 -0.1570
16711W        W34915  10.089  10.826   3.475  0.1811 -0.0962  0.2365
16712W        W34916  15.294  18.037   0.749  0.0571 -0.0492  0.3369
16713W        W34917   1.402   6.786   4.167 -0.2118 -0.1890  0.1573
16714W        W34918  13.070  15.411  11.072  0.1358 -0.1883 -0.1277
16715W        W34919   6.106   7.536  13.690 -0.1038  0.3286 -0.1109
16716W        W34920  14.916  14.678  11.783 -0.1217  0.0500  0.1991
16717W        W34921   0.099   7.486   3.409 -0.1797 -0.0501  0.0438
16718W        W34922   8.304   2.846  12.583  0.3867  0.0405  0.4003
16719W        W34923   8.588  12.566  12.512  0.1567  0.2526  0.1712
16720W        W34924   8.787   4.492   3.182  0.0117 -0.1531 -0.2408
16721W        W34925   7.263  13.498   3.115  0.0603 -0.2405 -0.0988
16722W        W34926   6.013   1.165   1.182 -0.0835  0.0505 -0.0124
16723W        W34927   8.714   5.834  10.737 -0.2326  0.0970  0.0444
16724W        W34928  13.969   0.138  11.717  0.4455 -0.2735 -0.1300
16725W        W34929  14.243   6.170  14.718 -0.0350 -0.0647  0.1034
16726W        W34930   5.209   8.141   3.137  0.0707  0.2339 -0.0880
16727W        W34931  14.217  18.509  13.250 -0.1764 -0.0827 -0.2552
16728W        W34932  14.385   4.658  13.152  0.0829  0.2347 -0.0287
16729W        W34933   1.805   7.433  13.316 -0.1116  0.0155 -0.1658
16730W        W34934   4.908  18.512   5.241  0.2053  0.0085  0.2459
16731W        W34935  14.426   7.480  11.648 -0.3416 -0.2652 -0.1473
16732W        W34936  10.482   4.227   3.591  0.0715 -0.0608 -0.4023
16733W        W34937   9.453   6.949  13.575  0.1194  0.1572 -0.0292
16734W        W34938  17.366   5.513  14.760  0.0150  0.3447 -0.0302
16735W        W34939   3.336  17.260  13.244 -0.1872 -0.2608 -0.0274
16736W        W34940  13.987   5.645   2.371 -0.0850  0.1554  0.0174
16737W        W34941   2.574   2.708  10.941  0.0318 -0.1936 -0.1674
16738W        W34942  18.513   4.566  13.213  0.0385  0.2238 -0.0306
16739W        W34943   2.548  11.795   0.768  0.0133 -0.2247  0.1835
16740W        W34944  18.071  13.767  13.233 -0.0204 -0.2673 -0.0119
16741W        W34945  18.378   6.844   2.030 -0.1152 -0.0959 -0.2792
16742W        W34946  12.937  18.074  10.355  0.1608  0.1075  0.0035
16743W        W34947  14.513  10.399   4.347  0.1083 -0.0373  0.0849
16744W        W34948  17.106   8.811   2.173  0.0636 -0.0391  0.1093
16745W        W34949  11.715  12.230   3.731 -0.1488  0.2196 -0.2720
16746W        W34950  18.253  14.511  11.577 -0.2174 -0.2059  0.1637
16747W        W34951   3.832  17.739   1.937 -0.2615 -0.2144  0.2779
16748W        W34952   0.889   2.251   1.223  0.2855 -0.4053 -0.1406
16749W        W34953  10.796  18.792  13.635  0.0507  0.2445  0.1438
16750W        W34954  15.117  10.509  10.887 -0.4295 -0.2584  0.1280
16751W        W34955   3.549  16.119   2.524 -0.1051  0.2618  0.4143
16752W        W34956   4.979   8.225  14.010 -0.2787 -0.2921  0.0927
16753W        W34957   9.583   4.707   0.186  0.0716  0.2158 -0.0721
16754W        W34958  16.978  11.915  10.646  0.0731 -0.0016 -0.0608
16755W        W34959  10.639   2.413  10.804 -0.0097 -0.4139  0.0607
16756W        W34960   5.000  18.911   4.964  0.0197 -0.1045 -0.0188
16757W        W34961  10.846  15.718   0.844 -0.3328  0.0978 -0.1461
16758W        W34962   6.838  16.659  12.825  0.0835  0.1685 -0.0391
16759W        W34963   0.275   7.968  11.089 -0.2718  0.0076 -0.3250
16760W        W34964  15.429  13.215   3.657 -0.1808  0.3857 -0.2270
16761W        W34965  16.503   1.887  10.738 -0.1843  0.0820 -0.0364
16762W        W34966  10.069   2.409   5.228 -0.0558  0.0872 -0.1101
16763W        W34967  15.080  15.150  13.828 -0.0001 -0.0219  0.0559
16764W        W34968  10.893   1.285  14.498  0.0535 -0.0798  0.0812
16765W        W34969  13.575   2.783  12.724 -0.0738  0.0663 -0.0699
16766W        W34970   3.943   3.379  13.057 -0.0377  0.2585 -0.1060
16767W        W34971   7.807   4.894  14.862 -0.5083  0.0259  0.0898
16768W        W34972   1.296  18.731   3.447  0.3252 -0.3108 -0.1370
16769W        W34973  15.548   4.786  10.407  0.1076  0.1174 -0.0879
16770W        W34974  18.182  16.208  15.020 -0.2428 -0.2050  0.3535
16771W        W34975   1.587   1.382   0.358 -0.1503 -0.1094 -0.0806
16772W        W34976  14.549  15.687  14.504  0.0528 -0.0658  0.3539
16773W        W34977   4.766  15.669   9.480 -0.1281  0.0614 -0.1107
16774W        W34978   9.297  11.752   1.750 -0.0069 -0.1997  0.2253
16775W        W34979   5.647   4.519  14.101 -0.0638  0.2656  0.0061
16776W        W34980   3.890   8.305  13.483 -0.1683 -0.0603  0.0235
16777W        W34981   2.189  10.547   0.571  0.0875 -0.3044  0.0358
16778W        W34982  11.596  18.673   4.619  0.2048  0.0002 -0.0004
16779W        W34983   1.681   0.391  12.729 -0.1796  0.0746 -0.0470
16780W        W34984  16.753  12.103  10.247  0.2903  0.2690  0.1092
16781W        W34985   5.554   6.164   3.129  0.2359  0.0400 -0.0694
16782W        W34986   6.781  16.289  11.324 -0.2756  0.2342 -0.2718
16783W        W34987   9.801   3.766   2.164  0.0838 -0.1009  0.3303
16784W        W34988   4.535   8.116   1.243 -0.2896  0.0002  0.2178
16785W        W34989  12.005   0.279   3.580  0.2013 -0.1241  0.3351
16786W        W34990   8.700  10.516   1.766 -0.0138 -0.0140  0.2209
16787W        W34991   9.859   4.023  12.118  0.0490 -0.0975 -0.2012
16788W        W34992   0.720  18.793   9.635 -0.1013  0.0355  0.0273
16789W        W34993   4.656  14.857   3.595 -0.0706  0.1846 -0.1612
16790W        W34994   0.725   2.646  11.662  0.0184  0.1521 -0.1487
16791W        W34995   9.876   6.882   1.523 -0.1925  0.0781 -0.1956
16792W        W34996  10.295   0.991  13.717  0.0854  0.0843 -0.0290
16793W        W34997  18.648   4.317  14.607 -0.0450 -0.1130  0.0565
16794W        W34998  10.794  16.607   3.520 -0.0347  0.0406 -0.4165
16795W        W34999   4.444   4.632  11.308 -0.0166 -0.2184  0.0451
16796W        W35000  14.245  16.126  10.835  0.0991 -0.1217 -0.0264
16797W        W35001   6.385  17.900   3.943  0.2979 -0.1529 -0.0793
16798W        W35002  16.607  17.832   0.654 -0.1119 -0.1274 -0.0282
16799W        W35003   2.806   3.780   3.200  0.0021 -0.0500 -0.0342
16800W        W35004  11.273  11.522   5.482 -0.0062 -0.0369 -0.0685
16801W        W35005  11.079   5.093  12.321 -0.0613  0.1068 -0.2503
16802W        W35006  15.306  12.137   3.779 -0.3875 -0.1016  0.1743
16803W        W35007   3.645   1.065   3.902 -0.2493 -0.0498  0.0516
16804W        W35008   7.052  10.387   4.221 -0.0602  0.2015  0.0510
16805W        W35009   5.331  11.122  10.574 -0.2115  0.1648 -0.1297
16806W        W35010  15.708  18.824  10.516 -0.0428  0.0739  0.0315
16807W        W35011  14.094  13.212   0.492  0.3552  0.0288 -0.0566
16808W        W35012  12.757   5.443   0.498  0.1848  0.0560  0.1689
16809W        W35013   7.097  12.483   2.603  0.2479  0.0837 -0.0261
16810W        W35014   6.686   1.840  13.023  0.2410 -0.0242  0.2662
16811W        W35015   1.901   8.089   3.304 -0.4337 -0.1930  0.0041
16812W        W35016  16.574   3.179  10.619  0.0197  0.2902 -0.0845
16813W        W35017  17.767  13.365   4.076 -0.1615 -0.1468 -0.1687
16814W        W35018   9.068  15.477  12.763 -0.0608  0.1758  0.0640
16815W        W35019   7.782   2.957  11.790 -0.0090 -0.1728 -0.0708
16816W        W35020  14.146  18.357  14.265  0.0204 -0.0690 -0.0718
16817W        W35021  17.417   7.940   2.418 -0.0756  0.1288 -0.1702
16818W        W35022   4.438   3.334   3.527 -0.0312  0.2381 -0.0703
16819W        W35023   2.151   8.076   1.287 -0.0358 -0.2034 -0.0727
16820W        W35024   8.247  16.499  13.530  0.3038 -0.1360 -0.1781
16821W        W35025  13.134   2.128  11.982 -0.1933  0.3252 -0.3012
16822W        W35026   5.830   8.132  10.625  0.2549 -0.1284  0.0455
16823W        W35027  12.590  14.301   3.323 -0.3402  0.0004 -0.2005
16824W        W35028   6.923  12.991   2.294 -0.0453  0.0158  0.0451
16825W        W35029   1.435  12.612   3.168 -0.0514  0.0707  0.2555
16826W        W35030  18.385  14.282  12.462  0.0543 -0.0069  0.0573
16827W        W35031   1.516  18.895  14.079 -0.1666 -0.1062 -0.0874
16828W        W35032  14.660   9.067   3.505  0.1497  0.0824 -0.1958
16829W        W35033   2.950  16.906  13.056  0.1622  0.2719 -0.1612
16830W        W35034  11.671   6.005  10.121  0.1812 -0.2718  0.2384
16831W        W35035  18.681  15.442  13.822  0.3075  0.2303  0.3008
16832W        W35036  14.865   1.237   4.970  0.2979  0.3037 -0.1612
16833W        W35037  16.816  15.502  14.511 -0.1822 -0.1682  0.0554
16834W        W35038   7.239   6.202  14.765 -0.2631  0.1542 -0.0819
16835W        W35039   1.237   6.764  11.089  0.0173 -0.0763 -0.0681
16836W        W35040  15.580   1.525  11.386 -0.0220 -0.1858 -0.0749
16837W        W35041   1.707   2.225  14.488  0.1154 -0.0063  0.1095
16838W        W35042  18.365   0.760   3.499  0.3163 -0.1059  0.1576
16839W        W35043  16.635  16.734   4.467 -0.1517 -0.1441 -0.0703
16840W        W35044   2.135   4.047   3.309 -0.0370 -0.1814  0.0743
16841W        W35045  11.797   8.163  13.190  0.1932  0.0614 -0.1471
16842W        W35046  12.736   9.409  12.628 -0.0743 -0.1006 -0.2723
16843W        W35047   3.605   6.525   1.497 -0.0775  0.0725  0.0020
16844W        W35048  12.877   5.877   4.702  0.1563 -0.0917 -0.0885
16845W        W35049   2.176  13.674   3.653  0.4070 -0.3226 -0.0140
16846W        W35050  12.652   4.729   3.818  0.0017  0.1665  0.1010
16847W        W35051  10.552   3.818  13.819 -0.2137  0.2815 -0.0729
16848W        W35052   6.326  13.028   4.746 -0.2234 -0.3920  0.1231
16849W        W35053  18.321  17.365  11.330  0.1392  0.0570 -0.1880
16850W        W35054  12.066   9.124   3.842 -0.0967 -0.2380 -0.4137
16851W        W35055   8.595   3.761   1.201 -0.0743  0.1003  0.3012
16852W        W35056   3.748  13.120   0.578 -0.3318 -0.0542  0.1516
16853W        W35057   0.924   9.034   3.927 -0.0855 -0.0427  0.0910
16854W        W35058  14.657   5.688  12.164 -0.0606  0.4283  0.1213
16855W        W35059   2.209  18.585   1.564 -0.3085 -0.1560  0.1320
16856W        W35060   3.121  10.029   2.785 -0.2425 -0.2287 -0.2032
16857W        W35061  12.414   3.834  10.804  0.0529 -0.1594 -0.2091
16858W        W35062   0.210  17.956  11.137  0.0649  0.0224 -0.2326
16859W        W35063   9.622   9.471  12.748 -0.1182  0.2407  0.0333
16860W        W35064  18.207  13.283   2.478 -0.0392 -0.0964  0.1765
16861W        W35065  17.851   0.827   0.981  0.1581  0.6351  0.2649
16862W        W35066  16.180   8.249   2.475 -0.1678 -0.0215  0.0886
16863W        W35067   4.505  16.255   3.354  0.0369 -0.2301  0.0648
16864W        W35068   0.380   7.287  12.325  0.4595  0.0477  0.1634
16865W        W35069  18.249   6.692   0.971  0.3529 -0.0318 -0.1319
16866W        W35070   8.815   8.352  14.830 -0.0169 -0.1548  0.1186
16867W        W35071  10.377   6.905  14.721  0.2455  0.0145 -0.1328
16868W        W35072   6.997   5.906   2.005 -0.0884  0.3177  0.2514
16869W        W35073  10.302   9.464   3.734 -0.0499  0.4446 -0.0938
16870W        W35074  12.271   1.750  12.059 -0.1385  0.0816 -0.0213
16871W        W35075  11.697   3.785  11.296 -0.3788 -0.0135  0.0781
16872W        W35076  18.611  16.143   2.960 -0.2612  0.1152  0.1941
16873W        W35077  16.914   4.519   3.563 -0.1387  0.0206 -0.2046
16874W        W35078   8.379   8.563  13.230  0.1343  0.2262  0.2237
16875W        W35079  17.143  17.182  11.444 -0.3040  0.0961 -0.1896
16876W        W35080  18.434  16.165   1.339  0.3206 -0.2386 -0.1913
16877W        W35081   9.348  15.612   3.740  0.2565  0.1315 -0.0089
16878W        W35082  17.059   1.783  13.705 -0.1377  0.0499 -0.1392
16879W        W35083  15.163  11.124  12.840  0.0490 -0.0704 -0.0611
16880W        W35084   8.945  13.855  12.504 -0.1961  0.3028 -0.0350
16881W        W35085   0.385   6.264   1.279  0.1930 -0.3111  0.0524
16882W        W35086   9.516  18.219   9.501  0.0725 -0.1643  0.2706
16883W        W35087   2.045   2.630  10.993  0.3657 -0.0715 -0.4302
16884W        W35088  13.858   1.547  11.569 -0.0521  0.0212  0.1169
16885W        W35089  13.225   1.320  13.570  0.3031  0.1044  0.0936
16886W        W35090  16.020   3.242  14.484  0.3236 -0.1793 -0.0315
16887W        W35091  10.734  13.101  12.465  0.0905 -0.0599  0.1701
16888W        W35092   9.036  12.697   3.258  0.0028  0.1726  0.0252
16889W        W35093  17.803  16.361   9.209  0.2035  0.1802 -0.1042
16890W        W35094  17.346   7.109   3.657 -0.2032  0.0274 -0.1847
16891W        W35095  15.821  10.462   4.549  0.4718 -0.1708  0.0003
16892W        W35096   7.784  13.537   4.291  0.1105  0.3057 -0.3330
16893W        W35097  10.330   3.562  12.970  0.1625  0.0352 -0.2476
16894W        W35098   2.852  16.069  13.299  0.2270 -0.4345 -0.3915
16895W        W35099  12.791   2.477  11.039  0.1835  0.1504  0.0200
16896W        W35100   9.779   0.039  12.344 -0.0235  0.3802 -0.0984
16897W        W35101   0.158   5.715   2.989  0.0421  0.1922  0.2949
16898W        W35102  18.887   3.004  14.290  0.0050  0.0238 -0.0707
16899W        W35103   9.019   7.802   3.958 -0.3853 -0.0292 -0.0976
16900W        W35104  13.899   8.901   1.424  0.1182 -0.0139 -0.2153
16901W        W35105  18.293   2.397   0.312 -0.0629  0.0134 -0.1849
16902W        W35106   0.581  10.653   4.842  0.0437  0.1073 -0.0647
16903W        W35107   0.208  12.289   2.027 -0.2897  0.1992 -0.1299
16904W        W35108  12.736  15.383  12.744 -0.3161  0.1070 -0.0622
16905W        W35109  13.811   2.116  11.800  0.2434  0.1511 -0.1370
16906W        W35110   2.529   2.570   1.132  0.4036 -0.1898 -0.4291
16907W        W35111   8.553   3.513   4.660 -0.4501 -0.0051  0.0544
16908W        W35112   0.948   6.103  13.942  0.0210  0.1643 -0.2883
16909W        W35113  13.102   9.017   0.958  0.2286 -0.0647 -0.1597
16910W        W35114  14.814   5.900  13.929  0.2027  0.0847 -0.1558
16911W        W35115  12.584  12.847   1.016  0.2076 -0.0017  0.1147
16912W        W35116   4.693  11.312   3.229  0.0464 -0.5290 -0.1136
16913W        W35117   6.535  15.660   4.959  0.2208  0.1405 -0.0502
16914W        W35118   2.064  18.159   2.078  0.3201  0.1765 -0.0879
16915W        W35119  14.778   2.782   1.631 -0.0209 -0.1356 -0.0261
16916W        W35120  16.806   1.778   3.713  0.0497  0.2552 -0.0892
16917W        W35121   5.297  17.104  11.506 -0.1266 -0.0090 -0.0005
16918W        W35122  16.130   1.294  14.104  0.1115  0.0436  0.1453
16919W        W35123   6.445   8.790   0.657 -0.0015 -0.0532 -0.1633
16920W        W35124   5.114   1.087  10.387 -0.1020  0.2754  0.0158
16921W        W35125   6.117   1.130   5.942  0.0252  0.2590 -0.1259
16922W        W35126  10.526   0.810  11.504 -0.2151 -0.0217  0.3798
16923W        W35127   3.069   6.841  11.232  0.2321 -0.3827 -0.1383
16924W        W35128  11.217   5.502  13.319 -0.4644 -0.0565 -0.1664
16925W        W35129  12.000  11.351   0.650  0.0861 -0.4554  0.0466
16926W        W35130   5.998   8.667  14.694  0.0338 -0.0604  0.1755
16927W        W35131   9.798  14.386  10.026 -0.0045  0.1436 -0.3762
16928W        W35132   5.259  18.288   1.112  0.0527  0.1334 -0.0398
16929W        W35133  18.628   7.093   2.624 -0.0920  0.2658 -0.2168
16930W        W35134   7.656   9.198   4.156 -0.1435  0.5056  0.3540
16931W        W35135  12.724  10.737   3.451 -0.3719 -0.0131  0.0513
16932W        W35136  12.045   7.940  14.488 -0.3341  0.0566  0.0761
16933W        W35137  12.011   4.678  12.619 -0.1311 -0.1333 -0.1983
16934W        W35138   6.017   6.571  13.120  0.4227  0.1649 -0.2049
16935W        W35139  17.300   9.738  14.396  0.1033  0.4811  0.0998
16936W        W35140   3.994   7.665  11.709  0.3021 -0.1331  0.0059
16937W        W35141   3.476   6.018  11.422 -0.2979  0.3474  0.1325
16938W        W35142   7.234  14.039  11.625  0.0377  0.0883 -0.0459
16939W        W35143  14.028  13.344   3.736 -0.1890 -0.3360 -0.0096
16940W        W35144   9.712   6.276  14.004  0.1321  0.1287  0.0922
16941W        W35145   3.368  15.239  12.711 -0.0195  0.3935  0.2952
16942W        W35146   2.392   9.825  13.468 -0.2686  0.1749  0.0186
16943W        W35147  12.369  11.913   3.666  0.0374 -0.4341 -0.0823
16944W        W35148  14.538  13.852  10.755  0.3472 -0.0354 -0.1266
16945W        W35149  17.904   5.827  14.619  0.2391  0.0803 -0.0749
16946W        W35150  14.193  12.703  12.693 -0.1017  0.0976  0.2910
16947W        W35151   5.371  12.159  11.944  0.1218  0.2206 -0.1039
16948W        W35152  10.330  12.054   3.961  0.2572  0.1986 -0.1928
16949W        W35153  10.163   2.171  14.913  0.0485 -0.1385  0.4231
16950W        W35154   5.046  14.909  12.568 -0.1871 -0.1542  0.1919
16951W        W35155   8.769   1.318   3.065 -0.0814 -0.2056  0.0295
16952W        W35156   6.137   2.337   4.303  0.0472  0.1217 -0.0906
16953W        W35157   3.808   6.007   2.889 -0.1615  0.1003 -0.0612
16954W        W35158  11.646  17.834   2.089  0.0315 -0.0012 -0.1281
16955W        W35159   8.195  18.369  13.552 -0.0068  0.3699  0.2082
16956W        W35160   3.493  12.334  14.898  0.2418 -0.1589  0.2658
16957W        W35161   7.974  18.330  14.272 -0.2105  0.0086  0.1159
16958W        W35162   2.690  14.954  12.698  0.3643 -0.2219  0.0879
16959W        W35163  17.166  13.179  14.339 -0.0627  0.2816  0.2039
16960W        W35164   7.906  14.231  12.163 -0.2146  0.0517 -0.1529
16961W        W35165   6.429   3.317  12.638  0.0331  0.0614 -0.6033
16962W        W35166   9.544   6.277  12.604  0.4688  0.1423  0.1178
16963W        W35167  17.580  13.134   1.792 -0.0094  0.0285 -0.3302
16964W        W35168   5.916   5.222   1.975 -0.0092 -0.2162  0.2745
16965W        W35169   0.261   6.598  13.752 -0.2432  0.0876 -0.0174
16966W        W35170   3.110   6.574   1.700  0.0508 -0.2517  0.2155
16967W        W35171  12.573  17.351   4.279 -0.0231 -0.1394  0.0639
16968W        W35172   0.833   9.197   4.430 -0.1095  0.2765  0.3261
16969W        W35173   6.612  12.333  10.597 -0.2258  0.1815  0.0432
16970W        W35174  16.472  10.272   4.204  0.0251  0.1676 -0.2024
16971W        W35175   5.301   0.466   1.483  0.0584 -0.2394  0.0551
16972W        W35176  18.499  18.577  14.833 -0.1974  0.1203  0.0643
16973W        W35177  11.327  10.953  14.105 -0.0938 -0.0445  0.2071
16974W        W35178  16.757   9.530   2.628  0.2560  0.2133  0.0305
16975W        W35179  13.498   7.941  13.757 -0.0048 -0.0949 -0.0856
16976W        W35180   7.995   3.380  14.240 -0.0328  0.2111  0.1155
16977W        W35181   4.015  16.188  12.140  0.1666  0.2032  0.0439
16978W        W35182   8.173   2.410   3.834 -0.4077 -0.2108  0.2526
16979W        W35183   2.341  10.399  11.216 -0.2126  0.3769 -0.0442
16980W        W35184  14.013  11.026  12.004 -0.1851 -0.1108 -0.0838
16981W        W35185   8.537  16.501  14.933 -0.0852  0.1702  0.0480
16982W        W35186   2.336   1.512  12.411  0.1557 -0.1265  0.0363
16983W        W35187   5.173  11.041  11.558 -0.2891  0.2046  0.0839
16984W        W35188   4.137  13.968  12.124  0.3269 -0.0677  0.1890
16985W        W35189   3.643   4.566   0.855  0.0287  0.1521 -0.1601
16986W        W35190   4.845   0.656   1.315  0.0734 -0.3860 -0.0210
16987W        W35191  12.818  16.448   4.809 -0.0594  0.2409  0.1512
16988W        W35192   1.250   2.502  14.608 -0.2124  0.1295 -0.2592
16989W        W35193  13.880   2.414  14.475 -0.0997  0.0742  0.0119
16990W        W35194  14.860  18.320   0.210 -0.2868  0.1408 -0.0885
16991W        W35195  18.824  16.410   1.147  0.2791 -0.0107  0.2313
16992W        W35196   6.483  13.704  12.276 -0.2368 -0.2370 -0.0031
16993W        W35197  16.098  10.039   5.273 -0.0375 -0.1063  0.1750
16994W        W35198   5.148   4.264   2.920  0.0483  0.1994  0.1484
16995W        W35199  17.186   4.197  14.934  0.1332  0.1691  0.1137
16996W        W35200  14.758  18.198   2.073 -0.0275 -0.0521  0.1311
16997W        W35201   8.395   0.565   2.934 -0.3888  0.0408  0.0343
16998W        W35202   0.960   6.117   4.585  0.0802 -0.0161  0.1109
16999W        W35203  12.534   6.570  11.065 -0.2914 -0.2517  0.4391
17000W        W35204   1.743   7.586  14.051 -0.1718 -0.0437 -0.2564
17001W        W35205  16.223   8.660  13.789  0.1315 -0.1917 -0.3590
17002W        W35206   7.486   3.238   0.550 -0.0461 -0.2641  0.1899
17003W        W35207  18.076  11.519   0.214 -0.0277  0.0299 -0.4191
17004W        W35208  15.681   1.921  13.024  0.0721 -0.0953  0.5516
17005W        W35209   5.999   3.857   2.657 -0.1664 -0.1184 -0.0421
17006W        W35210   1.383  18.762  11.240 -0.0064 -0.0442  0.0890
17007W        W35211   5.139   7.231  10.884 -0.0239 -0.0664  0.2447
17008W        W35212   2.796   5.912   5.545 -0.3513 -0.1040  0.0474
17009W        W35213   0.913  13.258   2.272  0.1886  0.2560 -0.0405
17010W        W35214  14.405  15.978  13.437  0.0972 -0.2065 -0.0215
17011W        W35215  13.903  11.815   1.678 -0.1767  0.2743 -0.3380
17012W        W35216  12.698  15.238  14.077  0.0973 -0.2174  0.1753
17013W        W35217   9.687  17.427   1.068  0.0258  0.0146 -0.2221
17014W        W35218   3.203   6.307  13.996 -0.2420  0.0655 -0.2899
17015W        W35219  15.589   0.264  10.277  0.0210  0.0738 -0.3083
17016W        W35220  16.801   6.169   2.586 -0.3370 -0.0063  0.1040
17017W        W35221  18.689   1.319  12.988  0.0120  0.3096 -0.0703
17018W        W35222  15.314  18.840  14.510  0.0611 -0.0520  0.1498
17019W        W35223  11.193   0.686   2.988  0.0581 -0.1854  0.0491
17020W        W35224   7.536   5.640  12.529  0.0512 -0.3060  0.2219
17021W        W35225  17.537   5.108  14.067  0.0925 -0.0725 -0.1064
17022W        W35226   4.363   1.628   0.777 -0.1370  0.0710 -0.0424
17023W        W35227   3.575   0.909   1.305 -0.0335  0.2210  0.0997
17024W        W35228  13.207   8.085  11.507  0.0202  0.1130 -0.0926
17025W        W35229  11.803  11.174   2.789 -0.3087  0.2140 -0.1352
17026W        W35230  16.422   8.238  13.770  0.2476  0.0723 -0.0002
17027W        W35231  16.104  11.026   4.362 -0.1195  0.1680  0.0402
17028W        W35232  18.706  12.930  13.218 -0.3412  0.1507  0.0202
17029W        W35233  16.456  11.428   4.310 -0.2508  0.1571 -0.0331
17030W        W35234   0.419   1.340   3.048  0.0513  0.1140  0.0402
17031W        W35235  13.444  15.855   4.098  0.0969 -0.0388 -0.1908
17032W        W35236   6.344   5.040  10.897 -0.1143  0.2738  0.0046
17033W        W35237  13.506   7.190  11.499  0.0768  0.2025 -0.1457
17034W        W35238  10.579   9.206   5.312  0.0425 -0.1581  0.1320
17035W        W35239   7.617   4.978   1.844  0.2625  0.0830 -0.1174
17036W        W35240  14.121  15.517  14.789 -0.2317 -0.0270  0.0167
17037W        W35241  17.367   7.935  12.618  0.0342 -0.0388  0.4183
17038W        W35242  14.361   5.806   0.111  0.2096  0.0685  0.1241
17039W        W35243   2.328   2.990  13.430  0.0018 -0.1305  0.2819
17040W        W35244  14.091  17.102  13.512  0.0201  0.0974 -0.0108
17041W        W35245  18.754  13.580  12.585  0.0217  0.2284 -0.6960
17042W        W35246   0.897  13.392  11.795 -0.0570  0.0504  0.2370
17043W        W35247   3.774   8.658   1.495 -0.0375 -0.2828 -0.0006
17044W        W35248  17.050   7.781   4.862 -0.1894  0.2637  0.2348
17045W        W35249  11.563   1.578  11.561 -0.0133 -0.2151  0.3132
17046W        W35250  16.743  15.628  11.729  0.1166  0.0425  0.1647
17047W        W35251   7.535   5.700   3.906 -0.0494  0.2436  0.2724
17048W        W35252   6.603  18.607   2.070 -0.2079  0.0302 -0.0063
17049W        W35253   6.548   3.331  14.640 -0.0606 -0.0684  0.2654
17050W        W35254  10.816  11.444  10.615 -0.0028  0.1931  0.0907
17051W        W35255  11.075   8.338   4.294  0.0457  0.0750  0.0333
17052W        W35256   2.995   2.243   3.131  0.1025  0.0165 -0.0358
17053W        W35257   8.922   8.276   2.059 -0.0610  0.1946 -0.1123
17054W        W35258   6.655   9.886   5.637 -0.0550  0.3288  0.0156
17055W        W35259  15.631  15.560   3.130 -0.2416  0.1421  0.1789
17056W        W35260  12.661   5.859  10.426 -0.3342  0.2668 -0.2379
17057W        W35261   7.297  12.088  14.745 -0.3167 -0.1009  0.1067
17058W        W35262   8.038  17.660  12.882  0.2582  0.0940 -0.0730
17059W        W35263  14.822   2.736  12.925  0.0422 -0.0915  0.2152
17060W        W35264   5.635  11.187  12.249 -0.3121 -0.3162 -0.0997
17061W        W35265  12.437   7.343   4.061 -0.3007  0.1677  0.0710
17062W        W35266   6.113   5.602  13.233 -0.1250 -0.2784 -0.1878
17063W        W35267   8.376   3.149  11.043 -0.1287 -0.1390  0.0845
17064W        W35268  15.636   8.826  14.925  0.0324  0.0215  0.0065
17065W        W35269   6.627  16.913  11.218 -0.0077 -0.0564 -0.3211
17066W        W35270   5.027  12.451  12.292  0.0152 -0.4066 -0.0034
17067W        W35271   1.446   2.017  10.734  0.1946  0.1185 -0.1881
17068W        W35272  12.775   4.327  14.257  0.3037  0.1738  0.2632
17069W        W35273  10.258  16.146  11.131  0.2580 -0.0795 -0.1608
17070W        W35274  14.084   4.536  11.697  0.1668 -0.0941 -0.0216
17071W        W35275   9.670  13.090   1.049  0.0604  0.0627  0.0535
17072W        W35276  13.870   7.769  10.907 -0.1099  0.0498 -0.1757
17073W        W35277   0.403   4.032  13.900  0.0083  0.2991  0.2258
17074W        W35278  16.086  11.335   2.836 -0.2263  0.0606  0.2855
17075W        W35279   7.273  13.980   2.981 -0.2402 -0.0522 -0.1044
17076W        W35280  15.647   8.202   1.810  0.0077  0.1453 -0.0320
17077W        W35281  10.183   9.211  12.873 -0.0861  0.0314 -0.2338
17078W        W35282   7.318   0.912  14.022  0.0770  0.2498  0.0397
17079W        W35283  18.163   2.134  10.604  0.3836 -0.0435 -0.1352
17080W        W35284   9.259   3.289  11.545  0.0637 -0.0118  0.2104
17081W        W35285   8.926  12.431  12.902  0.0400  0.0081  0.1011
17082W        W35286   0.185   2.313  12.809 -0.1027 -0.0284  0.3922
17083W        W35287  15.171   9.275   0.192  0.2233 -0.3045  0.3267
17084W        W35288  10.163   9.567  14.309 -0.1174 -0.2155  0.3120
17085W        W35289  10.824  16.837   9.995  0.1257  0.3385  0.3295
17086W        W35290  15.845  10.653  11.988 -0.1256 -0.1474  0.0574
17087W        W35291  11.621  15.576   1.347 -0.1647 -0.0943 -0.0526
17088W        W35292   6.501   1.509   1.257 -0.0481 -0.0608  0.0134
17089W        W35293   2.130  16.448  14.734 -0.1582 -0.1625  0.0617
17090W        W35294   8.610   1.273   4.838 -0.2690 -0.3088 -0.0916
17091W        W35295   8.194  14.386  12.542  0.1367  0.3733 -0.0987
17092W        W35296  11.504  14.872   0.975  0.1227 -0.0210 -0.1846
17093W        W35297  11.945  18.745   3.474  0.2343  0.1819 -0.1346
17094W        W35298  11.647  16.465  12.481  0.0421 -0.2859  0.1377
17095W        W35299   6.053  17.763  13.001 -0.0962  0.0268 -0.2559
17096W        W35300   6.516  11.262   0.855 -0.4792  0.1283 -0.0931
17097W        W35301  18.618   6.995  10.960 -0.2205  0.0339 -0.2532
17098W        W35302  15.515  16.741  10.155  0.0923 -0.0359  0.5145
17099W        W35303   5.763  15.909  10.677  0.1607 -0.0070 -0.2219
17100W        W35304   1.120   3.095  13.119 -0.1290  0.2249  0.1894
17101W        W35305  16.799   1.191   3.541 -0.0660  0.0828 -0.1422
17102W        W35306   9.534   6.458   1.578 -0.0392  0.2576 -0.0384
17103W        W35307  14.322   8.885  10.303  0.0775 -0.0861  0.3037
17104W        W35308  16.202  15.042  14.098  0.0604  0.5411 -0.1853
17105W        W35309   4.643   7.934  11.911  0.1166  0.0713 -0.1484
17106W        W35310  18.466   7.454  11.074 -0.1701  0.3403 -0.2378
17107W        W35311   8.134  11.891  14.135  0.0876  0.0223 -0.1624
17108W        W35312  13.546   6.610  14.407  0.0489  0.2957 -0.1456
17109W        W35313   3.134   9.449  11.807  0.0309 -0.0681  0.1582
17110W        W35314   3.647   3.047   3.020  0.0876  0.0733 -0.1553
17111W        W35315  10.057  17.389  10.563  0.0047  0.1343 -0.1833
17112W        W35316  11.289   1.305   0.284  0.2177 -0.5049 -0.2726
17113W        W35317   0.937   7.809   0.073 -0.0185 -0.1512 -0.0335
17114W        W35318   6.652   4.075   3.340  0.1206  0.1811  0.0029
17115W        W35319  10.558   2.068  11.766  0.2656 -0.0796  0.2899
17116W        W35320   5.350  11.821  14.595 -0.2113 -0.4615 -0.2865
17117W        W35321  12.566   2.346  10.595 -0.1241  0.2679 -0.2943
17118W        W35322  10.149  16.629  10.886 -0.1202 -0.1130  0.3493
17119W        W35323  18.090  12.951  13.394 -0.0301 -0.3604  0.0896
17120W        W35324   1.496   8.559   1.477  0.0918  0.2000  0.3192
17121W        W35325   2.915   9.188   1.256 -0.2273 -0.0001 -0.2171
17122W        W35326   1.811   3.494   0.486 -0.2836  0.1281  0.0433
17123W        W35327  17.081  10.281  11.983  0.1779  0.0205 -0.2687
17124W        W35328   5.577  14.626  14.962  0.0971 -0.0734  0.3098
17125W        W35329   7.953   8.517   3.910  0.0023  0.2293  0.2269
17126W        W35330  15.751  17.259   0.484 -0.1363  0.4327 -0.0971
17127W        W35331  14.804  16.627  13.430 -0.0122 -0.0644  0.3759
17128W        W35332   2.574   9.223   2.653  0.1375 -0.5122  0.1962
17129W        W35333  12.428  17.338   2.777  0.1962 -0.3632 -0.0479
17130W        W35334   7.591  16.629  11.704 -0.1115  0.3598 -0.1581
17131W        W35335   8.574  13.554  11.566 -0.2578 -0.2382 -0.0775
17132W        W35336  15.385  18.756  10.905  0.1529 -0.2594  0.2109
17133W        W35337  10.107   8.691   4.258  0.2422 -0.0226 -0.1021
17134W        W35338  18.055  18.660  11.420 -0.0954 -0.0467  0.2427
17135W        W35339  17.391  17.620  12.835  0.0198 -0.1050  0.2527
17136W        W35340  12.595   9.942   2.576 -0.0862  0.0993  0.0684
17137W        W35341  17.114  13.863   1.195  0.1092 -0.1662  0.1809
17138W        W35342   0.042  16.618   3.482 -0.0767 -0.4962  0.0588
17139W        W35343  16.981  11.567   5.728  0.3123  0.3206  0.1263
17140W        W35344  17.632   5.763  13.919  0.0716  0.0571  0.1595
17141W        W35345   5.097  17.351  11.108  0.0333 -0.0643 -0.0295
17142W        W35346  16.600   9.088  14.434  0.0024 -0.0950  0.1510
17143W        W35347  15.900   8.015   3.216 -0.0395 -0.0886 -0.1585
17144W        W35348  10.871  11.578   1.961 -0.0518 -0.2842 -0.0361
17145W        W35349   7.047   9.315  11.331 -0.2675  0.0376  0.0575
17146W        W35350  18.644   3.084  12.812  0.2018  0.4980  0.0188
17147W        W35351   8.465   4.803  11.059  0.0384 -0.1810 -0.0626
17148W        W35352   8.755  17.551   1.613  0.4677  0.2307  0.1190
17149W        W35353   2.792  13.726   0.502 -0.0101 -0.1486 -0.0391
17150W        W35354   9.845   6.197   3.902  0.1202  0.0129 -0.0963
17151W        W35355   0.939   5.652  10.909  0.0591 -0.1895 -0.3102
17152W        W35356   3.071  11.844   2.319 -0.0904 -0.0773  0.4203
17153W        W35357   9.938  15.664  13.365 -0.0555 -0.1858  0.0589
17154W        W35358   0.009   4.896   0.823 -0.2044 -0.4195 -0.1189
17155W        W35359   5.825   5.858   2.717  0.4969 -0.0850 -0.3133
17156W        W35360   2.770   3.159  11.490  0.2236  0.2177  0.0890
17157W        W35361   0.618  16.762  12.562 -0.0824 -0.2240  0.3319
17158W        W35362   5.735   8.420   1.779 -0.1649 -0.1666  0.2247
17159W        W35363  16.742   4.120   5.374  0.0733  0.1093 -0.0952
17160W        W35364   0.554  18.927   3.047  0.2199  0.2395 -0.1947
17161W        W35365   7.244  17.240   1.643  0.1632 -0.1389  0.1327
17162W        W35366  18.914   4.152   0.205  0.1049 -0.0109  0.2044
17163W        W35367  17.800   6.937   2.864 -0.0442  0.4327  0.2372
17164W        W35368  15.653  16.709   1.241  0.0400 -0.0972 -0.2736
17165W        W35369  13.384   1.392  11.403  0.4441 -0.1490 -0.2209
17166W        W35370  11.649   7.006   3.733 -0.0913  0.1843 -0.1012
17167W        W35371  11.821   1.721   1.482  0.0256  0.0068  0.0536
17168W        W35372  12.042  14.327   1.555  0.2989 -0.1207 -0.0301
17169W        W35373  12.964   9.264  14.103  0.0062 -0.0829  0.1984
17170W        W35374   3.964  12.352  11.869  0.1443 -0.2559 -0.4314
17171W        W35375   0.583  11.609   3.734  0.1194  0.0626  0.0767
17172W        W35376   0.735   2.557  14.798  0.1252  0.3695  0.1739
17173W        W35377  17.192   5.988  13.719 -0.1739 -0.1473  0.1125
17174W        W35378  10.972   7.044  12.250  0.1186  0.1095 -0.0953
17175W        W35379   1.881  17.174  13.297 -0.0257 -0.0773  0.0381
17176W        W35380  16.584   3.589  14.563 -0.0570  0.0511  0.1653
17177W        W35381  15.303   8.336  14.605 -0.2060 -0.1279 -0.3906
17178W        W35382   5.641   1.154  13.364  0.0092 -0.1614 -0.0800
17179W        W35383   3.549  17.353   1.932 -0.3603  0.3923 -0.0474
17180W        W35384   7.121   6.460   0.606  0.1149  0.1485 -0.1137
17181W        W35385  10.778  11.538  14.952  0.2167 -0.0151 -0.1170
17182W        W35386   3.006  13.065  14.056  0.2122 -0.2059  0.1201
17183W        W35387   9.301  14.770  13.523 -0.0326 -0.0748  0.3302
17184W        W35388   9.060  14.811   3.907 -0.1038  0.1284 -0.1773
17185W        W35389  10.826   1.445  11.004  0.2589 -0.0419  0.2121
17186W        W35390  18.583  18.740   0.355  0.2609 -0.1222  0.1017
17187W        W35391  10.357   4.856  13.544 -0.0397  0.1374  0.5035
17188W        W35392  12.028   9.922   1.640 -0.2598  0.0577 -0.0863
17189W        W35393  14.119  14.420  14.561  0.3711 -0.0651 -0.0054
17190W        W35394  11.499   8.348  11.060  0.0192  0.1463  0.0531
17191W        W35395   0.343  18.613   2.203 -0.4110  0.2555 -0.0737
17192W        W35396   1.786   8.071   0.344  0.0417 -0.1040 -0.1794
17193W        W35397   8.991  13.089   0.229  0.1863  0.0771  0.3912
17194W        W35398   3.835  10.846  11.266  0.0027 -0.0413 -0.1906
17195W        W35399   2.323  15.077  10.045  0.1250  0.1519  0.2372
17196W        W35400  13.955   1.770  14.717  0.3017 -0.4403 -0.0778
17197W        W35401   2.372  12.953  11.305  0.1670  0.1679  0.1063
17198W        W35402   4.804   7.674  12.297 -0.0479 -0.2143 -0.0129
17199W        W35403   8.316   2.867   2.403  0.2900 -0.0801 -0.0429
17200W        W35404  11.741   7.343  13.443 -0.1255  0.0482  0.0569
17201W        W35405   7.512  10.151   4.244  0.2355 -0.3068 -0.0627
17202W        W35406  12.314  14.771  11.899 -0.1622  0.2310  0.3541
17203W        W35407   5.092   4.189  12.201 -0.0409 -0.0480 -0.1560
17204W        W35408  14.772   6.164  11.559 -0.1052  0.1409  0.4312
17205W        W35409  15.991   1.547  11.034 -0.2459  0.1836 -0.0243
17206W        W35410   1.330   0.671  12.932 -0.1865  0.1485  0.1405
17207W        W35411  10.848  17.643   3.622  0.3590  0.1486 -0.0966
17208W        W35412  15.239   1.492  13.234 -0.0598 -0.0711  0.1439
17209W        W35413   9.786  11.922  13.524  0.0054  0.0403 -0.0434
17210W        W35414   1.698  11.765   0.565 -0.0899 -0.1600 -0.1720
17211W        W35415   3.530  13.497   2.426 -0.1965  0.2310 -0.0797
17212W        W35416  18.536  11.190   9.713 -0.1363 -0.0896  0.2595
17213W        W35417   2.861   0.898   1.643 -0.2286  0.2304 -0.1111
17214W        W35418  10.643   5.440  12.454  0.1832 -0.4038 -0.0993
17215W        W35419   3.057   9.354  13.116  0.4239  0.0390 -0.1143
17216W        W35420  13.112   1.061   0.567 -0.3697 -0.0089  0.2062
17217W        W35421  14.231   4.490  10.483  0.1832 -0.1279 -0.1982
17218W        W35422  12.927  13.493   3.300  0.1252  0.1780  0.2182
17219W        W35423   0.943  13.443  13.400 -0.3341  0.1225  0.0581
17220W        W35424  11.097  13.233  10.537  0.1338  0.0275 -0.3641
17221W        W35425   1.608   4.110  12.640  0.2710  0.1600  0.4233
17222W        W35426   4.017   7.144   4.029 -0.0354 -0.2615 -0.0552
17223W        W35427   6.037  15.024  10.312 -0.0948 -0.1093  0.0475
17224W        W35428   7.042  18.939  11.728 -0.2173 -0.0250  0.0213
17225W        W35429   6.561   9.292   2.816 -0.0444 -0.0769 -0.1143
17226W        W35430  18.608   6.753  12.710 -0.2592  0.2577 -0.3165
17227W        W35431   4.060   1.730  12.229  0.1243  0.0500  0.0706
17228W        W35432   4.415   6.807   1.135  0.0147  0.2633  0.3466
17229W        W35433   5.736  17.402  12.821  0.3064  0.0821 -0.0226
17230W        W35434  14.778  15.520  12.949  0.0573 -0.0401 -0.2036
17231W        W35435  16.676   2.693   5.068 -0.2884  0.0979  0.2252
17232W        W35436   0.739   1.739   2.848  0.2483 -0.0724  0.2273
17233W        W35437  10.748   7.080   9.552 -0.1848 -0.1630  0.2760
17234W        W35438   3.655   9.864  10.887 -0.1513 -0.1817 -0.1734
17235W        W35439   7.097  14.169  11.113 -0.1572 -0.0500 -0.0456
17236W        W35440   4.079   9.452   2.126  0.1862  0.0669  0.1099
17237W        W35441   4.062   3.263  12.569 -0.1546 -0.1141 -0.0197
17238W        W35442  10.206  11.445  11.599 -0.0531  0.1769 -0.3637
17239W        W35443  12.856  14.014  14.094  0.0274  0.0610 -0.2779
17240W        W35444   7.619   3.036  14.064  0.1762  0.1439 -0.0908
17241W        W35445   9.726  13.960   2.199  0.0790  0.0876  0.1460
17242W        W35446   3.705   6.760  14.919  0.0753  0.3490 -0.1025
17243W        W35447   6.743  17.275  13.555  0.2236  0.1495  0.1073
17244W        W35448   0.815   6.661   0.465  0.0468 -0.0314 -0.1183
17245W        W35449  18.382   0.275   9.901 -0.1540 -0.0196  0.2129
17246W        W35450  16.592  10.000   2.737 -0.2186 -0.0211  0.0222
17247W        W35451   4.854  10.506  12.797  0.1094 -0.0592 -0.0117
17248W        W35452  16.292  14.195   3.943 -0.1417  0.0767 -0.1638
17249W        W35453   8.132   9.849   9.974  0.1592  0.0761  0.0286
17250W        W35454   4.556   3.808   2.575  0.0224  0.1303  0.3616
17251W        W35455   6.783  15.668  14.455 -0.0585 -0.1187  0.0862
17252W        W35456   1.712  17.881  14.654  0.1020 -0.0585  0.0592
17253W        W35457  15.527   7.547   0.608  0.0604  0.5141 -0.1169
17254W        W35458  17.859  11.551   3.062 -0.0523 -0.0372  0.2130
17255W        W35459  16.917   3.584   3.254 -0.1320 -0.0317 -0.1221
17256W        W35460   9.245   8.023  14.923 -0.1379 -0.1473  0.1524
17257W        W35461  15.265   9.069  12.387 -0.1260 -0.2184 -0.5044
17258W        W35462  18.114   8.026  14.115 -0.1404 -0.0329  0.2532
17259W        W35463  12.686   1.443   0.584  0.2216  0.0127  0.0620
17260W        W35464  14.427   5.122  14.320  0.1750  0.1663  0.4307
17261W        W35465  11.261  14.411   2.310 -0.0046 -0.1600 -0.1215
17262W        W35466   4.326   8.723   0.394  0.0779 -0.0153 -0.1648
17263W        W35467   5.714  14.235   0.180  0.1590  0.1374  0.1535
17264W        W35468  11.431   7.305  14.767 -0.3439 -0.1309  0.3542
17265W        W35469  11.893   8.250   1.529 -0.2445  0.1214 -0.1610
17266W        W35470   3.453   0.404  10.130 -0.4166 -0.0205  0.1356
17267W        W35471  18.496  11.142   3.608 -0.1686 -0.0232 -0.2075
17268W        W35472   7.034   6.214   2.627 -0.0496  0.0281  0.1741
17269W        W35473  14.854  18.768   0.926 -0.0829  0.0570  0.1736
17270W        W35474   5.807   0.731  13.198  0.2046 -0.0796 -0.1440
17271W        W35475   8.595   2.242   1.943 -0.0871 -0.0240 -0.0589
17272W        W35476  12.779   3.908   3.109 -0.0507 -0.1971  0.1158
17273W        W35477   0.538   6.046  11.915 -0.0375 -0.3154  0.2009
17274W        W35478   5.578  13.374  12.002 -0.0404  0.0013 -0.1423
17275W        W35479   2.961   7.444  13.000  0.3984  0.0451  0.1337
17276W        W35480  11.623  12.866  13.380  0.0616 -0.2415 -0.0133
17277W        W35481   5.777  10.168  12.532  0.0952 -0.0703 -0.1009
17278W        W35482   3.016   7.037   2.305 -0.1120 -0.0441 -0.0403
17279W        W35483   5.411  16.939  12.220  0.1501  0.1146 -0.1435
17280W        W35484  16.918  14.167   2.758 -0.3152  0.2071 -0.0323
17281W        W35485  12.476   1.026   2.036 -0.0505  0.1141 -0.0439
17282W        W35486  18.792   2.425   2.773  0.1884  0.4001 -0.2007
17283W        W35487   3.617  15.048  13.063 -0.1919 -0.0996  0.1041
17284W        W35488  13.344  17.677  13.110  0.1113 -0.0727  0.1239
17285W        W35489   4.161   2.502   0.371  0.0367 -0.1385 -0.1601
17286W        W35490  12.545   6.681  11.544  0.1178 -0.0476 -0.0568
17287W        W35491  12.959   6.337   0.178  0.0330 -0.0004  0.3741
17288W        W35492  15.372   7.670  14.731  0.2820 -0.0059 -0.3246
17289W        W35493   4.923  18.002   0.848  0.0358 -0.1573 -0.0179
17290W        W35494  11.381  16.627  12.874  0.0587  0.0108  0.0021
17291W        W35495   3.363   5.075  13.419 -0.0831  0.1304  0.0048
17292W        W35496   6.468   4.224   5.293 -0.1721 -0.3041 -0.3535
17293W        W35497  11.330  14.799  14.161 -0.1890  0.3626  0.4220
17294W        W35498  16.768   1.670   2.088  0.0137  0.0689 -0.1716
17295W        W35499   1.183  17.525   4.243 -0.0215 -0.1954 -0.3746
17296W        W35500   0.661   9.540   2.306 -0.1654 -0.0935 -0.1876
17297W        W35501  16.831   1.838  12.541  0.1692 -0.2611 -0.1549
17298W        W35502   2.550  16.949   3.266  0.0117  0.1686  0.0514
17299W        W35503   4.635   8.040   3.201  0.3927  0.2814  0.0059
17300W        W35504  15.107   2.229  12.161  0.0026  0.1592 -0.1674
17301W        W35505  16.102  15.102   1.254  0.0575  0.0530 -0.3027
17302W        W35506  11.696   1.845  12.955 -0.0180  0.1727 -0.0837
17303W        W35507  12.806  10.701  10.992  0.0948  0.0297  0.0879
17304W        W35508  17.930   0.469  12.505 -0.0366  0.1261  0.0684
17305W        W35509   0.420  16.357   0.186  0.0283  0.0434 -0.0274
17306W        W35510   8.799   3.359  14.591  0.1108  0.0252 -0.3093
17307W        W35511   4.771  13.527  11.424  0.2137  0.2228  0.2830
17308W        W35512  11.065  16.454   1.072 -0.0782  0.0107  0.1572
17309W        W35513   3.434   8.573  11.305  0.0279 -0.0220  0.3305
17310W        W35514   4.078   3.757   2.206 -0.0565  0.0516 -0.1420
17311W        W35515  18.396  14.372   4.088  0.2886 -0.1449  0.0133
17312W        W35516  12.952  14.659   1.560 -0.1122  0.1059  0.0499
17313W        W35517  16.655   7.282  10.718  0.1743  0.0200 -0.1930
17314W        W35518   0.421   6.944  11.268 -0.0862 -0.1021  0.0242
17315W        W35519  17.426  13.887  14.317 -0.1519 -0.4929 -0.2495
17316W        W35520   2.196  11.822   0.372  0.3461 -0.0323 -0.0291
17317W        W35521   8.377  15.235   2.837  0.1675  0.2291  0.3438
17318W        W35522  15.445   4.691   3.669 -0.0106 -0.1132 -0.0082
17319W        W35523   9.018  10.420  14.266  0.0481  0.2295  0.0732
17320W        W35524  10.850  17.901  11.556  0.1432  0.0029 -0.1448
17321W        W35525   2.402  11.148  13.951  0.1691 -0.0387  0.1074
17322W        W35526   4.388  17.799   0.708 -0.0599 -0.0438  0.1527
17323W        W35527  11.041   3.636  14.849  0.0182  0.1217 -0.2256
17324W        W35528   1.532  18.896   2.970  0.1197 -0.2679 -0.0394
17325W        W35529   8.723   6.779   2.044 -0.0361 -0.2908 -0.0440
17326W        W35530   8.469  18.917  15.012 -0.1910  0.0071  0.0900
17327W        W35531   3.156  17.133  14.799  0.5062 -0.2970 -0.0794
17328W        W35532   7.514  11.921   3.841  0.2408  0.2017  0.0632
17329W        W35533   3.265  18.226  14.442 -0.0313  0.1234 -0.1132
17330W        W35534  17.844  18.932  12.588  0.0393  0.3314  0.1560
17331W        W35535  13.035  12.665   0.670 -0.1714 -0.1490 -0.3758
17332W        W35536  18.652  14.736  13.773  0.0432  0.0953 -0.1236
17333W        W35537  15.141  12.515  12.127  0.0298  0.1722 -0.0315
17334W        W35538   1.186  13.508  11.324 -0.0999 -0.0053  0.1250
17335W        W35539  10.919  14.264  12.549 -0.1433 -0.0670  0.0927
17336W        W35540  13.220  15.901  14.949  0.0213 -0.0070 -0.3067
17337W        W35541   8.560  16.404   3.898 -0.3171  0.0974 -0.2873
17338W        W35542  10.876   9.581   0.751 -0.2067 -0.0373  0.1195
17339W        W35543   5.573   8.969   3.464  0.1453 -0.0519 -0.1398
17340W        W35544   4.036   0.997  14.413  0.0411  0.0529  0.1146
17341W        W35545   1.738   8.634   5.354 -0.0520  0.1380  0.0602
17342W        W35546  11.676  12.827   3.556 -0.0878 -0.2858  0.0738
17343W        W35547   8.798   3.273  10.779  0.1449 -0.0845  0.0179
17344W        W35548   8.532  13.381  12.276 -0.3297  0.2404 -0.0156
17345W        W35549  18.609   6.210   4.060 -0.2206  0.2391 -0.0515
17346W        W35550  16.900   7.841  12.370 -0.1458 -0.1366 -0.1696
17347W        W35551  17.517  12.011  13.200 -0.0245 -0.0031  0.1380
17348W        W35552   9.055   8.490  10.818 -0.1123  0.0816 -0.0129
17349W        W35553  15.090  14.324  14.867 -0.0559 -0.0466  0.1631
17350W        W35554   5.850   4.634  12.200 -0.0195  0.1428 -0.2236
17351W        W35555  13.877   7.200  12.962 -0.0712 -0.2658 -0.1641
17352W        W35556   9.889   0.408   2.814 -0.0326 -0.3780 -0.0525
17353W        W35557  13.463  13.441   2.634 -0.0824  0.0232  0.2331
17354W        W35558   2.824   1.675  11.634  0.1567  0.3638 -0.0252
17355W        W35559  14.414  14.640   0.891  0.0356  0.0851 -0.0725
17356W        W35560  18.582   5.198  11.128  0.4117  0.1687  0.3753
17357W        W35561  16.614  17.667  12.172 -0.1467  0.1727  0.3492
17358W        W35562   0.948   2.084  13.938 -0.1568 -0.0571 -0.1570
17359W        W35563   6.271   1.431   3.720 -0.1808 -0.2683 -0.0775
17360W        W35564   3.753   1.788   3.303 -0.1066  0.1992 -0.0425
17361W        W35565   7.051   8.511  12.605 -0.0650  0.2768  0.0037
17362W        W35566   6.062   6.412  10.548 -0.3006 -0.2860  0.2326
17363W        W35567   4.779   8.303   4.468 -0.0133  0.0884  0.0818
17364W        W35568   1.640   6.885  14.852 -0.1425 -0.2685 -0.1680
17365W        W35569  15.755  17.952  11.098  0.2387 -0.1012  0.1312
17366W        W35570  11.834  17.952  13.498  0.2322  0.1929 -0.6281
17367W        W35571   3.599   4.206   3.186 -0.1315  0.4874 -0.2346
17368W        W35572  14.106  15.693  14.289 -0.1668 -0.0381 -0.2595
17369W        W35573  14.239   3.904   3.910 -0.0369  0.2159 -0.1642
17370W        W35574  16.785  17.698   2.444  0.0991 -0.2652 -0.0074
17371W        W35575  16.242   0.584  13.712 -0.1747 -0.1900  0.0799
17372W        W35576   3.151   9.652  10.796  0.3054 -0.2673  0.1250
17373W        W35577   5.765  17.412   3.234  0.0942  0.1675 -0.1249
17374W        W35578  11.842   7.036  10.168  0.1975  0.0022  0.0423
17375W        W35579  14.147   7.465   4.182 -0.0713 -0.3057  0.0031
17376W        W35580   8.869  18.244  13.857  0.0148 -0.1151  0.1133
17377W        W35581   9.610  17.308  11.133 -0.2197  0.2691  0.0209
17378W        W35582   2.230  18.795  14.852  0.1812  0.0359  0.0312
17379W        W35583   7.912   3.072  10.981 -0.0957  0.1819  0.3203
17380W        W35584   5.112  18.662  13.826 -0.0308 -0.1612 -0.1855
17381W        W35585   8.371  18.185   0.652 -0.0471 -0.0317 -0.2239
17382W        W35586  10.054   9.789  10.425 -0.0403 -0.0136 -0.0773
17383W        W35587  15.781  17.599  12.985  0.2396 -0.0934 -0.2134
17384W        W35588   8.190   1.560   4.017 -0.0044 -0.1480  0.1679
17385W        W35589   8.344   4.171   2.263 -0.1085 -0.1169 -0.1793
17386W        W35590   7.418   3.114   1.329  0.1404  0.4743 -0.0247
17387W        W35591  10.002   6.599  12.706  0.0067 -0.1035 -0.0923
17388W        W35592   7.032   0.864  11.317  0.3075  0.1236  0.1239
17389W        W35593  10.327   8.287   0.085  0.0817  0.0032 -0.2015
17390W        W35594   5.059  17.504  14.100  0.1508  0.0200  0.1119
17391W        W35595   3.162   8.147   0.429 -0.0917 -0.0087  0.0940
17392W        W35596  12.709   7.768  14.818 -0.0038 -0.0616  0.0619
17393W        W35597  13.294   8.222  10.969  0.3051 -0.0973  0.0203
17394W        W35598  12.095   0.508  13.271  0.0932  0.3343  0.0310
17395W        W35599   1.764  13.363   1.788  0.3200  0.0526  0.1470
17396W        W35600   7.306  16.658  14.709  0.1288 -0.1208 -0.0603
17397W        W35601  14.495   8.630   4.365  0.0397  0.0265 -0.0729
17398W        W35602  17.812   1.300  11.119  0.3122  0.1468 -0.0564
17399W        W35603  13.930  18.391   2.309  0.0558  0.0765 -0.1071
17400W        W35604  15.423   3.969   1.034  0.1134  0.6340  0.2181
17401W        W35605  16.064  16.195   3.517  0.1509 -0.0095 -0.1199
17402W        W35606   3.310   0.899   2.627  0.0769  0.1322 -0.0065
17403W        W35607  14.596   9.304  12.421 -0.0348 -0.0397 -0.1196
17404W        W35608  11.918  15.186   1.341  0.1639  0.0241  0.3599
17405W        W35609   8.357   0.717  11.518 -0.1662 -0.1707 -0.2351
17406W        W35610  10.468   0.820  10.553 -0.1689 -0.1922 -0.0220
17407W        W35611   2.794   7.749  13.382 -0.0202 -0.0893 -0.1729
17408W        W35612   0.239   1.031   9.706 -0.0027 -0.1273 -0.0592
17409W        W35613   9.865  14.699   2.768  0.1173  0.2071  0.0430
17410W        W35614   9.005  18.922   2.511  0.0740  0.0978 -0.0213
17411W        W35615  15.515  16.641  11.892  0.0213  0.0417 -0.1341
17412W        W35616  16.838   2.084  14.179  0.0792 -0.0673  0.2116
17413W        W35617   2.980   9.685   1.079 -0.3020  0.2061 -0.0389
17414W        W35618   8.012   7.975  14.513  0.0753 -0.0361  0.0242
17415W        W35619  12.061   9.944  14.941 -0.1143 -0.2328  0.2743
17416W        W35620   4.238   0.617   4.392  0.0778 -0.2686  0.0905
17417W        W35621   6.028  14.926   1.356 -0.0509 -0.2383  0.1840
17418W        W35622   7.506   4.737   3.796  0.2963  0.0725 -0.0887
17419W        W35623  16.187  12.657   2.639 -0.1056  0.0214  0.0763
17420W        W35624  13.310   6.120   2.442  0.0059 -0.0431  0.2225
17421W        W35625  17.559   0.021   2.344  0.0376  0.1933 -0.2407
17422W        W35626   0.970  11.329   2.468  0.0187 -0.1614 -0.2037
17423W        W35627   2.614   5.926  12.728  0.0790 -0.1796  0.0261
17424W        W35628   0.032  14.107  12.127  0.0558 -0.0132 -0.1659
17425W        W35629  11.692   9.614   0.823 -0.1558  0.2932 -0.1243
17426W        W35630   1.275  10.832   1.603  0.0202 -0.1022 -0.5198
17427W        W35631  15.081   2.861  10.928  0.0435 -0.0035 -0.5248
17428W        W35632  15.837   0.198  10.956  0.1057  0.3867 -0.3782
17429W        W35633   8.712   6.392  14.003 -0.1547 -0.0242  0.0583
17430W        W35634   5.993   0.775  12.078 -0.2015 -0.2839  0.2074
17431W        W35635  14.136   0.281   0.787  0.1540 -0.2447 -0.0456
17432W        W35636  18.250  12.846   3.277 -0.3194  0.0770  0.0974
17433W        W35637   1.010   1.612   9.827  0.1141 -0.1278  0.0084
17434W        W35638   0.581  14.179  15.011 -0.1947 -0.1709 -0.3817
17435W        W35639   9.452  18.283   0.711  0.0826 -0.1221 -0.4397
17436W        W35640  18.261   0.366  11.698  0.0598  0.4415 -0.1692
17437W        W35641  12.200  16.597  11.312 -0.2878 -0.0739 -0.0533
17438W        W35642   4.951  16.304   9.741 -0.0045  0.1864  0.0941
17439W        W35643   5.315   4.360   1.008  0.1777 -0.2127  0.1399
17440W        W35644   9.749  13.572  11.805  0.0135  0.2522 -0.0159
17441W        W35645   2.526   3.671  14.442  0.1452 -0.5387  0.2102
17442W        W35646  16.060   5.052   4.587  0.5552 -0.0684 -0.3913
17443W        W35647   0.004   6.654  11.248  0.1196 -0.1218 -0.1909
17444W        W35648   4.627   1.262  12.547 -0.0759 -0.0005 -0.2598
17445W        W35649  18.724  13.855  11.837  0.4007 -0.0310  0.0077
17446W        W35650   2.733  15.139  14.850  0.1843 -0.2236 -0.2664
17447W        W35651   0.446   3.985   1.615 -0.3078 -0.0935  0.0866
17448W        W35652  15.225  11.893  12.451 -0.3640 -0.0833  0.0855
17449W        W35653  10.828  17.840  12.658  0.1742 -0.1183 -0.0658
17450W        W35654   4.714  14.383  14.868  0.1780  0.1060  0.0322
17451W        W35655   2.862   8.478  12.026 -0.2178 -0.0315 -0.1535
17452W        W35656   4.228   0.644   3.888 -0.4214  0.3515 -0.1644
17453W        W35657   7.032   9.926   2.164  0.1752 -0.1041  0.2651
17454W        W35658  14.051   4.141  13.609  0.0575 -0.1261 -0.1562
17455W        W35659   0.061  18.080   4.473  0.0829  0.1145  0.1670
17456W        W35660   5.849  16.733   2.086  0.2710 -0.3179 -0.1822
17457W        W35661   3.820  13.959   4.272  0.2913 -0.0617  0.0178
17458W        W35662   0.363  14.955   0.573  0.1037 -0.1423 -0.0524
17459W        W35663  13.335   5.196  10.746 -0.1795  0.4011  0.5936
17460W        W35664   2.822   5.796   3.136 -0.1408 -0.0279 -0.1009
17461W        W35665   4.699   8.605  14.275 -0.2182  0.0646 -0.0795
17462W        W35666   9.286   7.270  10.892 -0.0683 -0.0384  0.3683
17463W        W35667  12.039  12.364  11.141 -0.0589 -0.0053  0.1013
17464W        W35668   4.022  14.014  13.068  0.2892  0.2551  0.2664
17465W        W35669  12.317  12.585  10.763 -0.2457  0.1610 -0.2481
17466W        W35670  13.234   0.774  11.047 -0.1747 -0.0783  0.0671
17467W        W35671  17.206   3.459  14.562 -0.3457  0.1031 -0.1382
17468W        W35672   7.766  16.346   2.501 -0.2897  0.1610  0.0447
17469W        W35673  16.353   0.238  11.025  0.3066 -0.3179 -0.0125
17470W        W35674  15.156  18.751   0.404 -0.0583 -0.2979 -0.0800
17471W        W35675  15.510   4.248   3.804  0.1194  0.1578  0.0700
17472W        W35676  10.760   5.242   2.681 -0.1693  0.3575 -0.1390
17473W        W35677  14.058  12.847   3.579  0.1838 -0.0247  0.1905
17474W        W35678  14.525   6.312  14.256 -0.2033 -0.0930  0.1583
17475W        W35679  15.435  16.482   0.087  0.0948 -0.1717  0.0081
17476W        W35680   7.563  12.054  12.655  0.2565 -0.2184 -0.0195
17477W        W35681  13.453   7.863  12.785 -0.1291 -0.0533  0.0457
17478W        W35682   8.787  17.899   9.499  0.0872  0.2271 -0.3135
17479W        W35683   1.939   6.639  11.537  0.0354  0.0824  0.1472
17480W        W35684  11.895  12.370  14.981 -0.0428  0.2430 -0.1695
17481W        W35685   7.117   7.636  12.240 -0.3339  0.0513 -0.4853
17482W        W35686   4.665  18.263   3.771 -0.0445 -0.0356 -0.0621
17483W        W35687  14.092   3.737  11.131 -0.1437 -0.2976  0.0997
17484W        W35688  17.986  15.489  10.613 -0.0071 -0.2097  0.3891
17485W        W35689   3.714   3.814   1.308  0.1171  0.2257  0.0689
17486W        W35690  18.572  13.469  13.017  0.2435  0.0110 -0.0265
17487W        W35691   3.141  12.294  12.481 -0.3528 -0.1812  0.1465
17488W        W35692  11.385   9.207   2.899 -0.1054 -0.3521 -0.0307
17489W        W35693   8.607   0.110   2.063 -0.0930  0.0342  0.2378
17490W        W35694  14.985  16.907   3.652 -0.0245 -0.1587  0.2934
17491W        W35695  18.093   5.288  13.274 -0.0083 -0.0517 -0.0038
17492W        W35696  16.068  16.837  13.346  0.1153  0.0754  0.1377
17493W        W35697   4.174  10.549   0.608 -0.1533 -0.0348  0.1712
17494W        W35698  12.209  15.367  12.513 -0.1824 -0.0685 -0.0374
17495W        W35699  11.574   0.820  14.069 -0.1896 -0.0118  0.0428
17496W        W35700   9.073  12.351  14.727  0.3213 -0.2393 -0.0667
17497W        W35701   9.001   4.382   9.931  0.3724 -0.1280 -0.0791
17498W        W35702   7.842   6.276  13.522 -0.2480  0.0517 -0.0802
17499W        W35703  18.885   8.542  11.442 -0.0188  0.1876  0.1187
17500W        W35704  16.582   1.421   4.026 -0.0101 -0.0186  0.4188
17501W        W35705   4.539  12.654   0.778  0.2129 -0.4294  0.0915
17502W        W35706   4.783   9.978   4.794 -0.0082  0.1070 -0.2387
17503W        W35707  17.421  11.010  12.497  0.0626  0.0804 -0.1745
17504W        W35708  17.558  15.060   0.413  0.1323  0.2369 -0.1764
17505W        W35709  18.572  16.782  10.726  0.0762  0.1060 -0.1521
17506W        W35710   3.070   4.756  10.642  0.1115  0.0684  0.0931
17507W        W35711   9.590   7.515  14.976 -0.0743  0.0484 -0.0137
17508W        W35712  17.273  13.114   3.412  0.2551  0.0539  0.0595
17509W        W35713   2.391  10.082   1.772  0.0178  0.1933 -0.0017
17510W        W35714   2.197  11.360  12.473  0.0213 -0.0305  0.1644
17511W        W35715  14.176   3.545   0.643 -0.0676  0.2515 -0.3635
17512W        W35716  16.288  10.866   2.859 -0.0724 -0.0354  0.1665
17513W        W35717   7.423  16.262   4.126 -0.0748 -0.2798 -0.3638
17514W        W35718   9.673  10.572   5.478  0.1940  0.0871 -0.2969
17515W        W35719   6.104   9.580   0.613  0.2123 -0.0251  0.0924
17516W        W35720  11.806   5.453  13.850 -0.0141  0.0335 -0.1194
17517W        W35721  15.781  18.523   1.200 -0.0751  0.0708  0.0311
17518W        W35722   2.755   1.686  12.096  0.0093  0.2205  0.1400
17519W        W35723  15.689   5.081  13.729 -0.3285 -0.1236 -0.2768
17520W        W35724  16.105  11.839   3.145 -0.0893 -0.2318 -0.0515
17521W        W35725   9.020  13.258  12.126  0.0823 -0.2502 -0.0417
17522W        W35726  18.183  16.600   4.073  0.2569 -0.1574  0.0438
17523W        W35727  13.794   5.534   0.833 -0.1379 -0.3838 -0.1836
17524W        W35728  11.657   7.452  12.349 -0.1613 -0.3201  0.3903
17525W        W35729  15.833  17.420   3.421  0.2790 -0.2100  0.2507
17526W        W35730   8.918   0.810  12.380 -0.2916 -0.0954  0.0197
17527W        W35731   4.224  17.672  11.959 -0.2460  0.0856 -0.0622
17528W        W35732   9.653   5.901  10.814  0.0866  0.2929  0.2308
17529W        W35733  11.655  18.347   2.149  0.1244 -0.0488  0.1521
17530W        W35734  13.157   4.063  13.878  0.1142 -0.1289 -0.1314
17531W        W35735  18.752  16.162   3.449  0.0401  0.0834 -0.0444
17532W        W35736   6.650  13.925   2.374 -0.0353  0.1238  0.0171
17533W        W35737   8.602  11.054   2.657  0.0685 -0.0142 -0.0155
17534W        W35738  14.618  13.281  10.962 -0.0003  0.0143  0.0468
17535W        W35739  14.061   3.199   2.689  0.1614 -0.1488  0.0244
17536W        W35740   5.334   6.438  11.534 -0.1707 -0.1257  0.0129
17537W        W35741   6.458   9.637   1.173  0.0929 -0.1396  0.0661
17538W        W35742   3.263   3.298  14.799  0.2007  0.1438  0.0311
17539W        W35743  18.919   1.986   3.140  0.1310  0.2734 -0.3183
17540W        W35744   6.903  15.979   4.099  0.1329 -0.0194  0.3306
17541W        W35745   3.917  18.921   0.247  0.0966  0.0547  0.1533
17542W        W35746  14.567   5.162  12.146 -0.0160 -0.0632  0.0793
17543W        W35747  16.237  13.301  12.278  0.0285  0.2501 -0.1880
17544W        W35748   5.833  18.676  12.081 -0.2115  0.1643  0.1647
17545W        W35749  11.300  17.449  11.947 -0.2118  0.3792  0.2037
17546W        W35750   3.237  10.429   3.182 -0.0352 -0.0380 -0.2590
17547W        W35751   2.205  13.250  14.908 -0.1243  0.1628 -0.0409
17548W        W35752  14.523   6.250   4.265 -0.3584  0.0025  0.2157
17549W        W35753   5.632   9.289   3.075 -0.3107  0.2402  0.1222
17550W        W35754   8.483  16.454  11.338  0.0487 -0.1091  0.1845
17551W        W35755  12.006  16.422   0.488 -0.0984 -0.2151  0.2321
17552W        W35756   2.278  15.627   0.808  0.0063 -0.0227  0.2167
17553W        W35757   6.833  10.270  11.971 -0.0402 -0.1840 -0.0102
17554W        W35758  12.652  14.255  13.630  0.1948  0.2202  0.2210
17555W        W35759  18.387   3.550  11.092 -0.1289 -0.1062 -0.1573
17556W        W35760   2.426   4.493   3.395 -0.3475 -0.1728  0.1377
17557W        W35761  16.076   7.471   2.256 -0.1722 -0.1453 -0.0128
17558W        W35762  14.970   6.546   3.843 -0.3241 -0.1140  0.0530
17559W        W35763   7.563  18.834   2.062  0.0035 -0.2434 -0.1052
17560W        W35764   8.500  10.999   3.160 -0.2104 -0.0078  0.0804
17561W        W35765   3.961   9.247   3.214  0.0939 -0.1498  0.0272
17562W        W35766   1.033   4.308  14.598  0.0405  0.1059 -0.0087
17563W        W35767   0.494  18.495  12.934 -0.0328  0.0470 -0.1821
17564W        W35768   2.099   7.190   0.358 -0.1861  0.1242  0.1145
17565W        W35769   7.975  17.003  11.010  0.1049  0.0779 -0.0797
17566W        W35770  16.813   2.361   9.348 -0.2646  0.3160 -0.0914
17567W        W35771  11.894  12.189  12.243  0.2114 -0.2698 -0.1033
17568W        W35772   4.712   2.718  12.376 -0.0647 -0.0641 -0.1372
17569W        W35773  13.148  13.593  13.100 -0.4044 -0.3658  0.3740
17570W        W35774   2.200  13.274   1.076  0.1404 -0.1936  0.0786
17571W        W35775  17.717   0.977   4.629 -0.0728  0.1853 -0.2856
17572W        W35776  14.447  10.611  12.068  0.3348 -0.0245  0.0496
17573W        W35777   1.488   7.834  12.774  0.5972 -0.0968 -0.0307
17574W        W35778  18.827   2.105   0.512  0.1279  0.1316  0.0114
17575W        W35779   9.038   1.201   0.684  0.0141  0.1878 -0.0433
17576W        W35780   8.654  12.522   3.720  0.6167  0.5752 -0.2675
17577W        W35781   7.417  17.753  13.018  0.0335 -0.2303 -0.0154
17578W        W35782  10.818   3.734   4.247  0.2018 -0.0038 -0.0636
17579W        W35783  15.160   5.957  12.994  0.0448 -0.1583 -0.1501
17580W        W35784  13.732  14.328  10.931  0.1424 -0.1155 -0.0316
17581W        W35785   3.624  17.424  12.807 -0.0198 -0.2994 -0.0261
17582W        W35786  11.589   2.212   0.729 -0.0339  0.0443 -0.1910
17583W        W35787  15.091   5.782   1.585 -0.0046  0.2025  0.1270
17584W        W35788   1.143  18.253   2.786  0.0307 -0.1891 -0.1913
17585W        W35789  17.293   8.171  13.738 -0.1866  0.0391  0.0234
17586W        W35790   4.030  13.976   3.654 -0.1167 -0.0039 -0.1603
17587W        W35791   8.843   3.492  13.752  0.0076  0.0468  0.0486
17588W        W35792  11.543   4.170  10.904 -0.1654 -0.0953 -0.1561
17589W        W35793   0.630  15.641  14.306 -0.0208 -0.3200 -0.1760
17590W        W35794  10.074   4.382  12.885  0.1035  0.2338 -0.2517
17591W        W35795   7.886   3.714  14.564  0.2669 -0.1781  0.2608
17592W        W35796  15.348  15.862   2.808 -0.0884 -0.0595  0.1540
17593W        W35797   0.881   8.051  12.212 -0.0720  0.0957 -0.3350
17594W        W35798   6.810   0.339   0.908  0.0881  0.1617  0.1706
17595W        W35799   4.517   3.577   1.771  0.1886 -0.0510  0.1284
17596W        W35800  15.586   6.650  11.833  0.2262  0.1837  0.1445
17597W        W35801  17.190   0.215   3.121 -0.0198 -0.2028 -0.0069
17598W        W35802   0.168   1.892  12.414  0.3020  0.0079  0.0709
17599W        W35803  11.483  10.332   2.404 -0.1033  0.0697  0.1184
17600W        W35804  11.493   9.996  11.037 -0.1454  0.1118  0.0774
17601W        W35805   5.758  18.629   1.957  0.1198 -0.2042  0.1206
17602W        W35806   1.794   7.256   2.935 -0.3569 -0.2477 -0.1534
17603W        W35807   1.742   1.083   5.642  0.0680  0.0636 -0.2094
17604W        W35808   0.454   9.126  13.970  0.0447  0.0004  0.1396
17605W        W35809  11.941  10.205   9.266  0.1071 -0.0743 -0.0821
17606W        W35810  18.924  14.692  14.428 -0.3528  0.0012  0.1846
17607W        W35811  13.539  17.861   3.771 -0.3030 -0.3466 -0.1048
17608W        W35812  17.626   0.335  10.718 -0.0034  0.0718  0.2070
17609W        W35813  16.409   5.536  14.772  0.1409 -0.0076  0.2929
17610W        W35814   5.276   4.303  14.366 -0.0819 -0.4750  0.1372
17611W        W35815  14.050  14.587  11.179  0.1931 -0.2508 -0.0207
17612W        W35816   7.860   5.003   2.418  0.2745  0.3668  0.0183
17613W        W35817   5.378  14.520  13.575 -0.4369  0.1875 -0.0669
17614W        W35818  14.735   8.088   3.024 -0.0665  0.0134  0.0022
17615W        W35819  12.382  11.726   4.723 -0.1512  0.1509 -0.0239
17616W        W35820  13.609   0.987   0.314 -0.2130  0.5224 -0.1143
17617W        W35821  10.727   1.579   3.784  0.2851 -0.1618  0.0824
17618W        W35822  17.580  18.342   3.024  0.1806 -0.1069  0.1687
17619W        W35823   3.037  17.848  11.563 -0.1255 -0.1419  0.2825
17620W        W35824   0.182  12.947  11.008 -0.1647  0.3874  0.0620
17621W        W35825  18.289  14.743   3.580  0.2811  0.2070  0.2469
17622W        W35826   1.079   4.696  13.356 -0.1522 -0.0056  0.3287
17623W        W35827   8.283  14.545  13.567  0.0296 -0.0835 -0.0472
17624W        W35828   0.082  10.920  11.374  0.2434  0.3058 -0.1084
17625W        W35829   6.351   3.877   2.197  0.0129 -0.2912  0.2471
17626W        W35830  14.365  14.717   4.274 -0.2936 -0.1221 -0.1098
17627W        W35831   3.765   4.414   2.755  0.0162 -0.1009 -0.0240
17628W        W35832  10.151   9.048   9.567  0.0747  0.3470  0.2100
17629W        W35833  14.004   1.922  13.462  0.1617  0.0838 -0.2697
17630W        W35834  14.503   7.021  11.164  0.3134  0.0403 -0.0646
17631W        W35835   3.818   6.314  11.611 -0.0515 -0.2680  0.0015
17632W        W35836  17.491   4.082   0.383 -0.0846  0.3479  0.3088
17633W        W35837   2.539   0.073   2.230 -0.0445 -0.0450  0.3101
17634W        W35838   0.543  10.486   2.924 -0.0307 -0.0060  0.3825
17635W        W35839  16.857   4.644   1.103 -0.2322  0.2585  0.1111
17636W        W35840  18.621   8.917  14.184  0.0913 -0.3425 -0.0612
17637W        W35841   2.782  14.417  14.035 -0.1480 -0.1404 -0.3460
17638W        W35842  17.554  14.748  13.944 -0.0170  0.1126  0.3383
17639W        W35843   5.357   0.825  12.950  0.3029 -0.1876 -0.3047
17640W        W35844  10.360  10.007  11.607 -0.1529  0.0429  0.0419
17641W        W35845  15.086   7.577  13.974 -0.1614  0.2484 -0.0949
17642W        W35846  11.028  11.539  13.719  0.0097 -0.0116  0.1561
17643W        W35847  12.819  15.825  11.246  0.0341 -0.0415  0.2598
17644W        W35848   9.532  11.646  14.785 -0.0076  0.1060 -0.0019
17645W        W35849   2.467   2.651   2.002  0.0842  0.0661  0.1780
17646W        W35850  15.305  10.284   9.431 -0.1107 -0.3382  0.0473
17647W        W35851  16.441   4.724   1.387  0.2100  0.2313  0.0095
17648W        W35852  10.909   8.382   0.888  0.3790 -0.1674 -0.2342
17649W        W35853   2.590  13.786   3.340 -0.3083  0.4705 -0.0583
17650W        W35854   1.465   9.027  12.635 -0.0414  0.2703 -0.3341
17651W        W35855  18.679  18.414  13.588  0.0093 -0.0500  0.0295
17652W        W35856  14.758   7.810  12.055 -0.1464 -0.0384  0.0906
17653W        W35857   2.861   9.081  12.763  0.1050 -0.1893  0.0353
17654W        W35858  12.773  16.544  11.279  0.1282 -0.0777  0.2237
17655W        W35859  17.398  12.961   1.015 -0.4156 -0.1255  0.1215
17656W        W35860   7.543   9.673  12.596 -0.2821 -0.1017 -0.3399
17657W        W35861  13.190  15.018  13.158 -0.0590  0.1908 -0.0227
17658W        W35862  14.767  15.962   3.481 -0.1381 -0.0421 -0.0474
17659W        W35863   9.179  12.652   2.768 -0.2279 -0.0552  0.0349
17660W        W35864  14.502   8.498  10.019 -0.1097  0.0501  0.2127
17661W        W35865   1.806   4.196   5.004 -0.1491 -0.0122  0.1443
17662W        W35866  14.185   6.147  13.215  0.0550 -0.3104 -0.0570
17663W        W35867  12.681   5.246  10.130 -0.2968  0.1382  0.1390
17664W        W35868   3.578   5.795  10.279  0.0139 -0.1079  0.1103
17665W        W35869   2.909   1.906  12.863  0.1946 -0.0786 -0.2291
17666W        W35870   5.147   3.423   4.555 -0.0416  0.1767  0.0716
17667W        W35871   5.203   5.632   4.541  0.5520 -0.1172  0.0700
17668W        W35872  12.845  13.437   1.942  0.5651  0.2141  0.3312
17669W        W35873  11.835  17.697   9.587 -0.2070 -0.1002  0.2157
17670W        W35874   6.725   5.397  12.360 -0.2346 -0.1623 -0.2643
17671W        W35875   6.788  11.862  14.775  0.1765 -0.0008 -0.0568
17672W        W35876   0.996   3.415  12.189  0.0840 -0.3708  0.1128
17673W        W35877  10.617  16.481   0.479 -0.2914  0.0525  0.2043
17674W        W35878   6.045   6.591   3.781  0.0298  0.4039 -0.0023
17675W        W35879  13.232   2.550   1.005 -0.0536  0.0337  0.0438
17676W        W35880  12.154  12.875   0.735  0.0528  0.3384  0.0964
17677W        W35881  17.091  16.028  14.295  0.0919 -0.1680 -0.1789
17678W        W35882  15.268   4.207  12.941  0.1817 -0.0269  0.0181
17679W        W35883   2.525  13.718  14.464  0.0201  0.2319 -0.1618
17680W        W35884   9.750   2.911   9.809  0.0963 -0.0507  0.2642
17681W        W35885   4.224  18.039  13.838 -0.2775  0.2614  0.3114
17682W        W35886   3.201  17.664  11.032 -0.0578 -0.0229 -0.4487
17683W        W35887  14.598  14.756   3.832 -0.0764  0.0388  0.0867
17684W        W35888  13.798   7.954   0.449 -0.0170  0.0226 -0.0259
17685W        W35889  11.565   3.533  12.447 -0.0755  0.1444 -0.0424
17686W        W35890   3.742   3.836   5.815 -0.1553 -0.1746  0.1474
17687W        W35891  11.673  11.579   3.612 -0.1690 -0.0424 -0.0906
17688W        W35892   3.325  11.479   3.358  0.2290  0.1496 -0.4434
17689W        W35893  18.256   5.910   4.744 -0.0640  0.1901  0.0432
17690W        W35894  16.298   0.961   3.485  0.0178  0.2844 -0.3241
17691W        W35895  17.886   0.113   1.974 -0.0838 -0.0363  0.2983
17692W        W35896  13.787  14.796  10.735  0.1059  0.0089  0.0442
17693W        W35897   6.724   6.813   2.784 -0.0036 -0.2384  0.1001
17694W        W35898   3.131  16.667   9.869 -0.4397 -0.3244 -0.0778
17695W        W35899  15.689   2.813   4.095 -0.2511  0.0606  0.0552
17696W        W35900   9.286  14.221  12.560 -0.2684 -0.3829  0.2566
17697W        W35901   0.168   4.388  14.795 -0.3738  0.1663 -0.0997
17698W        W35902  16.727  15.615  12.652 -0.4642  0.1239 -0.3159
17699W        W35903  17.792   5.279  10.979  0.2922  0.0484 -0.0937
17700W        W35904  15.756   6.853  13.814 -0.0239  0.3100 -0.0983
17701W        W35905  17.706   9.795   4.464 -0.0621  0.1219  0.0647
17702W        W35906   1.662  15.608   0.702 -0.4300  0.0976 -0.2365
17703W        W35907  10.232   6.902  11.260  0.1504  0.0556  0.0942
17704W        W35908  12.224   3.130   2.948 -0.1061 -0.3260  0.2609
17705W        W35909  16.597   8.048   9.954 -0.3583 -0.2464  0.1736
17706W        W35910  16.909   5.932   3.998 -0.2123 -0.1158 -0.1442
17707W        W35911   7.531  13.841   2.263 -0.0602 -0.0011 -0.1068
17708W        W35912   3.165  16.451  13.000  0.2587 -0.3144 -0.2043
17709W        W35913  11.824  18.893  10.245  0.0329 -0.0227 -0.0107
17710W        W35914   6.960   4.620  13.447 -0.0233 -0.0992  0.1630
17711W        W35915   9.471  16.656   1.451  0.3385  0.3402 -0.1006
17712W        W35916   5.365   9.965   1.743 -0.2158  0.0428 -0.3899
17713W        W35917   5.775  15.418   1.448  0.2716 -0.0710 -0.0652
17714W        W35918   8.534   9.073   2.715  0.0561 -0.1214  0.1908
17715W        W35919  14.438  16.928  11.109  0.1845  0.0750 -0.0464
17716W        W35920  18.523   4.708  11.096  0.2216  0.3646 -0.1954
17717W        W35921   4.719   2.854   0.969 -0.0912  0.2174  0.0728
17718W        W35922  15.185   7.412   0.955 -0.0552  0.2310 -0.3561
17719W        W35923   6.368   2.209   3.037  0.1695  0.1221  0.0451
17720W        W35924   5.265  17.205   0.989 -0.0950  0.0377 -0.1464
17721W        W35925  11.382   6.937   0.488  0.1613 -0.1738 -0.0308
17722W        W35926  17.258   3.768   3.826 -0.0903 -0.1077 -0.0641
17723W        W35927  13.587   2.032   2.985 -0.0465 -0.1055 -0.4177
17724W        W35928   0.164  10.302   1.237  0.1302 -0.4540  0.0838
17725W        W35929  17.909   0.585   1.838 -0.2983 -0.0225 -0.5183
17726W        W35930  13.575  14.408  12.530 -0.1674  0.0112 -0.0388
17727W        W35931  12.749  11.360  11.072  0.0676  0.2247 -0.0155
17728W        W35932  13.727  17.010  11.467  0.1761  0.1917 -0.0174
17729W        W35933   9.317   5.859   0.664 -0.0802  0.2603 -0.0308
17730W        W35934  14.987   7.677   2.213 -0.1073  0.0679  0.4250
17731W        W35935   7.517  18.429  10.014  0.1056 -0.0641  0.0219
17732W        W35936  13.301  14.780   3.219  0.0787  0.3204 -0.0160
17733W        W35937  12.158   9.788   0.828  0.1059  0.1096 -0.0369
17734W        W35938  13.525  13.790  13.431  0.1889 -0.0561 -0.2778
17735W        W35939   5.501   0.276  13.176  0.0486  0.0219  0.2710
17736W        W35940  16.245   2.837   3.304 -0.0232  0.2516  0.0716
17737W        W35941  16.556  12.821   2.946 -0.0923 -0.2999 -0.0483
17738W        W35942   5.652  15.724   2.368 -0.3946 -0.1140 -0.3558
17739W        W35943   8.371  16.087  12.895 -0.0283  0.0225 -0.0792
17740W        W35944   9.035   0.703  13.420 -0.0411 -0.0397 -0.0802
17741W        W35945  17.411  11.685  11.003  0.2846  0.1825 -0.0271
17742W        W35946   9.493  14.543   0.887  0.0416  0.2398 -0.1957
17743W        W35947   0.973   1.866   4.702 -0.0344 -0.0781 -0.1605
17744W        W35948   0.551  17.811   1.882  0.0235 -0.1492  0.2982
17745W        W35949  16.751  14.130  12.984  0.2190 -0.0525  0.0035
17746W        W35950   9.890   9.444  13.784 -0.1952  0.2544 -0.0688
17747W        W35951   3.769  12.214  14.211  0.0841 -0.1194 -0.1070
17748W        W35952   7.574   5.294  13.459  0.0592 -0.1993 -0.0349
17749W        W35953  15.370  13.617   4.056 -0.1328  0.0766 -0.3924
17750W        W35954  13.469   2.885  13.527 -0.0124 -0.0188  0.1228
17751W        W35955   3.895   0.175   2.909 -0.4288  0.2365 -0.4774
17752W        W35956  16.613  14.791   3.122 -0.2022  0.2269 -0.5203
17753W        W35957   9.912  10.556  14.700  0.0439 -0.1858 -0.0276
17754W        W35958  12.251  16.922  11.731 -0.0028 -0.0267  0.1863
17755W        W35959  10.810   6.152   2.907  0.0682 -0.0501  0.1582
17756W        W35960   2.773  17.104   1.829 -0.1898  0.0212 -0.0513
17757W        W35961  16.780   1.246   1.441  0.0664  0.3141  0.0833
17758W        W35962  18.901   3.465  13.167  0.1158  0.0526 -0.0132
17759W        W35963  17.245   1.567   2.236 -0.0111 -0.1400  0.1968
17760W        W35964  14.079  10.710  12.926  0.0220  0.1210  0.1733
17761W        W35965  13.324   8.671  13.552 -0.1948 -0.4654  0.0102
17762W        W35966  18.840   0.305  14.098  0.1195  0.1118  0.2317
17763W        W35967   7.045  17.120   1.239  0.2731  0.1362 -0.2350
17764W        W35968   2.738  18.448   0.235 -0.1238  0.1355 -0.0947
17765W        W35969  15.227   6.047   3.207 -0.0515 -0.1541  0.2408
17766W        W35970  11.458   2.244  12.364  0.0115 -0.2234  0.1980
17767W        W35971  10.804   0.129  12.875 -0.1630 -0.0194 -0.3131
17768W        W35972   9.137   4.434   9.461 -0.2204  0.2424 -0.2248
17769W        W35973   6.859   2.051   2.842  0.1386 -0.2719 -0.3452
17770W        W35974  11.235   6.653  12.110  0.0270 -0.2364  0.2663
17771W        W35975  11.541   1.120   3.674 -0.3150  0.2451  0.2627
17772W        W35976  18.641  15.677   3.268 -0.0412  0.2401 -0.1419
17773W        W35977   7.687   7.497  11.892 -0.1046  0.1142  0.0482
17774W        W35978   3.180   9.616   1.554 -0.1762 -0.2618 -0.3924
17775W        W35979  18.880   9.486   0.106 -0.0397 -0.0346  0.2563
17776W        W35980  12.680  10.415   1.451 -0.2672  0.1565  0.4230
17777W        W35981  16.637  14.654  14.435  0.2776  0.5097  0.2465
17778W        W35982  11.405   4.296   3.231  0.2100  0.3650 -0.2574
17779W        W35983   5.584   6.786   3.714  0.0674 -0.2963 -0.0488
17780W        W35984   3.501  11.178   9.492 -0.0938 -0.1687  0.2436
17781W        W35985   9.911  11.515  10.944  0.0311  0.0384 -0.1007
17782W        W35986   9.888  11.233  11.982 -0.1110  0.0577 -0.2336
17783W        W35987   0.327   3.991   0.757  0.0027  0.2623 -0.2459
17784W        W35988   1.290   7.576  13.813  0.0390 -0.1689 -0.0942
17785W        W35989   0.541   1.482  13.271  0.0608 -0.3014  0.0505
17786W        W35990  12.600   1.686  14.129 -0.0056 -0.0645  0.0119
17787W        W35991   4.315   4.142   3.695 -0.0957 -0.1681  0.0038
17788W        W35992   6.362   2.184  13.192  0.3497  0.0707  0.3154
17789W        W35993  14.313  17.723   0.195  0.1289  0.2065 -0.0091
17790W        W35994   5.999  13.212  12.338  0.1035 -0.3192  0.0785
17791W        W35995   4.313  13.771  14.779  0.6301  0.0668  0.0478
17792W        W35996  18.528   1.041  12.357 -0.2423 -0.1256  0.0340
17793W        W35997  13.664   1.192   0.904  0.2870  0.0040 -0.0916
17794W        W35998  13.756  12.552  14.546  0.0996  0.1008  0.0819
17795W        W35999  15.892  16.561   1.736 -0.0764  0.0878 -0.1054
17796W        W36000  14.141   9.936   1.587 -0.0008 -0.0006  0.1388
17797W        W36001  11.316  17.247  10.833  0.0392  0.0302  0.2183
17798W        W36002   5.536  16.314  14.758 -0.1536  0.1595 -0.0188
17799W        W36003   6.651   6.234   3.029 -0.2172  0.0761  0.1617
17800W        W36004  16.577   4.722  11.524  0.1824 -0.2159  0.2906
17801W        W36005   4.722   6.995   2.238 -0.0425  0.1048  0.2365
17802W        W36006  10.160   8.926  13.478  0.2614 -0.1145 -0.1603
17803W        W36007   8.455   5.910   0.199  0.0144  0.0701 -0.4237
17804W        W36008   5.357  15.993  12.297 -0.0989 -0.1247 -0.1929
17805W        W36009   1.116  17.709  10.747 -0.0548 -0.0720  0.0596
17806W        W36010   0.187   9.610   4.491  0.0829 -0.2686  0.0144
17807W        W36011   0.439  13.101  10.537 -0.2060  0.2291 -0.0460
17808W        W36012   9.735  18.463  11.502  0.2309 -0.2515  0.1822
17809W        W36013   2.891  18.489   6.207  0.0915 -0.2111 -0.0391
17810W        W36014  12.174  11.873  13.734 -0.0889 -0.1436 -0.2076
17811W        W36015   3.950  15.147   2.637 -0.0306  0.2721  0.1052
17812W        W36016  13.736   8.198  12.461  0.0173 -0.1346 -0.0427
17813W        W36017  16.716  14.181   2.235  0.2311 -0.1588  0.3118
17814W        W36018  15.375   6.912  11.341  0.0768 -0.0630 -0.0159
17815W        W36019   8.510  15.518   1.501  0.1210  0.1403 -0.0425
17816W        W36020  11.097  12.745  14.188  0.0471  0.1839 -0.2634
17817W        W36021  13.743   4.147  10.932 -0.3644 -0.0552 -0.2693
17818W        W36022  13.531   4.324   4.133 -0.0164 -0.1895 -0.2815
17819W        W36023   9.774   0.861   1.410 -0.1423 -0.3818 -0.4336
17820W        W36024  11.807  14.273   2.893  0.0004 -0.2181  0.0759
17821W        W36025  16.498   1.138  11.507 -0.2492 -0.0092  0.1222
17822W        W36026  13.325   5.466   0.696  0.0947 -0.1218 -0.0005
17823W        W36027   0.455  11.158   2.426  0.2780 -0.0537 -0.0675
17824W        W36028   2.495  17.692  12.050 -0.2321  0.1733  0.1648
17825W        W36029   4.440   0.257   3.588 -0.0022 -0.1339  0.0917
17826W        W36030   7.766   9.626  13.120  0.2256  0.1718 -0.4179
17827W        W36031  16.832   8.242  11.311 -0.0363 -0.3199 -0.3986
17828W        W36032   1.731   2.062   1.555  0.1197 -0.2973  0.5040
17829W        W36033   5.745   3.814  12.941 -0.2027  0.3523  0.0246
17830W        W36034   0.132  18.758  13.255 -0.1763  0.0347  0.0949
17831W        W36035  16.153   6.026   2.338 -0.1290  0.0462  0.2975
17832W        W36036  13.005  15.076  12.447  0.0624  0.2560  0.1530
17833W        W36037  11.612   7.013   2.380  0.0192 -0.1050 -0.1730
17834W        W36038  14.399   3.009   3.001  0.0727 -0.6672  0.2820
17835W        W36039  11.056   8.857   0.769 -0.0220  0.1017 -0.2894
17836W        W36040  17.181   6.852  11.387  0.2428  0.2279  0.2823
17837W        W36041  16.003  12.279  12.324  0.0948 -0.1041  0.2037
17838W        W36042  11.646  17.066   2.636 -0.3833 -0.0586 -0.1541
17839W        W36043   5.396   1.879   3.881 -0.1893 -0.0258  0.0204
17840W        W36044  10.695   9.943   0.411 -0.0525  0.0906 -0.1856
17841W        W36045   3.819   0.682  14.140  0.1753  0.2022  0.0952
17842W        W36046   2.076   8.446  13.159 -0.0793 -0.0845  0.2516
17843W        W36047  17.124   6.173  12.624 -0.1864  0.0632  0.2097
17844W        W36048   9.523  10.905   3.722 -0.0754 -0.1690 -0.2887
17845W        W36049  12.887   6.342  13.396  0.0475 -0.1262 -0.0846
17846W        W36050  16.585  18.055   1.477  0.0669 -0.0616  0.2334
17847W        W36051   9.993  17.075  13.847 -0.1066  0.0774 -0.1691
17848W        W36052  15.095   3.178   1.453  0.0622  0.1616  0.2183
17849W        W36053   7.131  14.690  11.287 -0.0823 -0.0806 -0.2266
17850W        W36054  16.544   6.577   4.327  0.1221 -0.0323 -0.0982
17851W        W36055  12.878  14.356  10.736  0.0211  0.2401  0.1051
17852W        W36056   2.703   1.220  10.693  0.1915 -0.1580  0.0220
17853W        W36057   5.858   1.638  13.065  0.3256  0.1931 -0.2751
17854W        W36058  17.523  12.147   3.479  0.0235  0.5142 -0.1741
17855W        W36059   0.170  14.155   3.871 -0.0230 -0.1140 -0.0551
17856W        W36060  15.217  18.652   1.289 -0.0736 -0.2293  0.2145
17857W        W36061   5.671   8.131   4.158  0.0126  0.2343 -0.1869
17858W        W36062   8.580  18.318  10.576 -0.2525  0.1101  0.2503
17859W        W36063   7.550  10.610  12.831  0.0703 -0.1774  0.1477
17860W        W36064   2.509  11.729  11.977 -0.3916  0.3014 -0.1015
17861W        W36065  10.007   1.077  10.654 -0.1343  0.0501 -0.0078
17862W        W36066   3.351   1.196   2.999 -0.3047 -0.3077 -0.1082
17863W        W36067   6.399   6.793  10.994  0.0336  0.0788 -0.1060
17864W        W36068  12.338  10.930   0.770  0.3059 -0.3589 -0.1184
17865W        W36069   5.654  17.574  14.382  0.2620  0.1299 -0.2536
17866W        W36070  12.073   3.299  14.892 -0.0607  0.0767  0.1581
17867W        W36071  18.642   6.082  11.005  0.1059 -0.0205 -0.0174
17868W        W36072  12.307   8.502  11.205 -0.1493  0.0850 -0.0153
17869W        W36073   9.860   4.575  13.294  0.2143  0.1598  0.0785
17870W        W36074   5.429  11.216  12.940  0.0722  0.0546 -0.0705
17871W        W36075   9.541   5.529  11.264  0.0985  0.0292 -0.2084
17872W        W36076  15.157   1.127   2.757  0.3994 -0.0353 -0.3248
17873W        W36077   8.845  11.964   2.635  0.1739  0.0037  0.2101
17874W        W36078  10.513   9.160   3.359 -0.2387  0.1859  0.1321
17875W        W36079  14.850  17.247   1.374 -0.0297 -0.0248  0.1613
17876W        W36080  16.868  15.709  14.005  0.0135  0.0842  0.0094
17877W        W36081   2.548   2.519  14.067 -0.2239 -0.0684  0.0159
17878W        W36082   3.367   4.153  11.652 -0.2309 -0.3587  0.2885
17879W        W36083   0.823  17.649   2.668  0.1437  0.0850  0.0668
17880W        W36084  15.686  15.717  11.869 -0.0259 -0.0203  0.1380
17881W        W36085   4.506  12.476  13.535 -0.0209 -0.2572  0.1439
17882W        W36086   1.154   8.148   2.857  0.0607  0.1909  0.1034
17883W        W36087  16.920   1.975  13.271 -0.1204 -0.1135  0.2351
17884W        W36088   1.203   2.334   0.322 -0.0746 -0.2229 -0.3062
17885W        W36089   2.575   0.304  14.671 -0.0088  0.2396  0.0188
17886W        W36090  14.787  17.953  12.556 -0.1022  0.0312  0.3459
17887W        W36091   3.715  17.564   1.459  0.1656 -0.1476  0.2498
17888W        W36092  14.056  12.717   0.925  0.0657  0.0352  0.3169
17889W        W36093   5.137  17.594   0.679 -0.2075 -0.0746  0.1755
17890W        W36094   1.178   7.695  12.248  0.1104 -0.0175 -0.2205
17891W        W36095   8.536  13.037   0.535  0.0581 -0.0429 -0.2677
17892W        W36096   6.087  18.604  14.272  0.1558 -0.1832  0.3352
17893W        W36097   8.578   6.199   2.526 -0.0844 -0.1253 -0.2674
17894W        W36098  18.789  16.942   0.275  0.0230 -0.1129 -0.2971
17895W        W36099  17.874   4.337  13.463  0.0764  0.0180  0.0304
17896W        W36100   0.370  11.643   1.286 -0.2812  0.2929  0.1430
17897W        W36101   1.298  15.934   9.114  0.0606 -0.0981 -0.0624
17898W        W36102   5.832  16.516  11.642  0.2353 -0.1687 -0.0660
17899W        W36103   1.370   3.555   0.622 -0.2741  0.2562  0.3418
17900W        W36104  18.472   0.337  13.239  0.1733 -0.1384  0.0084
17901W        W36105   7.494   1.780   3.467 -0.2360 -0.0161  0.0917
17902W        W36106  15.678  18.289  13.999 -0.3453  0.2748 -0.2489
17903W        W36107   9.880  11.214   3.193 -0.1560 -0.1601  0.0770
17904W        W36108   0.980   6.952   2.501  0.0025  0.0619  0.1665
17905W        W36109  13.813   1.033   3.107 -0.0863  0.0028  0.1753
17906W        W36110   8.012  12.167  11.810  0.1333  0.1202 -0.1080
17907W        W36111  18.508   3.230  13.759 -0.1913 -0.2372 -0.0251
17908W        W36112   1.714   8.697  11.458 -0.1328  0.0864 -0.0799
17909W        W36113   0.916  17.505   2.177 -0.0636  0.0024 -0.0818
17910W        W36114  16.136   8.675  12.342 -0.0907  0.4165  0.0167
17911W        W36115   4.240   4.521   4.007  0.1050 -0.1576 -0.0164
17912W        W36116   1.206  14.393  11.509  0.1948 -0.0606  0.1497
17913W        W36117   1.396  13.070   2.452  0.0419  0.0433  0.1783
17914W        W36118   8.068   0.078  14.631  0.0797 -0.0247 -0.0076
17915W        W36119  18.351   1.826  14.778 -0.1476  0.0078 -0.1348
17916W        W36120   7.563   2.719  11.399 -0.2956 -0.0950 -0.0055
17917W        W36121  11.812   2.729  13.034  0.2728  0.1593  0.1602
17918W        W36122   6.027  18.464  10.434 -0.0161 -0.0025 -0.0986
17919W        W36123   3.358   1.223   2.259 -0.1707 -0.0174  0.0676
17920W        W36124  12.620   9.935  13.341  0.1341  0.2736 -0.2383
17921W        W36125   2.290  14.403  13.311  0.0539 -0.1601 -0.1208
17922W        W36126  13.133   1.703   2.928 -0.1827  0.1267 -0.0011
17923W        W36127   6.910  18.474   1.683  0.0477  0.0909  0.2330
17924W        W36128  18.300  12.520   3.898  0.1058  0.2297 -0.1716
17925W        W36129  10.877   9.547  12.318  0.2445 -0.0099  0.1482
17926W        W36130  13.814  17.535  11.090  0.1683  0.1817  0.2995
17927W        W36131   7.692  18.204   2.759 -0.2979  0.2765  0.1937
17928W        W36132  16.840   4.809  12.822  0.1137 -0.0400 -0.0505
17929W        W36133   3.815  10.447   2.602  0.0164 -0.4798 -0.3716
17930W        W36134   9.782  11.212  11.320  0.1524  0.1280 -0.0675
17931W        W36135   2.797  14.866   3.508 -0.1323  0.0002  0.1590
17932W        W36136  14.836   1.159  14.099 -0.0137 -0.0767  0.2721
17933W        W36137  13.358  15.070  12.029 -0.0884 -0.0254  0.2685
17934W        W36138   3.455   6.617   3.363  0.0141  0.0163 -0.3508
17935W        W36139   6.896  16.824  13.912 -0.1004 -0.1014 -0.1646
17936W        W36140   4.643   6.130  12.730  0.2728  0.4063  0.0484
17937W        W36141   2.314  13.351  12.287  0.0537  0.1010 -0.0895
17938W        W36142  15.117  18.009   1.603  0.1214  0.0010  0.1365
17939W        W36143  10.158  16.231  13.431 -0.1153  0.0755  0.0920
17940W        W36144   2.819   6.278  14.541 -0.1387  0.2092  0.0477
17941W        W36145   6.499  18.637  10.911 -0.0185  0.1866 -0.3459
17942W        W36146   0.797   1.445  10.544 -0.2333 -0.0887 -0.0040
17943W        W36147   8.929  16.275   4.598  0.2344 -0.4151  0.3345
17944W        W36148   6.144   6.973  10.622  0.0492 -0.2614  0.1214
17945W        W36149   6.094  16.771   1.187  0.0641 -0.2865 -0.2408
17946W        W36150   8.619  10.074   0.119  0.1879 -0.0472  0.0668
17947W        W36151  15.116   1.028  11.187 -0.4910 -0.2579  0.2663
17948W        W36152   1.789  13.599  10.554 -0.0252  0.2203 -0.1344
17949W        W36153   9.137   6.298  10.090  0.0761 -0.1976 -0.2197
17950W        W36154   3.035  18.393  13.118  0.2710  0.1434 -0.2989
17951W        W36155  10.158  10.438  11.838  0.1980  0.0984 -0.0880
17952W        W36156   8.145   3.278  11.480  0.3420  0.1532  0.0085
17953W        W36157   8.449   5.096   0.547  0.2553 -0.2514  0.0410
17954W        W36158  15.941  17.376   1.953 -0.0336  0.0780 -0.2423
17955W        W36159   4.451   7.378   2.010  0.0309 -0.5211 -0.0072
17956W        W36160  17.775  13.675  11.630  0.2788 -0.1591 -0.0199
17957W        W36161  12.584   3.156  14.912 -0.1004  0.3837 -0.0027
17958W        W36162   4.878   2.600   2.005  0.1227  0.1559  0.0533
17959W        W36163   5.955  14.545   3.800 -0.2814 -0.2666  0.1795
17960W        W36164  15.521   8.539  11.631  0.1398 -0.0774 -0.0302
17961W        W36165  12.678  12.418   5.236  0.1329 -0.0746 -0.1177
17962W        W36166   5.874   2.827   3.652 -0.1479  0.3053  0.0479
17963W        W36167   8.592   1.479   0.671 -0.1946 -0.0505 -0.0959
17964W        W36168   6.526  18.139   1.674 -0.1009 -0.0395 -0.0423
17965W        W36169  16.436   4.342  14.012 -0.3352 -0.0561  0.3761
17966W        W36170   2.023  15.792   3.379  0.1375 -0.1754  0.0178
17967W        W36171   8.489  13.604  11.076  0.2783  0.1258  0.1960
17968W        W36172  17.757  18.616   0.295 -0.3117  0.3072  0.0031
17969W        W36173  18.671   2.727   2.150 -0.0644  0.1534 -0.2366
17970W        W36174  15.238   3.651  11.223 -0.3623 -0.0221  0.1709
17971W        W36175  13.347  11.228   0.060  0.0496  0.0538  0.2226
17972W        W36176  13.703   6.491  10.831 -0.0017  0.1842  0.1511
17973W        W36177  16.943  14.398   0.229 -0.2460  0.0128  0.1350
17974W        W36178   9.585   3.441   0.257  0.1133  0.0660  0.0932
17975W        W36179   0.067   8.237  11.999 -0.0467  0.0415  0.2066
17976W        W36180  18.331  15.966   0.823 -0.0864  0.0708 -0.0504
17977W        W36181  18.858   6.161   2.653 -0.2684  0.1639 -0.0449
17978W        W36182  15.639   6.839   3.903  0.1685  0.1282 -0.0194
17979W        W36183  16.380  18.261  10.685  0.1129  0.1308  0.2728
17980W        W36184  13.163   3.848   3.917 -0.0967  0.0302  0.1647
17981W        W36185  12.195   4.447   3.497 -0.1512  0.0680  0.0206
17982W        W36186   6.335  11.933  10.556 -0.0615 -0.0537 -0.1584
17983W        W36187   9.996   8.065   2.654 -0.0620  0.0151  0.0396
17984W        W36188   9.042   1.920  11.914  0.0435 -0.2436  0.1336
17985W        W36189  15.763   0.493   9.802 -0.1814  0.3375  0.0025
17986W        W36190   2.378  11.472   1.611 -0.3596 -0.3000 -0.6252
17987W        W36191  17.128  16.975  14.849 -0.1300  0.0149 -0.2333
17988W        W36192  17.133  15.318   3.645  0.0002  0.3562 -0.0406
17989W        W36193   7.789   5.811   1.377  0.0873  0.0881  0.1715
17990W        W36194  10.291  18.600   0.748  0.0840 -0.0018  0.0700
17991W        W36195  16.392   9.545  13.792  0.0346  0.0202 -0.1169
17992W        W36196   0.101   9.508   0.580 -0.2414  0.2251 -0.1530
17993W        W36197  15.092   5.821  11.788 -0.1637  0.2110 -0.2137
17994W        W36198  14.498  12.384  10.869 -0.1812 -0.4440  0.0898
17995W        W36199   3.896  15.865  14.052  0.3213 -0.3284 -0.2172
17996W        W36200   3.334  18.667   1.572 -0.2254  0.0810 -0.3916
17997W        W36201   8.847  16.068   4.103 -0.3852 -0.1099 -0.0671
17998W        W36202   9.706  15.400   4.155 -0.1955  0.0739  0.1379
17999W        W36203   5.774  10.425  12.957 -0.0341 -0.0216  0.2357
18000W        W36204  16.114  15.765  13.342 -0.0424 -0.2172 -0.0438
18001W        W36205   3.113  14.061  13.280  0.2529  0.1530 -0.0486
18002W        W36206  17.681   4.267  11.361  0.2306  0.0994 -0.0742
18003W        W36207  16.557   4.989  14.705 -0.1125  0.2681 -0.2276
18004W        W36208  11.344  10.717  10.490  0.2325 -0.1588 -0.2134
18005W        W36209  14.428   8.178   4.664 -0.1409  0.2343  0.1364
18006W        W36210  13.032  11.201  12.332  0.1285 -0.1820  0.2697
18007W        W36211   8.942   3.037   1.868 -0.1172 -0.1738 -0.0061
18008W        W36212   1.095   2.273   5.044  0.0438  0.0083  0.2883
18009W        W36213  12.259  17.678   4.393  0.1812 -0.1982 -0.1117
18010W        W36214   9.663   6.674   3.736  0.0891 -0.0242 -0.2477
18011W        W36215   2.068   7.793   0.025  0.2398 -0.0609 -0.1537
18012W        W36216  12.653   7.287  12.056  0.2990 -0.1760  0.3614
18013W        W36217  14.320   9.343   3.830 -0.2631  0.2074  0.0083
18014W        W36218  15.371   8.344   4.114  0.0079  0.2012 -0.1396
18015W        W36219  11.314  15.139  12.767 -0.3600  0.1252 -0.0390
18016W        W36220   1.265  14.776   0.208 -0.0448  0.0686  0.0138
18017W        W36221  15.973  18.733  12.749  0.2205  0.0163 -0.2500
18018W        W36222   0.954   6.732  13.055  0.0888 -0.3925  0.0396
18019W        W36223  14.884  18.044  10.993  0.0524 -0.4760  0.4410
18020W        W36224   5.669   1.403   0.473 -0.1767  0.2671 -0.0100
18021W        W36225   3.249  12.139  11.461 -0.2117  0.1367  0.0127
18022W        W36226   1.350   8.213  10.997  0.0535 -0.0451 -0.0348
18023W        W36227   3.307   2.041   1.764  0.0244  0.4191 -0.1756
18024W        W36228  14.411  11.611  12.952  0.0724  0.0642 -0.3137
18025W        W36229   4.549  16.346   0.717  0.0397  0.1025  0.0973
18026W        W36230   9.288   0.477  14.982  0.2300  0.1576 -0.0735
18027W        W36231  13.445  10.767   5.157 -0.1465 -0.1489  0.0386
18028W        W36232  18.340   7.898  13.698 -0.0369  0.0748 -0.0987
18029W        W36233   3.499  18.790   4.454 -0.0931 -0.2207 -0.0160
18030W        W36234   0.507   9.911  11.912 -0.0217 -0.0640 -0.1466
18031W        W36235   5.594   5.800   1.502 -0.1393 -0.0295 -0.2320
18032W        W36236   1.422   5.520  11.807  0.0844  0.0337 -0.0559
18033W        W36237   1.514  15.271   1.288  0.0182 -0.1578 -0.2699
18034W        W36238  13.552   5.061   3.179 -0.1420  0.2032  0.1358
18035W        W36239   1.052   9.795   2.376 -0.1488 -0.0900 -0.2321
18036W        W36240  17.789  14.336  12.525  0.2425  0.2655 -0.0264
18037W        W36241   5.671   2.484  11.426 -0.1240  0.2973  0.0103
18038W        W36242   6.513   7.742  12.080  0.0820 -0.1889  0.3946
18039W        W36243   5.881   2.904   0.019  0.1309 -0.1866 -0.1198
18040W        W36244   7.765   3.890   3.522 -0.0828 -0.0959 -0.0245
18041W        W36245   0.495  17.754  14.060 -0.0307  0.2661  0.1936
18042W        W36246  12.223  17.907  12.765  0.3515  0.3795 -0.0083
18043W        W36247  18.540   6.521  14.637 -0.2731 -0.0434 -0.3973
18044W        W36248  17.705   5.757  11.264 -0.2770 -0.0875  0.0095
18045W        W36249  18.888   2.050   2.485 -0.1533 -0.0730 -0.1229
18046W        W36250   9.462  13.192   2.028 -0.1732  0.0716  0.1228
18047W        W36251   6.274   2.972   3.869 -0.1393 -0.1574  0.1192
18048W        W36252  18.945  18.712  15.010  0.2426 -0.2056  0.0492
18049W        W36253  13.001   9.166  13.290 -0.0744 -0.3550 -0.1519
18050W        W36254  16.865  17.710   3.336 -0.4597 -0.1101  0.1507
18051W        W36255  10.526   6.100   3.825 -0.1095  0.0989 -0.1125
18052W        W36256  12.228   7.521   2.369 -0.0202 -0.4425 -0.0278
18053W        W36257   2.735   2.865   1.431  0.0964  0.4472  0.1187
18054W        W36258  18.648   7.408  14.171 -0.1163 -0.2379 -0.3686
18055W        W36259  10.139   2.202  11.036  0.1154 -0.3692  0.3137
18056W        W36260   0.919   5.275   3.261 -0.1609  0.3852  0.1731
18057W        W36261  13.570   0.679  14.975  0.0483  0.1570 -0.0697
18058W        W36262   6.164  10.906   2.891  0.2546  0.0203 -0.1594
18059W        W36263   1.687  12.279   0.758  0.1180 -0.4250  0.2804
18060W        W36264  12.280   8.030   1.087  0.5300  0.1811  0.0617
18061W        W36265   4.438  10.263   2.580  0.0889  0.2303 -0.1498
18062W        W36266  17.790  10.151   1.695  0.1945 -0.0215  0.0673
18063W        W36267   4.707  11.712  12.468  0.0043  0.2973  0.0363
18064W        W36268  17.545   3.082  10.799  0.0638 -0.0591  0.2782
18065W        W36269  16.239   5.891   1.861 -0.1094 -0.0088 -0.1902
18066W        W36270   0.846   9.952  10.651  0.0239  0.0038  0.1148
18067W        W36271   5.625   8.587   2.768 -0.0896 -0.1676  0.1119
18068W        W36272  14.972   8.972   2.606 -0.0156 -0.4838 -0.2246
18069W        W36273   2.530  16.464   0.508 -0.0244 -0.0892 -0.0285
18070W        W36274  12.957   3.050  14.328 -0.0011  0.3198  0.1518
18071W        W36275  17.708   3.517   0.580  0.0015 -0.0394 -0.5651
18072W        W36276   7.705  15.643   0.331 -0.2071 -0.0488  0.0472
18073W        W36277   5.145   8.504   0.086  0.1788  0.1023 -0.1402
18074W        W36278  10.749  10.105  14.913 -0.1422 -0.0431  0.0923
18075W        W36279  18.131   8.624  14.148  0.0059 -0.2414  0.0145
18076W        W36280   8.217   4.590   0.574 -0.1982 -0.1627  0.0066
18077W        W36281   7.778   3.161   0.153 -0.0107 -0.0249 -0.0445
18078W        W36282  14.356  15.081  13.883  0.1103  0.0340  0.2123
18079W        W36283  10.370   5.381   3.568  0.1853 -0.5851  0.2063
18080W        W36284  15.334  13.200  14.817 -0.1004  0.0432  0.3133
18081W        W36285  17.580   5.239  12.230  0.0743  0.1412  0.2194
18082W        W36286   4.048   2.393  14.646 -0.1213 -0.3008 -0.1597
18083W        W36287  14.054   1.402  14.362  0.0503 -0.2080 -0.2426
18084W        W36288   7.642  12.269   2.504 -0.2820 -0.2422  0.0966
18085W        W36289  17.528  12.349   2.112 -0.0854 -0.0820 -0.1809
18086W        W36290   3.857   2.654  11.733  0.1705  0.2934  0.0932
18087W        W36291  13.376   0.733  12.785 -0.3681 -0.2468 -0.3185
18088W        W36292   7.627  13.689   5.913  0.0298 -0.2053 -0.0157
18089W        W36293   9.171   0.955   4.780  0.1081  0.0894 -0.0096
18090W        W36294   8.735  10.017   1.211 -0.1401  0.0300 -0.0972
18091W        W36295  11.547  12.508   0.341 -0.1664 -0.1046 -0.2563
18092W        W36296   7.112  14.549   2.735  0.1112  0.1360  0.0779
18093W        W36297  12.810   7.490   4.485  0.1276  0.2214 -0.1805
18094W        W36298  13.729  12.859   2.266 -0.0015  0.2226  0.2084
18095W        W36299   6.139  14.746  11.243 -0.2119 -0.0716 -0.1129
18096W        W36300   9.645  12.070   0.892  0.2120  0.2853  0.4123
18097W        W36301   2.785   5.398   3.621  0.0377 -0.3830  0.0329
18098W        W36302   8.895  15.533   5.421 -0.0060 -0.0691 -0.1341
18099W        W36303  14.169   1.632  12.605  0.2163 -0.0120  0.3100
18100W        W36304   0.817   2.674   0.450  0.2164 -0.4923 -0.0110
18101W        W36305   0.712  17.667   3.190 -0.3401  0.3879  0.1264
18102W        W36306  17.714   7.181  11.327  0.3123  0.2446 -0.2559
18103W        W36307  13.219  14.604  12.235  0.2175  0.0396  0.1250
18104W        W36308   8.976   6.472   2.333 -0.5757  0.0328 -0.2199
18105W        W36309  16.546   9.408  12.831  0.4939  0.0579  0.1376
18106W        W36310  13.408   0.363   3.458  0.2158 -0.1255  0.3277
18107W        W36311   2.660   9.121  13.356  0.1505 -0.2191 -0.2467
18108W        W36312   9.057   0.726  13.898  0.3061 -0.3875 -0.1487
18109W        W36313  15.834   6.038  10.531  0.1995 -0.1756 -0.2263
18110W        W36314   3.364  11.180   0.052 -0.1349  0.0552 -0.0815
18111W        W36315  18.433  10.246   3.411 -0.4557 -0.1095 -0.5025
18112W        W36316  15.139   0.425  14.864 -0.0314  0.0019 -0.1595
18113W        W36317   2.746   5.350   2.741  0.0555 -0.0361 -0.0194
18114W        W36318   8.289  11.115  14.519 -0.0002 -0.1407  0.2519
18115W        W36319  17.063   6.437  10.388 -0.3157  0.0508 -0.0077
18116W        W36320  15.850  13.107  13.061 -0.0043  0.0306  0.2652
18117W        W36321   5.238  11.263   2.104  0.0077  0.2138 -0.3505
18118W        W36322  17.734   3.057   2.376 -0.0687  0.0742  0.2196
18119W        W36323   0.292  11.536  14.857 -0.2116 -0.3119  0.1478
18120W        W36324   2.894  15.381   1.279  0.1459 -0.0488  0.1296
18121W        W36325  16.154   4.943  13.626 -0.0991  0.1118 -0.4230
18122W        W36326   4.398  10.305  11.253  0.2948  0.0509 -0.0986
18123W        W36327   0.062  15.064  14.011 -0.0903 -0.1594 -0.0395
18124W        W36328   2.728   3.374  12.898  0.4641 -0.0334 -0.0729
18125W        W36329  16.971   0.167  11.080 -0.3395 -0.0829  0.2471
18126W        W36330   9.728  17.487  11.751  0.0936  0.0580  0.3243
18127W        W36331  16.293   6.452   9.627  0.0342  0.3633 -0.1081
18128W        W36332  10.996   7.337   3.488 -0.2863  0.1981  0.3066
18129W        W36333   0.164  13.017  12.260  0.1807  0.0442 -0.0988
18130W        W36334  18.830  14.314  11.012  0.1924 -0.0177  0.1403
18131W        W36335  10.983   6.609  12.556 -0.1449 -0.1859 -0.0457
18132W        W36336  14.642   8.637   3.222  0.2673 -0.5000  0.4456
18133W        W36337   9.452  16.535  11.421 -0.0178  0.0736 -0.2259
18134W        W36338  12.764  11.560  12.624  0.0032 -0.1097  0.0773
18135W        W36339   0.449  17.353  13.753 -0.0292  0.3151 -0.0302
18136W        W36340   5.214  17.559  13.189  0.2047  0.1443 -0.0029
18137W        W36341   9.405   9.688   4.631 -0.0629 -0.2109 -0.0506
18138W        W36342   8.489   2.238   1.342  0.0228  0.1554  0.1311
18139W        W36343  11.844   9.214   0.586 -0.2106 -0.0570  0.0228
18140W        W36344   4.620   8.039   4.018  0.1505  0.0065  0.0220
18141W        W36345   3.316  10.029   1.250  0.1673  0.0846 -0.5249
18142W        W36346  11.022   5.922  13.128  0.1715 -0.0799 -0.0680
18143W        W36347  18.494  18.886  11.672 -0.4813 -0.4476  0.1533
18144W        W36348   5.067  11.668   3.147 -0.0746  0.0287 -0.5504
18145W        W36349   5.109   8.953   1.759 -0.1264 -0.1386  0.0500
18146W        W36350   9.443   7.692  11.088 -0.3453 -0.0895  0.2423
18147W        W36351  15.979   8.702  11.402 -0.0798 -0.1144  0.3084
18148W        W36352  16.747  15.494   2.185 -0.1028  0.1689  0.3500
18149W        W36353   4.497   7.542  15.001  0.2670 -0.0064  0.0767
18150W        W36354   2.303  18.215  11.082 -0.0187  0.0914  0.1319
18151W        W36355  18.616   6.705  11.735  0.1381 -0.1415  0.0349
18152W        W36356  13.134  11.641   0.790 -0.0630 -0.3028  0.3231
18153W        W36357   5.265   2.614  10.547  0.0842  0.0280 -0.0093
18154W        W36358   4.894   1.202   3.506 -0.0686 -0.1721  0.0205
18155W        W36359  11.115  12.035  13.475 -0.1054  0.1992  0.1104
18156W        W36360  16.450   7.379   1.358  0.0606 -0.0701 -0.1894
18157W        W36361  11.828   4.626   3.186 -0.1913  0.2017  0.1846
18158W        W36362   8.116  16.049   3.250 -0.0491 -0.0162 -0.1124
18159W        W36363   0.082  13.718  13.049  0.2218  0.0813  0.0561
18160W        W36364   5.646   0.300   0.903 -0.0551  0.0831  0.3196
18161W        W36365   7.538   5.701   9.797  0.4915  0.1062  0.0091
18162W        W36366  11.966   6.354  10.295  0.2322  0.0942 -0.2690
18163W        W36367   0.855  11.197   3.925 -0.1946 -0.1210  0.0388
18164W        W36368   7.606   4.610   1.515  0.0845 -0.0115  0.1441
18165W        W36369   0.197   2.982  13.030  0.2576 -0.5192  0.0774
18166W        W36370  17.048  18.064   2.098  0.0806 -0.2115 -0.1331
18167W        W36371   7.098   3.072   9.792 -0.1186  0.0161 -0.1785
18168W        W36372  14.868   9.542   3.712  0.0137  0.0825 -0.1740
18169W        W36373  15.002   1.754   3.007 -0.1242 -0.0626 -0.1311
18170W        W36374   6.978  13.771   9.827 -0.0116 -0.0128  0.2125
18171W        W36375   5.931   1.902   0.029  0.1352  0.2102 -0.1466
18172W        W36376  10.431  17.394  13.824  0.1825 -0.0818 -0.4678
18173W        W36377  15.502  17.594  10.842  0.2217 -0.0435 -0.2351
18174W        W36378   6.511  16.856  12.540 -0.1072  0.0716 -0.2245
18175W        W36379  14.384  17.712  10.113 -0.0321 -0.2204  0.0150
18176W        W36380  15.111  11.342   2.699 -0.1499 -0.2041 -0.2335
18177W        W36381   2.821   3.039   1.953 -0.1341 -0.0150 -0.3349
18178W        W36382  10.896  17.740   1.462  0.0492  0.0147  0.0566
18179W        W36383   3.849   5.251   1.260 -0.1053 -0.2200 -0.4782
18180W        W36384   4.597  14.291  12.114  0.1782 -0.0206 -0.0317
18181W        W36385   3.950   4.550   1.789 -0.2636 -0.2081 -0.0447
18182W        W36386   6.545   8.510  13.586  0.1766  0.2955 -0.0584
18183W        W36387  16.692   4.209   0.862 -0.1028 -0.3024  0.3268
18184W        W36388  14.012   2.485  12.089 -0.0403 -0.0104  0.0113
18185W        W36389   7.786  11.958   1.249  0.1017  0.2209  0.0446
18186W        W36390  10.204  11.059   1.575  0.1425  0.1166  0.2069
18187W        W36391  12.091   0.672   1.718 -0.2205 -0.1290  0.1015
18188W        W36392   1.187   2.152   1.710  0.0376  0.1085 -0.1095
18189W        W36393   8.244   6.874   3.334 -0.1143  0.5727  0.0636
18190W        W36394  17.730  16.384  11.460  0.1994  0.0857 -0.1446
18191W        W36395  16.739  14.224   1.366 -0.0424  0.0179  0.3244
18192W        W36396   9.621  18.410  13.359  0.2287  0.0868  0.0296
18193W        W36397   1.786  13.850  14.340 -0.1273  0.1092  0.4149
18194W        W36398   8.484   4.421  11.341 -0.1940  0.1153 -0.2150
18195W        W36399   1.448   7.074  13.462  0.1310 -0.3331 -0.1814
18196W        W36400   7.257  10.595   1.471  0.0717 -0.0785  0.3574
18197W        W36401   1.427  15.293   0.133 -0.1076  0.3880  0.1689
18198W        W36402  11.885   7.265   1.209 -0.2231 -0.2181  0.0143
18199W        W36403  17.357  10.605   2.516  0.0564 -0.0810  0.1782
18200W        W36404  15.434  10.395  11.271 -0.3584  0.3184  0.2070
18201W        W36405   7.488   4.867   0.165 -0.0849  0.3865 -0.0456
18202W        W36406  15.824   7.093  10.543  0.3571  0.1547  0.1076
18203W        W36407   8.211   0.929   0.018  0.2397 -0.3030  0.0813
18204W        W36408   7.440  14.497  10.899  0.0588  0.1318 -0.0106
18205W        W36409  10.182  13.731   0.370 -0.4212  0.0389 -0.0593
18206W        W36410   5.453  16.730   2.436  0.3975  0.2220  0.0058
18207W        W36411   1.218   9.729   5.110  0.0195  0.1289 -0.3763
18208W        W36412   7.677   7.175  11.131  0.0779  0.3048  0.1637
18209W        W36413   0.008   7.714  10.805 -0.0395  0.0387  0.2105
18210W        W36414   5.390  17.981   0.729 -0.1892  0.2482 -0.0744
18211W        W36415   2.120  16.810  12.964  0.0349 -0.0616  0.2919
18212W        W36416  11.131   9.751  11.279  0.0691  0.1144 -0.0817
18213W        W36417   8.984   6.285   0.020 -0.1198  0.0833 -0.0468
18214W        W36418   9.593   5.975   3.537 -0.4534 -0.0955  0.0148
18215W        W36419   2.552  12.192  10.845 -0.1104 -0.1476 -0.1918
18216W        W36420   6.182   8.713  13.336 -0.0079 -0.0402 -0.3999
18217W        W36421  18.398  11.186  15.007 -0.1886 -0.0348 -0.0010
18218W        W36422  16.285   1.010   0.008  0.0166 -0.2634  0.0199
18219W        W36423  12.900   6.657   4.377  0.3284  0.1998  0.1562
18220W        W36424   6.403   1.490  13.204  0.3499 -0.1597  0.0994
18221W        W36425   0.877   1.360   1.868 -0.0721  0.2106 -0.0989
18222W        W36426  16.594  18.509   3.753 -0.1617 -0.0282 -0.1175
18223W        W36427  13.896  13.830   1.232 -0.0094  0.4518  0.2123
18224W        W36428   0.599  10.958  13.190 -0.3045  0.0792  0.1209
18225W        W36429  17.410   8.795   3.820 -0.0257  0.1638  0.1377
18226W        W36430   3.869  13.920   0.073  0.0606  0.0760  0.1335
18227W        W36431  12.948   1.462  13.951  0.1826  0.2274 -0.0042
18228W        W36432   7.938  13.819  14.111 -0.0012  0.0660 -0.1970
18229W        W36433  14.666   8.575  12.711 -0.1218 -0.1168 -0.0744
18230W        W36434  10.871   8.205   2.928 -0.0126  0.3715 -0.3169
18231W        W36435   3.121  15.035  13.423  0.0027  0.3724  0.0792
18232W        W36436  18.268  18.420   1.574 -0.1429  0.2541  0.1151
18233W        W36437   3.644  17.909  11.224  0.1140 -0.4820  0.6154
18234W        W36438  12.868  14.868   2.017 -0.2098 -0.0105  0.0212
18235W        W36439  12.212  18.540   3.067  0.1366 -0.1688 -0.0535
18236W        W36440  13.373  18.487   1.992 -0.1640 -0.3457 -0.1925
18237W        W36441  12.507  10.283   3.420 -0.0720 -0.2826  0.1128
18238W        W36442  18.640  16.414   9.780  0.3246 -0.0667 -0.1440
18239W        W36443  17.746   0.011   3.339  0.2752 -0.0855  0.1078
18240W        W36444  10.622   7.291  12.597  0.2430 -0.0913  0.2408
18241W        W36445   2.317   6.189   2.692 -0.2305  0.2460  0.0351
18242W        W36446  16.352  15.423  12.469 -0.1217  0.3625  0.1460
18243W        W36447  16.104   8.465  12.781  0.0190  0.0199  0.0496
18244W        W36448   5.907   3.659   2.220 -0.4539 -0.1260 -0.0144
18245W        W36449  13.371  14.563  11.770  0.0456 -0.1003  0.2227
18246W        W36450   2.329   8.943   3.450 -0.2079  0.0155 -0.0098
18247W        W36451   7.304   3.686   1.454 -0.3214 -0.1155 -0.1777
18248W        W36452   3.766   6.767   0.427  0.0163  0.0682  0.2645
18249W        W36453   7.182  13.421  14.201  0.0296 -0.0116 -0.0734
18250W        W36454  17.551   1.018   9.679  0.2497 -0.3463  0.2072
18251W        W36455   3.847   2.802  10.766  0.0089  0.2512 -0.3496
18252W        W36456   1.923   6.780   1.440 -0.1125  0.2081 -0.1795
18253W        W36457   7.265  12.215   2.117  0.1738 -0.3430 -0.0355
18254W        W36458   6.566   2.888  12.837 -0.1034 -0.0795 -0.1987
18255W        W36459  16.555   3.921   3.060 -0.1334 -0.1242 -0.1171
18256W        W36460   2.103   5.218  13.487  0.0448 -0.3074  0.2251
18257W        W36461   1.765   0.516   0.250  0.1575  0.0040  0.4917
18258W        W36462  16.124  16.320  14.540  0.1713  0.0796  0.1849
18259W        W36463  12.345  18.338   1.291  0.1091 -0.0171 -0.2602
18260W        W36464   5.034   5.341   4.149 -0.1275  0.2874  0.0901
18261W        W36465  11.737   8.608   1.247  0.2346  0.4995  0.3791
18262W        W36466   1.053   3.496   2.943  0.2001 -0.2349  0.2089
18263W        W36467  15.752   8.850  12.583  0.1558  0.0980  0.0524
18264W        W36468   3.213  15.251   0.053  0.2294  0.2787  0.1027
18265W        W36469  17.576   8.103  14.172  0.0353 -0.0730 -0.0393
18266W        W36470  13.740  17.773  12.648  0.2062 -0.0502 -0.1168
18267W        W36471  11.400   7.842  13.085 -0.0432 -0.2030 -0.3038
18268W        W36472  18.812   7.140  11.353 -0.0789 -0.1535 -0.1328
18269W        W36473   8.079   4.912  12.081  0.1165  0.1044  0.0304
18270W        W36474   5.527   2.321   2.684 -0.3844  0.1889  0.1716
18271W        W36475   9.758  10.077  11.482 -0.1049 -0.4114  0.0126
18272W        W36476  12.588   8.319   2.680 -0.1284  0.0476 -0.1032
18273W        W36477   4.811   7.948   2.621 -0.4987  0.2332 -0.0548
18274W        W36478   4.106  10.930  11.831 -0.1071 -0.0952  0.0127
18275W        W36479  16.540   8.614  11.988  0.0185  0.2206 -0.0253
18276W        W36480  16.455  15.779  10.427 -0.1579  0.1549 -0.3124
18277W        W36481   5.618  15.182   1.055 -0.3002  0.0630 -0.2565
18278W        W36482  10.394  11.552  10.853  0.0965  0.2707 -0.2031
18279W        W36483  18.058  14.491  12.084  0.1408  0.0607 -0.0599
18280W        W36484  16.431  12.672   4.982  0.0990  0.0806  0.0503
18281W        W36485   8.962  14.713  14.832 -0.0397 -0.3558  0.0154
18282W        W36486   1.999   0.356  11.233 -0.0183 -0.1735  0.1822
18283W        W36487   9.632  11.298   0.112 -0.1445  0.0588  0.1743
18284W        W36488   2.860  13.972  11.510  0.3113 -0.0908 -0.2534
18285W        W36489   5.992   9.135   1.502 -0.1313 -0.0289 -0.1741
18286W        W36490  12.865   7.105   4.184 -0.2405 -0.1945  0.1138
18287W        W36491  17.762  15.899  11.286 -0.1877 -0.0601 -0.1133
18288W        W36492   0.846   9.156  12.743  0.1147  0.1735  0.0098
18289W        W36493  12.522   2.260  10.038  0.0581  0.0124 -0.6079
18290W        W36494  16.527  18.346  11.211 -0.0747  0.1055  0.0602
18291W        W36495  14.186  12.932   1.916  0.1056 -0.1143  0.0680
18292W        W36496   1.508   5.464   3.542 -0.1591 -0.2501 -0.1322
18293W        W36497   2.132  13.593  14.046 -0.1589 -0.2297  0.2000
18294W        W36498   1.855   7.519  11.701  0.2067  0.0895 -0.1830
18295W        W36499   9.055   0.771   0.404 -0.1171  0.2911 -0.0682
18296W        W36500  17.280  11.864   2.198 -0.1564 -0.1336 -0.1069
18297W        W36501   3.677   9.017   1.930  0.1813  0.2458  0.0456
18298W        W36502   2.042   0.298   4.244 -0.1771 -0.4603 -0.1391
18299W        W36503   8.942  12.815   0.704  0.0732  0.2153  0.0495
18300W        W36504  14.846   4.918  11.059  0.1318  0.0835  0.0260
18301W        W36505  13.678   6.872  11.919 -0.2482  0.2665  0.0505
18302W        W36506   4.168   6.834   3.040 -0.2692  0.1495  0.0592
18303W        W36507  18.359  10.491  13.998  0.4694 -0.0081 -0.0337
18304W        W36508   9.108   9.346  10.273  0.0383  0.2006  0.2359
18305W        W36509   7.438  16.586   3.626 -0.0290  0.1065  0.2467
18306W        W36510   0.972   9.080   4.955 -0.2476 -0.0463 -0.0775
18307W        W36511  11.908  12.476  10.002  0.0360  0.1223 -0.1284
18308W        W36512   2.749  14.927   4.126 -0.1607  0.1824 -0.1949
18309W        W36513   5.836  12.465   4.174 -0.1321 -0.1746 -0.0957
18310W        W36514   3.827   2.039   0.580  0.1058  0.0229  0.0864
18311W        W36515   2.321  10.233   2.284 -0.0805  0.0560  0.0439
18312W        W36516   3.434   9.419   1.142 -0.1306  0.0821  0.1853
18313W        W36517   7.255   5.341   3.237  0.2495 -0.2642  0.1534
18314W        W36518  17.231  18.646   3.347  0.2971 -0.1594  0.1100
18315W        W36519  18.197   3.281  12.701 -0.4880 -0.1798 -0.3409
18316W        W36520  15.034   2.214  14.707 -0.0387 -0.1285  0.2644
18317W        W36521  16.207   2.147  14.471 -0.4398 -0.1503  0.0185
18318W        W36522   4.874  17.875  11.955  0.0396  0.1739 -0.1496
18319W        W36523   2.688   0.596   3.574  0.0971  0.2330  0.1791
18320W        W36524   0.859   8.630  11.162  0.0893 -0.3198 -0.1468
18321W        W36525   5.417  15.239  14.964 -0.2821  0.1932 -0.2664
18322W        W36526  14.781  18.796  14.059 -0.0411  0.0860 -0.0806
18323W        W36527  17.097  15.190   1.260 -0.1016  0.0287  0.0984
18324W        W36528  17.964  16.558   1.815 -0.1959  0.3056 -0.2155
18325W        W36529   3.508   8.482  13.232  0.0295 -0.3219  0.2163
18326W        W36530  18.682   2.563  11.433  0.4940  0.0908 -0.1400
18327W        W36531  12.121   9.638  12.113  0.2474 -0.0753  0.0212
18328W        W36532   7.257  14.958  14.152  0.0613 -0.0095 -0.6414
18329W        W36533  12.664  13.911  10.792 -0.0640 -0.0954  0.4029
18330W        W36534  16.360   8.163   3.981  0.3057  0.0726  0.2455
18331W        W36535   3.695   0.247   4.754 -0.0019 -0.0143  0.0850
18332W        W36536   1.299  15.036   4.275  0.1128 -0.2074  0.1401
18333W        W36537   9.601  10.034   1.634  0.2408  0.1398  0.1075
18334W        W36538  11.746  12.130   2.701  0.0122  0.1250  0.4387
18335W        W36539  10.463   5.791  13.932 -0.1397  0.1028  0.1964
18336W        W36540   8.634  14.144  11.082  0.0030  0.1953  0.1109
18337W        W36541   4.401   1.440   1.720 -0.0653 -0.0216  0.0609
18338W        W36542  15.808  16.224   1.058  0.0616  0.1600 -0.0489
18339W        W36543  13.415  14.271   1.581 -0.1598  0.0030  0.3582
18340W        W36544  15.165  15.305   2.238 -0.2646  0.0325 -0.2501
18341W        W36545  11.301  10.828  14.721 -0.2032 -0.1188  0.2856
18342W        W36546  14.012  10.163  12.913 -0.2655 -0.1372 -0.1648
18343W        W36547  13.892  15.998   3.356  0.3613  0.2697 -0.1610
18344W        W36548  12.485   7.007   4.478  0.0266 -0.0207 -0.3288
18345W        W36549   3.357   6.338  14.504  0.0094 -0.6632  0.0212
18346W        W36550   2.773   4.066   2.790 -0.1211  0.1206  0.1114
18347W        W36551   4.756   1.539  11.544  0.2463  0.0395 -0.2739
18348W        W36552   1.544   8.012  13.825  0.0380 -0.0033  0.1034
18349W        W36553  10.421  12.409   1.102  0.2860  0.0890 -0.3494
18350W        W36554   6.965   4.849   0.136 -0.1230 -0.2093 -0.3513
18351W        W36555  12.559   4.742  14.691 -0.1051 -0.1714 -0.0207
18352W        W36556  13.457   4.838   1.648 -0.0792  0.2098  0.0977
18353W        W36557   9.074   8.768  10.444 -0.1571 -0.0136 -0.0719
18354W        W36558  14.454  18.799  13.665  0.0542  0.0312  0.0420
18355W        W36559   0.938   5.398   4.657  0.1470  0.0841  0.0251
18356W        W36560   9.979  18.279   0.496  0.1723  0.0328 -0.2289
18357W        W36561  16.459  11.646  13.278 -0.3799 -0.1166 -0.0667
18358W        W36562   6.735  13.581  12.735  0.2006  0.1323  0.1422
18359W        W36563  10.823   4.123  12.078  0.1714 -0.0272  0.1899
18360W        W36564   2.709   8.516  14.210 -0.0361 -0.1805  0.1077
18361W        W36565  15.625   7.935   5.259 -0.1243 -0.0219  0.2078
18362W        W36566   6.320   6.746   1.040  0.0638  0.0381  0.1250
18363W        W36567   8.488  17.026  10.570  0.1749 -0.1441  0.0881
18364W        W36568   9.713   6.587   0.080 -0.0409 -0.0501 -0.0682
18365W        W36569  16.747  16.379  14.453 -0.1015  0.0036 -0.3067
18366W        W36570   6.393  13.453   1.218  0.1847 -0.1417 -0.0091
18367W        W36571  13.809  10.265  10.759 -0.1873  0.1178  0.4526
18368W        W36572   5.233   8.543   1.606 -0.1517  0.3711  0.0031
18369W        W36573   2.329  13.245   3.378 -0.1410  0.2169 -0.1216
18370W        W36574  13.495   8.349   2.823  0.0831  0.1392  0.0630
18371W        W36575  12.175   6.516  14.562 -0.1311 -0.0146  0.2018
18372W        W36576   8.918   4.673   4.701 -0.1160 -0.0245 -0.1460
18373W        W36577  16.646  18.720   3.227  0.0414 -0.0501  0.2601
18374W        W36578   9.942  10.602  10.575  0.0699 -0.1209 -0.0239
18375W        W36579   1.742   8.936  13.767  0.1288 -0.1451 -0.3490
18376W        W36580  11.638   2.179   2.238 -0.1334 -0.0312  0.3154
18377W        W36581  10.262   3.973   4.991 -0.0457  0.0073  0.1437
18378W        W36582   0.691  13.056   1.384 -0.0547  0.0326 -0.1279
18379W        W36583  13.499   7.037   3.324  0.1610 -0.0573 -0.0318
18380W        W36584  11.651  12.680   2.786  0.1486  0.0965 -0.0862
18381W        W36585   3.854  10.482   3.887 -0.2043 -0.0874  0.0525
18382W        W36586   7.415   4.490  13.672  0.1385  0.1936  0.0577
18383W        W36587  14.724  11.365   1.266  0.0490  0.3976 -0.2595
18384W        W36588   0.198   2.549   4.639  0.0938 -0.1023 -0.0742
18385W        W36589   9.196  12.836  13.935  0.4881 -0.0833  0.3008
18386W        W36590   3.417   9.329  14.283 -0.0840 -0.1280  0.4171
18387W        W36591   9.429  13.502  11.356  0.2486  0.0600 -0.2674
18388W        W36592  17.505   0.274  12.316 -0.2915 -0.0130 -0.0252
18389W        W36593  13.558  10.545  14.269 -0.0001 -0.0164 -0.0801
18390W        W36594   3.721  16.523   4.930 -0.0601 -0.0485  0.1180
18391W        W36595  16.493  17.708   4.776 -0.0149 -0.1833 -0.0803
18392W        W36596  14.866   9.824  10.631  0.0070  0.0988 -0.5623
18393W        W36597   2.749  16.604   2.804 -0.3481 -0.1522 -0.2886
18394W        W36598   9.976   5.539  10.851 -0.1146 -0.0179  0.3156
18395W        W36599   5.529   9.071  13.065 -0.3559  0.1151  0.1988
18396W        W36600  18.575  10.738  11.191  0.1028  0.2148  0.1016
18397W        W36601   9.716   1.627   2.020 -0.6103  0.0518  0.1356
18398W        W36602   9.048   2.837  12.321  0.1601  0.0545 -0.0680
18399W        W36603  15.614   5.541  11.116  0.1606 -0.0544 -0.2883
18400W        W36604  11.640   0.871   1.573  0.1745 -0.1078 -0.0523
18401W        W36605   4.568   9.521   1.760 -0.3314 -0.2198  0.2367
18402W        W36606   0.454  12.076   0.962 -0.0837 -0.1192 -0.1378
18403W        W36607  10.375   8.661  10.105  0.0300 -0.0933 -0.0170
18404W        W36608   3.926   0.121  11.220 -0.2800 -0.0352 -0.1288
18405W        W36609  13.004   4.981  14.924 -0.0912 -0.1152  0.3699
18406W        W36610   8.006  16.248  11.588  0.0951 -0.0428 -0.3204
18407W        W36611  14.572  16.795  12.798 -0.2713  0.0286  0.3804
18408W        W36612   2.306  16.767  14.318  0.1249  0.0545  0.2248
18409W        W36613  13.897  13.689   2.822  0.0111  0.0625 -0.1958
18410W        W36614  12.820  16.674   1.692 -0.0083  0.1413 -0.0491
18411W        W36615  14.160   4.057   1.535  0.0925  0.2695 -0.0890
18412W        W36616  18.466  17.814   1.472  0.1483  0.0716 -0.3960
18413W        W36617   2.203   8.012   2.479 -0.0841  0.0247  0.0353
18414W        W36618   7.014   2.411   4.374  0.1046  0.0938  0.1214
18415W        W36619  13.493  16.817   0.033 -0.0490 -0.1043  0.0975
18416W        W36620  16.289  10.565   4.589 -0.1714 -0.0356  0.1254
18417W        W36621  18.213  11.249  10.673  0.0071 -0.2861 -0.3120
18418W        W36622   7.534   6.143  14.274 -0.2191 -0.3300  0.0884
18419W        W36623   1.552   3.207   2.754  0.1971 -0.1078 -0.0529
18420W        W36624   0.422  18.363   4.150 -0.3856  0.0850 -0.1139
18421W        W36625   5.979   8.199   3.790 -0.0292 -0.0740  0.0211
18422W        W36626   7.631   9.484  14.742  0.0751 -0.1907  0.0473
18423W        W36627  14.418   6.894   1.175 -0.1883 -0.4567  0.2239
18424W        W36628  15.674  15.024  14.078  0.0442 -0.0337  0.0297
18425W        W36629   1.772   6.846   3.841 -0.0213  0.0440 -0.1072
18426W        W36630   7.474  13.478   3.824  0.0833 -0.0153 -0.1117
18427W        W36631  14.770   0.107  15.021 -0.2744 -0.2996 -0.2664
18428W        W36632  18.125   1.479  13.843 -0.0995  0.3158  0.2150
18429W        W36633  12.259   8.130   3.018 -0.0897 -0.2523  0.2392
18430W        W36634   4.996  11.102   0.665 -0.0064 -0.0676 -0.1484
18431W        W36635  10.702   5.256   0.051 -0.4560  0.2522  0.0858
18432W        W36636   4.968   6.838  10.615 -0.0985 -0.2277 -0.0096
18433W        W36637   0.425  12.156  13.236 -0.0087 -0.1818  0.0792
18434W        W36638   4.771  14.801  12.141  0.2480  0.0153  0.0369
18435W        W36639  16.983  11.376   4.822 -0.4826 -0.0513  0.0068
18436W        W36640   0.458   3.618  12.818  0.4109  0.0150 -0.0685
18437W        W36641   5.312  14.565   1.858 -0.1905 -0.0590 -0.2271
18438W        W36642   3.068  11.220  12.815 -0.0294  0.1144  0.5197
18439W        W36643  12.231   4.395  11.535  0.1440  0.0478 -0.0435
18440W        W36644  11.712  15.596  13.749 -0.0335  0.0120 -0.0727
18441W        W36645   7.795  14.677   3.407  0.2609 -0.2051  0.3038
18442W        W36646   6.884   9.038  12.804  0.0369 -0.4395 -0.1622
18443W        W36647   0.349   9.768  13.264  0.1935 -0.0517 -0.6212
18444W        W36648  11.142  18.255  11.332 -0.1056  0.1964 -0.0540
18445W        W36649  18.050   0.938   0.463 -0.1975  0.2337 -0.2707
18446W        W36650   5.591  11.643  11.215 -0.0980 -0.0469  0.0135
18447W        W36651   1.997   2.075  14.994  0.3077  0.0402 -0.0135
18448W        W36652  15.367  11.446  12.429  0.0997  0.4069  0.1530
18449W        W36653  16.514  16.642  11.574  0.0571  0.0699  0.0957
18450W        W36654   3.619  17.796  10.756 -0.0200  0.0534 -0.0299
18451W        W36655   0.539  12.701  14.411  0.3153 -0.4731 -0.0714
18452W        W36656   6.552  11.084   3.790 -0.2072  0.1608 -0.0058
18453W        W36657   8.096   4.373   9.945 -0.0513 -0.2442  0.1955
18454W        W36658  12.657  12.724  12.120  0.1474 -0.2359 -0.0849
18455W        W36659   7.826   8.521  14.718  0.0677  0.5221 -0.0356
18456W        W36660  11.694   4.582  13.564  0.0457  0.0080 -0.2830
18457W        W36661   2.572  15.047  10.572 -0.0415  0.2099  0.0156
18458W        W36662  18.652   6.940  14.319  0.1142  0.2290  0.0528
18459W        W36663  10.093   8.862  10.485  0.0561  0.1478 -0.2311
18460W        W36664   0.382  14.156  11.824  0.1961 -0.1919 -0.0626
18461W        W36665  13.168  17.439  12.304  0.1171 -0.0515  0.1792
18462W        W36666  11.860   9.529   2.914 -0.1510  0.0590 -0.2350
18463W        W36667   3.317  10.763   4.022  0.0581 -0.0146 -0.1565
18464W        W36668   0.060  17.868  14.458  0.1403  0.0453  0.1736
18465W        W36669   2.207   9.231   1.446  0.2179  0.3322  0.1933
18466W        W36670   1.482  10.163  13.342  0.0953  0.2688  0.0456
18467W        W36671   7.373  16.556  12.191  0.0458 -0.1117  0.0762
18468W        W36672  12.688  18.280   3.474 -0.2414  0.2760  0.0813
18469W        W36673  10.339   1.042  12.699  0.3084  0.0844 -0.0037
18470W        W36674   7.297   6.039  12.776  0.0523 -0.1013  0.1372
18471W        W36675  12.718  13.968   3.635  0.2090  0.1167 -0.0855
18472W        W36676  13.429  18.294  10.384 -0.0553 -0.0425 -0.0775
18473W        W36677   6.008   5.913  10.739  0.0348 -0.1747 -0.0855
18474W        W36678   7.110   2.177   0.404 -0.0902 -0.2818 -0.0789
18475W        W36679  10.876   2.489  11.925 -0.0570 -0.1298  0.2926
18476W        W36680  16.340  12.178   4.973  0.0472  0.3923 -0.2522
18477W        W36681  11.954   8.561   0.792  0.1330 -0.1248  0.3485
18478W        W36682  13.089  16.948   3.502  0.1798 -0.0809 -0.1212
18479W        W36683  16.951   5.153  13.162 -0.0129  0.1765 -0.4451
18480W        W36684   5.712  15.679   0.619 -0.1324 -0.0405 -0.2370
18481W        W36685   7.621  12.152  11.270  0.0636 -0.1300 -0.3032
18482W        W36686  18.214   2.930   1.580  0.0146  0.1006 -0.4319
18483W        W36687   8.034   7.357   1.701 -0.0842  0.3170  0.5420
18484W        W36688  15.080  14.969  11.407  0.2851  0.0868 -0.0769
18485W        W36689   2.614  13.185  13.355 -0.4492 -0.2219  0.3238
18486W        W36690  15.918   0.850   4.035  0.0910 -0.3494  0.1143
18487W        W36691   7.109   5.609  13.038 -0.4250  0.2221 -0.2963
18488W        W36692   6.944   4.148  14.434  0.1736 -0.4821  0.0478
18489W        W36693   6.035  16.955  12.809  0.3386  0.1621 -0.0348
18490W        W36694   3.841   8.952   2.407  0.1457  0.2089 -0.1278
18491W        W36695   0.665  14.361   3.811 -0.1410 -0.4230  0.1503
18492W        W36696   9.812  13.102   3.412  0.0145 -0.0212 -0.0632
18493W        W36697   0.158  10.909  12.992  0.2911 -0.0706 -0.3790
18494W        W36698  15.032  14.417   2.129 -0.1713 -0.1162 -0.2974
18495W        W36699  14.521  10.148  11.481  0.0988 -0.2040  0.3282
18496W        W36700   9.489  17.525   4.280  0.2299 -0.1070  0.2432
18497W        W36701   8.198  16.622  14.058  0.0686 -0.2416 -0.0441
18498W        W36702   4.247   6.857   2.065  0.2336 -0.0926  0.2600
18499W        W36703   8.037  13.826   2.254  0.0258  0.0000  0.1532
18500W        W36704  15.590  10.278   0.085  0.1251  0.1579 -0.2130
18501W        W36705  12.686   2.239   3.497  0.3873  0.1120  0.0034
18502W        W36706  11.218   0.543   2.334  0.3501 -0.3748 -0.3646
18503W        W36707   9.776  14.860  11.231  0.0735 -0.0451  0.1815
18504W        W36708  16.367  11.496   0.770  0.1020 -0.0691 -0.0555
18505W        W36709   2.171   6.637  13.721  0.2167 -0.0687 -0.0060
18506W        W36710  18.546   0.471  13.727  0.0640 -0.1204  0.0512
18507W        W36711  14.695  10.208  10.997 -0.0405  0.1557 -0.2462
18508W        W36712  12.562  18.217  12.948 -0.0906 -0.2870 -0.1141
18509W        W36713  14.467  18.178   0.497  0.1908  0.1957  0.1333
18510W        W36714  12.235  13.670  12.362  0.0526  0.1008  0.1735
18511W        W36715  13.577  11.860  12.273 -0.4692 -0.2835 -0.0983
18512W        W36716  13.271  12.656  12.181 -0.1676  0.2246  0.0826
18513W        W36717  17.855   8.867  11.504 -0.3052 -0.1776 -0.1743
18514W        W36718   1.042  14.584  13.491 -0.2181  0.3602  0.3425
18515W        W36719  12.427   3.033  14.466  0.3673  0.3019 -0.1903
18516W        W36720   8.151   3.823  11.570 -0.4941 -0.0869 -0.0420
18517W        W36721  13.074  11.198   3.257  0.0527 -0.0739  0.2330
18518W        W36722  10.292   8.705   3.413  0.1047 -0.2041  0.1410
18519W        W36723   6.083  14.003   0.414  0.0786  0.0956 -0.4124
18520W        W36724   0.944  16.045   5.267  0.3428  0.0667  0.0392
18521W        W36725  10.476  11.108  14.043 -0.2888 -0.0930  0.0275
18522W        W36726   3.832  18.552  12.556  0.2021 -0.2229  0.0895
18523W        W36727   4.806   6.001  11.256 -0.2468  0.0086 -0.0283
18524W        W36728   4.486  11.749  11.296  0.0074 -0.2047  0.0200
18525W        W36729  14.120  14.225   2.732 -0.1901 -0.1003 -0.2803
18526W        W36730   3.695   3.833   3.841 -0.2316  0.0084  0.1167
18527W        W36731  18.534  13.359  13.614  0.3022  0.0529 -0.0410
18528W        W36732   0.315  17.137   1.352 -0.0068 -0.1202 -0.0592
18529W        W36733  15.214   0.489   3.581  0.2376  0.1420  0.2285
18530W        W36734  16.012  16.323   0.569  0.0999  0.1397 -0.2475
18531W        W36735   9.649   7.828  13.930 -0.1581 -0.1892  0.1077
18532W        W36736  12.058   0.765   3.962  0.0401  0.1349 -0.3125
18533W        W36737   9.483   1.011   3.435  0.0031  0.1877 -0.0598
18534W        W36738   7.440   4.185   4.528  0.1717 -0.0307 -0.2129
18535W        W36739   8.000   3.555  11.097  0.0433 -0.0690  0.0807
18536W        W36740  11.655   9.583   1.650  0.0394  0.0760 -0.1681
18537W        W36741  14.082   5.027   0.678  0.1330  0.0787  0.2052
18538W        W36742   8.990  15.423   1.758 -0.0984  0.1882 -0.2310
18539W        W36743  18.752  13.865  10.043 -0.3557  0.0734 -0.0452
18540W        W36744   9.973   0.269  10.044  0.1467 -0.0131 -0.1040
18541W        W36745  17.267  13.333   2.263 -0.1304 -0.4427  0.1405
18542W        W36746   7.748   3.251   3.288  0.0517  0.0842 -0.2911
18543W        W36747  16.883   7.304   2.562  0.1468 -0.0105  0.1021
18544W        W36748   5.912   0.946   0.316  0.3650  0.1408  0.2655
18545W        W36749   0.464   9.677   1.658  0.1209  0.1869  0.1496
18546W        W36750   7.398   0.645   1.529  0.1130  0.0750 -0.1718
18547W        W36751  16.437   1.967   0.829  0.0160 -0.0905 -0.1003
18548W        W36752   9.442   8.049   1.877  0.2150  0.1808 -0.0954
18549W        W36753  17.717  17.224  11.532  0.3170 -0.0891 -0.1547
18550W        W36754   2.994  15.267   1.813  0.4453 -0.1407  0.1669
18551W        W36755  11.888  15.032  14.555 -0.0458  0.2138  0.0707
18552W        W36756   4.902   5.714  14.495  0.1333  0.0717 -0.1377
18553W        W36757   2.523  18.502  13.971 -0.2058 -0.2084 -0.1900
18554W        W36758   8.881   9.693   2.299 -0.1585  0.3130 -0.1612
18555W        W36759  16.000   7.529   0.844  0.0156 -0.1292  0.1577
18556W        W36760  17.150  17.972   0.770 -0.0915  0.2605 -0.0726
18557W        W36761  11.490   6.302   3.245 -0.0440 -0.1591  0.2666
18558W        W36762   1.576  16.073  10.643 -0.1239  0.0266  0.1166
18559W        W36763   5.665  13.089  10.541  0.1009 -0.0645 -0.0138
18560W        W36764   7.865   5.340  12.280  0.4475 -0.1872 -0.2600
18561W        W36765   7.116  10.271  11.191  0.4174  0.2689 -0.0889
18562W        W36766  10.697   5.385  11.922 -0.0864 -0.0469  0.0908
18563W        W36767  11.052   0.777  12.148  0.1778 -0.3865  0.1338
18564W        W36768   7.387   3.551   3.590  0.0249  0.1584  0.0325
18565W        W36769   0.571   4.949   3.743 -0.0414  0.2416  0.0995
18566W        W36770  16.410  14.992  12.761  0.1275 -0.0254 -0.0677
18567W        W36771   2.810  10.094  12.483  0.1770 -0.0365 -0.0893
18568W        W36772   7.154  13.246  11.092 -0.1592  0.0027 -0.1453
18569W        W36773  13.780  11.146  12.742  0.1121 -0.4108  0.1444
18570W        W36774   6.584   3.556  14.106  0.1548 -0.0735 -0.0902
18571W        W36775   3.091   6.795   0.185 -0.1597  0.0460 -0.0882
18572W        W36776  12.194   2.860   0.054  0.0019  0.2363  0.2341
18573W        W36777  14.962  14.862  10.952 -0.0674 -0.1211  0.1643
18574W        W36778   3.285  13.617   2.864 -0.1094 -0.1434 -0.3005
18575W        W36779   7.631   4.360   3.334  0.3156  0.2349  0.2067
18576W        W36780   9.646   0.227   0.180 -0.1683  0.0511  0.0143
18577W        W36781   5.926  17.875   0.406  0.0638  0.1907 -0.2334
18578W        W36782  15.521  14.104  15.030 -0.0018 -0.0611  0.1841
18579W        W36783   4.962   0.110  13.156  0.0235 -0.1620 -0.3561
18580W        W36784   6.911   5.512   5.185 -0.1179 -0.0486  0.0754
18581W        W36785  10.426   5.799  13.054  0.0927 -0.0247 -0.0076
18582W        W36786  10.683   6.966   3.410  0.1663  0.1695  0.1804
18583W        W36787   9.651  13.440  10.510 -0.3019  0.2805 -0.1198
18584W        W36788  18.594   2.897   2.643 -0.0671 -0.2656  0.1370
18585W        W36789   4.873   1.037  11.630  0.0373  0.2486 -0.3360
18586W        W36790  12.555  16.524  10.836 -0.0162  0.0656 -0.2497
18587W        W36791  11.674  17.571  10.500  0.2929  0.2397  0.0479
18588W        W36792   9.654   9.575  14.258  0.0265 -0.0622  0.2265
18589W        W36793  15.166  18.329   3.143 -0.1019 -0.2271  0.1056
18590W        W36794   8.723  17.168   4.866  0.1351 -0.1297  0.1834
18591W        W36795  13.456  12.314  12.574  0.0525 -0.0567  0.1169
18592W        W36796   9.026   1.644  13.054  0.2793 -0.1208 -0.0674
18593W        W36797   1.875  12.361   9.676 -0.1587 -0.0940  0.0292
18594W        W36798  12.260   4.954   4.815  0.2958 -0.1301 -0.3733
18595W        W36799  13.459   7.698  11.223  0.1237 -0.0054  0.1431
18596W        W36800   1.337   0.927  11.922  0.0692 -0.2190  0.4197
18597W        W36801   1.673   8.925  14.274  0.1828  0.0531  0.2947
18598W        W36802  10.692   8.768   4.101 -0.0325 -0.0839  0.3041
18599W        W36803  12.783   8.241   0.410  0.1170  0.0324  0.2341
18600W        W36804  17.284  10.105   4.442  0.1107 -0.0299 -0.2462
18601W        W36805   9.300   1.932  10.669  0.3277  0.0484  0.2399
18602W        W36806   8.870  11.228  11.417  0.0341  0.0011  0.1676
18603W        W36807  18.072   6.672  11.807  0.0839  0.2814  0.2347
18604W        W36808   1.781   8.007   3.766  0.1083 -0.4137 -0.1956
18605W        W36809   2.813  13.021  11.517  0.0750  0.2991  0.0239
18606W        W36810  18.267   8.960   4.834 -0.2570 -0.1671  0.1778
18607W        W36811  14.756  12.135  13.967  0.3703 -0.0765 -0.0087
18608W        W36812  10.348   7.309   1.130 -0.1250 -0.0130  0.2484
18609W        W36813  12.905   8.789   3.317  0.0981 -0.0061  0.2354
18610W        W36814  10.047  10.306  11.071 -0.5137 -0.1319 -0.0755
18611W        W36815   4.697  18.439   1.739 -0.1700  0.1585 -0.1278
18612W        W36816  17.675  17.023   0.015  0.1492 -0.3159 -0.1711
18613W        W36817  15.764   5.873   3.104  0.0885  0.2316  0.5895
18614W        W36818  10.272   0.224  13.006 -0.1458  0.0293  0.0294
18615W        W36819  13.177   0.749  13.355 -0.1084  0.0341  0.3627
18616W        W36820  10.384   9.160   4.254  0.2764 -0.5464  0.2310
18617W        W36821   8.270   4.699   2.393  0.3111  0.0597 -0.0670
18618W        W36822   2.072   3.831  13.409  0.1655 -0.2919 -0.0670
18619W        W36823  18.489  10.137   2.504 -0.1047 -0.1289 -0.1552
18620W        W36824   2.647  15.691   3.305  0.0680  0.2546  0.3782
18621W        W36825   1.044   6.023   2.029  0.0601 -0.2414 -0.2188
18622W        W36826  18.001   1.689   0.034  0.0796 -0.2771 -0.2828
18623W        W36827  14.662   2.609  10.239  0.3573  0.1490  0.0702
18624W        W36828   7.219   0.521   3.173  0.0411 -0.1091 -0.0390
18625W        W36829   1.860   1.403  13.137 -0.0962  0.0528 -0.0693
18626W        W36830   2.870   4.534   3.642 -0.0021 -0.2447  0.2818
18627W        W36831   3.030   3.779   4.503 -0.1829 -0.3617 -0.2198
18628W        W36832  14.590  18.426   5.000  0.0786 -0.1209  0.2202
18629W        W36833   5.700   0.157  14.162  0.0842  0.0478 -0.2273
18630W        W36834  18.926  10.223  12.271 -0.1183 -0.0145 -0.0770
18631W        W36835  14.921   7.192  12.036  0.3678 -0.1608  0.1243
18632W        W36836  12.069   4.745  14.473  0.2146 -0.2944  0.4060
18633W        W36837  10.059   1.146  14.161  0.0062 -0.2944  0.2063
18634W        W36838   7.909   1.580   0.001  0.2206  0.0984 -0.3223
18635W        W36839  14.057  13.008   4.048  0.1876  0.2841 -0.5372
18636W        W36840   2.488   0.740   2.924  0.1259 -0.0864  0.0214
18637W        W36841  15.028  15.122   1.293 -0.2392 -0.3766  0.2600
18638W        W36842  16.931  15.135  12.602  0.0165  0.2223  0.0404
18639W        W36843   8.255   6.929   0.157  0.1006 -0.2647  0.0683
18640W        W36844   3.675   1.637   3.922  0.0056 -0.1320  0.2660
18641W        W36845   4.066  17.186  11.906 -0.1679  0.1312  0.4320
18642W        W36846  12.124  10.498  12.405  0.3006 -0.0127 -0.0286
18643W        W36847  11.207   5.275   9.806 -0.3574 -0.5412 -0.1581
18644W        W36848  17.237  11.186  11.185 -0.0336 -0.0608  0.1949
18645W        W36849  14.225   3.322  10.854 -0.1455 -0.2735  0.0531
18646W        W36850  16.600  12.244  13.826 -0.0464 -0.1238  0.1353
18647W        W36851   5.166   7.438   4.824 -0.1172 -0.0876 -0.1894
18648W        W36852  10.176  17.120  14.298  0.1397 -0.0906  0.0187
18649W        W36853   5.214  15.250  10.252 -0.4861  0.2106  0.1489
18650W        W36854   1.441  14.894   1.580 -0.0431 -0.0423  0.0794
18651W        W36855   4.063  14.620  12.715  0.0449 -0.0188  0.1901
18652W        W36856  14.910  10.911  14.306 -0.0931 -0.2474 -0.0550
18653W        W36857   6.732  10.345   2.012 -0.1170  0.1023 -0.1670
18654W        W36858   3.562  12.388   1.441  0.0577  0.0695  0.1615
18655W        W36859   8.154   8.627   2.762 -0.1241 -0.0687 -0.5036
18656W        W36860   6.367  17.916   2.458  0.0983 -0.1502  0.1892
18657W        W36861  11.972  18.528   4.979  0.1518 -0.0492  0.1093
18658W        W36862   0.376  14.628  13.012  0.3111  0.1037 -0.1196
18659W        W36863   1.039  10.001  13.746  0.0824 -0.1474 -0.1840
18660W        W36864   0.971   7.332   1.121 -0.3263  0.1239  0.0305
18661W        W36865   8.068  10.663   2.481  0.0351 -0.2469 -0.2192
18662W        W36866  15.218  14.303   1.692  0.2671 -0.1060 -0.0334
18663W        W36867   3.596  15.933   1.580 -0.0657  0.2055  0.1628
18664W        W36868   9.285  11.750  12.013 -0.5078 -0.0629  0.0768
18665W        W36869   4.063   9.927   2.345  0.2565 -0.3589 -0.0965
18666W        W36870   8.193   4.128  14.293 -0.1062  0.2607  0.0754
18667W        W36871  18.292   9.487   1.060  0.0716 -0.1332 -0.4695
18668W        W36872   6.072  18.484   0.061 -0.1255  0.0707 -0.0821
18669W        W36873   6.015  16.005   0.847  0.0065 -0.0204  0.0770
18670W        W36874   4.969  14.529   0.702 -0.1214  0.0682  0.2415
18671W        W36875   8.839   0.274  14.820  0.3060 -0.2199  0.2466
18672W        W36876  10.959   0.882   0.296 -0.0002  0.2389  0.1882
18673W        W36877   5.925   7.525  14.314  0.1052 -0.1634 -0.1292
18674W        W36878   2.753   0.164  11.181 -0.0901 -0.2638  0.3627
18675W        W36879   5.413   0.368  12.647  0.0322 -0.2178  0.0614
18676W        W36880   0.231  13.739  11.652  0.2802  0.2514  0.1042
18677W        W36881  12.652  17.359  12.497  0.2288  0.1978 -0.0255
18678W        W36882  11.684   3.545   3.601 -0.1105 -0.2322 -0.2601
18679W        W36883  15.109   1.302   4.054  0.1878  0.2128  0.1819
18680W        W36884  14.543  10.733   0.085 -0.1194  0.0013  0.1457
18681W        W36885  15.698   9.062  11.680  0.2669  0.1394 -0.1387
18682W        W36886   9.506   8.900   1.237  0.0665  0.1862 -0.1917
18683W        W36887  18.478   2.027   2.825 -0.0923 -0.0129  0.1120
18684W        W36888  18.712   5.359  12.918  0.0904 -0.2343  0.0236
18685W        W36889   0.826  12.232  10.788 -0.1813  0.1339 -0.1332
18686W        W36890  12.080  17.775   3.881 -0.3781  0.1894  0.0249
18687W        W36891  16.798  18.419  13.948 -0.0413 -0.2454 -0.3663
18688W        W36892   1.411  15.433   3.487  0.1689  0.2651 -0.1011
18689W        W36893  17.663  18.438  12.385  0.1121  0.0545 -0.0369
18690W        W36894  16.414   2.078  12.081 -0.2543 -0.1684 -0.2023
18691W        W36895  10.175   8.172  12.709  0.0708  0.1590  0.1051
18692W        W36896   0.424   3.193  13.556  0.2255  0.1454 -0.3228
18693W        W36897  13.406   4.412   0.948 -0.0686 -0.2257 -0.3057
18694W        W36898   4.146  17.163  14.941  0.1602  0.2076  0.2510
18695W        W36899   8.965  13.875   0.995  0.4156  0.0004 -0.4276
18696W        W36900  13.545   3.769  11.192 -0.0701 -0.1504 -0.1394
18697W        W36901  16.688   2.466   4.129  0.1141  0.2789 -0.2351
18698W        W36902  17.859   7.335   1.441  0.0404  0.0299  0.0560
18699W        W36903  13.198  17.232  14.132 -0.0732  0.0236 -0.1491
18700W        W36904   0.791  18.376  13.793  0.0594 -0.2586  0.4751
18701W        W36905  12.736  15.372   1.910 -0.0478  0.1070  0.1035
18702W        W36906  17.938  17.729   3.513  0.0068  0.0885  0.0202
18703W        W36907  16.683  15.248   0.472 -0.2315 -0.0434 -0.1789
18704W        W36908   2.741   4.014  13.142  0.2299 -0.0512 -0.1968
18705W        W36909   4.044  17.449  14.485 -0.0628  0.2446 -0.2127
18706W        W36910   0.182  16.609  14.868  0.0480  0.1918  0.1083
18707W        W36911   4.335   3.340   2.414 -0.0329 -0.0238 -0.2474
18708W        W36912   1.947  15.974   2.891  0.0265  0.2401  0.2723
18709W        W36913   3.095   4.359  14.178 -0.1760  0.1169 -0.0573
18710W        W36914   4.874   0.113  11.693 -0.0742 -0.1898  0.0671
18711W        W36915   6.473  15.996  14.185  0.2174 -0.0053 -0.2189
18712W        W36916  12.790   5.280  12.589  0.0282  0.1758  0.0815
18713W        W36917  14.965   3.791   2.849  0.0378  0.0880  0.1405
18714W        W36918  15.451   1.871  14.055  0.1882  0.0082  0.3979
18715W        W36919  11.993  18.703  12.254 -0.0217  0.1385 -0.2060
18716W        W36920  18.364   4.138   1.671 -0.2601 -0.1596  0.0243
18717W        W36921   6.748  17.785   3.126 -0.0043 -0.0363 -0.1762
18718W        W36922  17.841   9.569   0.505  0.0317 -0.2837 -0.0513
18719W        W36923   2.341   3.246   2.109  0.0527  0.0272  0.0289
18720W        W36924   7.554  16.381   0.917  0.2645 -0.0931  0.0676
18721W        W36925  13.686   3.761   1.225  0.0442 -0.2095  0.1170
18722W        W36926  18.151   2.801   2.078 -0.0555  0.0950 -0.1226
18723W        W36927  12.993   3.534   0.534  0.0093  0.0032  0.0721
18724W        W36928  10.338   6.319   0.901 -0.1783 -0.0089 -0.4197
18725W        W36929   7.730   6.039  10.888 -0.0130 -0.1434 -0.0749
18726W        W36930   9.177  10.574   0.437  0.2372  0.2620 -0.0465
18727W        W36931  13.987   2.256   3.032 -0.1509  0.1247  0.0347
18728W        W36932  12.959   1.849  13.590  0.0070 -0.2432  0.0566
18729W        W36933  16.044   6.285  13.646 -0.1825 -0.4689 -0.0687
18730W        W36934   4.143   8.448  12.974 -0.0784 -0.0815 -0.0213
18731W        W36935  14.539   8.324  11.738  0.1567 -0.4337  0.4392
18732W        W36936   2.923   3.635  11.633  0.2772  0.0374  0.3606
18733W        W36937   5.002  16.207   3.602 -0.1099 -0.2347  0.0120
18734W        W36938   6.713  16.927  14.530 -0.2779  0.0572 -0.2215
18735W        W36939   8.688  15.615   2.737 -0.3147  0.0822  0.0577
18736W        W36940   0.510   1.843   2.376  0.0819 -0.3204  0.1782
18737W        W36941  11.322  10.596  11.415 -0.1754 -0.0082 -0.2474
18738W        W36942   4.063  16.524  12.990 -0.0678 -0.2342  0.2057
18739W        W36943   6.612  14.480   3.949  0.1349 -0.0897 -0.3286
18740W        W36944  15.335  13.144   1.710  0.0526 -0.1935 -0.4311
18741W        W36945   1.155  11.536  10.512 -0.1444  0.0860  0.0659
18742W        W36946  17.808   8.239  14.995  0.0239  0.3537  0.2744
18743W        W36947   4.462   3.242  12.224  0.0701  0.2109 -0.1621
18744W        W36948  12.785  13.509  12.277  0.0815  0.1025 -0.2122
18745W        W36949  14.087  11.394   1.149  0.0048 -0.0024 -0.1664
18746W        W36950   3.583  10.025  13.048  0.1716 -0.3480 -0.3788
18747W        W36951  12.315   1.142   0.411  0.1680 -0.1941 -0.0569
18748W        W36952  13.067   5.190   1.674 -0.3709  0.3806  0.3727
18749W        W36953  14.644  18.857   3.206  0.0766 -0.2731  0.0337
18750W        W36954   2.149  10.178   0.135 -0.1255 -0.0816 -0.2211
18751W        W36955   6.034   8.774   4.000  0.0652  0.1827 -0.0970
18752W        W36956  12.312  14.739   1.461 -0.1235 -0.0094 -0.2547
18753W        W36957  18.477   6.579  11.296 -0.0759 -0.2018  0.1831
18754W        W36958   7.794  16.334  14.198  0.0966 -0.2396  0.2427
18755W        W36959   4.238   9.486  12.285 -0.1975 -0.1539 -0.0784
18756W        W36960   6.531   3.823   4.995 -0.0377  0.0092 -0.1779
18757W        W36961  11.157   5.612  12.661  0.0230 -0.1614 -0.0795
18758W        W36962   9.955   3.274  14.260  0.0576  0.3109 -0.1282
18759W        W36963   8.894   7.149  11.232 -0.0138 -0.1796  0.0275
18760W        W36964   3.315   9.588  14.763  0.0995  0.1367  0.0770
18761W        W36965   7.640   7.931  14.111 -0.2952  0.2261  0.2255
18762W        W36966  13.149   4.666   0.592  0.3302 -0.0609 -0.2854
18763W        W36967  12.502   2.981  11.215 -0.2606 -0.0667  0.1687
18764W        W36968   4.806  10.079   9.710  0.2899  0.0675  0.1486
18765W        W36969  16.100   8.917   9.632  0.2672  0.2918 -0.2156
18766W        W36970  14.359  13.956  13.015 -0.0631  0.1752  0.1448
18767W        W36971   2.460   9.142   1.027  0.1699  0.0726 -0.3984
18768W        W36972  16.267  17.950  10.343  0.0070 -0.0206 -0.2447
18769W        W36973   4.013   0.485  13.474 -0.2910  0.2362  0.0994
18770W        W36974  12.195   7.209   3.583  0.0986 -0.0412 -0.1868
18771W        W36975  17.896   7.121   1.896  0.2116  0.0941 -0.1930
18772W        W36976   4.394  14.380   4.465  0.2741 -0.1415 -0.1519
18773W        W36977  18.482  14.742  11.950 -0.2088 -0.2087 -0.1457
18774W        W36978   0.676  16.967   3.926 -0.2384 -0.0216  0.0785
18775W        W36979   0.307   4.847   2.559 -0.0868 -0.5800  0.0079
18776W        W36980  14.746   8.402   0.069  0.0171 -0.1024 -0.1287
18777W        W36981   8.159  13.159  11.069  0.0984 -0.1800 -0.0814
18778W        W36982  15.332   2.688   0.330 -0.0701 -0.2528 -0.0874
18779W        W36983   7.851  10.239  12.937 -0.1145 -0.0682 -0.1221
18780W        W36984  10.351  11.232  13.514 -0.1303  0.1895 -0.0835
18781W        W36985   9.983  16.938   1.449  0.3490  0.1878 -0.1782
18782W        W36986   3.319   4.287   4.546  0.3118 -0.1207  0.0774
18783W        W36987  18.324  10.740  10.221  0.1299  0.1588  0.3867
18784W        W36988   8.850   4.983  13.209  0.0821  0.1388  0.1384
18785W        W36989  17.281  13.321   3.892  0.0480 -0.0132  0.1380
18786W        W36990   3.427  14.729  10.374  0.1609 -0.1193  0.1333
18787W        W36991   6.380  17.007   3.440  0.1109 -0.0802 -0.3714
18788W        W36992  13.284  13.972  12.750 -0.0264  0.1538  0.1279
18789W        W36993  15.998   2.353   1.045  0.4489 -0.1461 -0.0354
18790W        W36994   9.143  13.556  10.338 -0.4054 -0.1594 -0.0203
18791W        W36995   9.544  11.035   9.889  0.0659  0.0618 -0.3063
18792W        W36996  11.114  17.706  10.418  0.1500 -0.0927 -0.1657
18793W        W36997  12.232   7.488  11.102  0.1019 -0.0666  0.0032
18794W        W36998   7.213  14.553  10.264 -0.2875  0.1626  0.2310
18795W        W36999  18.716  17.669   3.331 -0.1440 -0.1349  0.1516
18796W        W37000   3.215   1.482   1.712 -0.3584  0.4860 -0.2369
18797W        W37001   8.750  12.464   2.739 -0.0209  0.1497  0.0615
18798W        W37002   9.823   0.565  10.774  0.2218 -0.1376 -0.2284
18799W        W37003  11.663  16.484   3.641  0.2246  0.1685  0.0211
18800W        W37004   6.437   5.148  11.372 -0.0782 -0.1126  0.1491
18801W        W37005   4.889   2.883   1.587  0.3782  0.0494 -0.0807
18802W        W37006  14.254  14.872   1.912  0.1810 -0.0889  0.0166
18803W        W37007  18.631  10.171   1.142 -0.1699 -0.0755 -0.1916
18804W        W37008   6.318   4.651  12.194 -0.0615  0.0928  0.3223
18805W        W37009   2.681  12.506   3.839  0.0516 -0.3530 -0.1424
18806W        W37010   5.597  12.883  13.329  0.1177  0.0626  0.0787
18807W        W37011  16.888   6.890  10.313  0.0591  0.2126  0.1384
18808W        W37012  15.492  15.869  11.400  0.0017  0.1546  0.2482
18809W        W37013  15.770  14.348   1.736  0.2347  0.0114 -0.1725
18810W        W37014  11.376   0.359  12.052 -0.0362 -0.3126  0.0868
18811W        W37015  17.335  12.872  11.508 -0.3261  0.1768 -0.3267
18812W        W37016   3.501   2.068   2.406  0.1823  0.1600  0.1980
18813W        W37017   9.906   5.320  12.241 -0.2012  0.0309 -0.0273
18814W        W37018   0.347   0.786   2.520 -0.0669 -0.1193 -0.1776
18815W        W37019   0.384   0.615   1.258  0.1386 -0.1193 -0.3537
18816W        W37020   9.574  10.439  11.830  0.2330 -0.1023 -0.1392
18817W        W37021  10.450  17.513   9.815  0.0225  0.0927  0.0897
18818W        W37022   7.429  15.176  11.991  0.2112 -0.2605  0.1548
18819W        W37023  13.614  10.096   4.175  0.2646  0.1403  0.0645
18820W        W37024  13.771   8.009   1.485 -0.1020 -0.1292  0.3380
18821W        W37025   5.407   3.416  13.109 -0.3244 -0.1750  0.1072
18822W        W37026   4.002  15.742   1.790 -0.1662 -0.1215  0.0465
18823W        W37027  17.307   7.464  12.492 -0.2182  0.1956 -0.2072
18824W        W37028  18.944   1.208  14.829 -0.1760 -0.0058 -0.2083
18825W        W37029  12.483  10.035  11.795  0.3168 -0.1771 -0.1825
18826W        W37030   7.845   3.341   4.649 -0.2285  0.0061  0.1289
18827W        W37031   3.836  13.083   2.329 -0.3947 -0.3168 -0.2846
18828W        W37032   9.098  14.883   4.923 -0.1598 -0.3149 -0.2921
18829W        W37033   3.000   7.112  13.910  0.1121  0.3649  0.0581
18830W        W37034  17.107   9.354   1.560 -0.0228 -0.1240 -0.2181
18831W        W37035   0.705   4.269   2.649 -0.0169  0.1797  0.3225
18832W        W37036  12.587   6.484   1.531 -0.1393  0.3463  0.1614
18833W        W37037   3.807  11.966  13.728  0.2259  0.0752  0.3218
18834W        W37038   1.409   4.371  13.759 -0.1066  0.0328 -0.1273
18835W        W37039  10.280   7.922   4.397 -0.0379 -0.0387 -0.0630
18836W        W37040   8.238  18.803   1.714  0.0833 -0.1303  0.4461
18837W        W37041  13.877  13.866   2.363  0.1208 -0.3099  0.0054
18838W        W37042   4.003  15.924   3.702 -0.0063 -0.0026  0.0187
18839W        W37043  12.096  13.748   0.858  0.0131 -0.1162  0.0077
18840W        W37044   3.227   2.703   1.371  0.0544  0.0380  0.1072
18841W        W37045  16.429   5.888   3.446 -0.1162 -0.2341 -0.1892
18842W        W37046   3.018   2.807  12.250 -0.2171 -0.3433  0.0657
18843W        W37047   4.125  12.014   4.048 -0.1231  0.2304  0.2580
18844W        W37048   3.695   5.880  11.870 -0.3681  0.0002  0.2685
18845W        W37049  17.556   2.029  13.689 -0.0954  0.1064 -0.2571
18846W        W37050   0.122   4.779  13.332  0.1310 -0.2807  0.1031
18847W        W37051   1.729   6.972   0.733  0.1155 -0.3466 -0.2529
18848W        W37052   9.573   8.922   3.890 -0.2113 -0.3933  0.2095
18849W        W37053  18.318   6.756   2.935 -0.1408  0.1988  0.0923
18850W        W37054   3.231   3.834   2.479 -0.1243 -0.0527  0.0887
18851W        W37055  17.492  14.074   3.598  0.3181 -0.0445 -0.1827
18852W        W37056  10.667   1.472   3.282  0.0254 -0.0526 -0.0320
18853W        W37057  17.088   2.288   9.797  0.0553 -0.0719 -0.0564
18854W        W37058   3.216  17.576   1.320  0.2043  0.0358 -0.4149
18855W        W37059  16.452   5.236   1.379 -0.1134 -0.2054  0.1629
18856W        W37060  11.382   3.120   1.343 -0.1196 -0.0739  0.2336
18857W        W37061   8.881   4.929   3.707 -0.3112 -0.1804  0.1679
18858W        W37062  10.791   0.509   9.765  0.0685  0.0804 -0.0713
18859W        W37063   6.810  16.182  12.606  0.5180 -0.0843 -0.1635
18860W        W37064   0.986  12.055  11.731  0.0776 -0.2168 -0.2351
18861W        W37065   7.940   7.279  13.282  0.2831 -0.3927  0.1553
18862W        W37066  13.987  10.266   3.361 -0.0170  0.1048 -0.0811
18863W        W37067   8.910  10.477   4.580 -0.2072 -0.0888  0.0040
18864W        W37068  11.116   3.212  11.354 -0.0654 -0.0701 -0.2764
18865W        W37069  16.279   0.366   1.069  0.0533  0.2576 -0.0389
18866W        W37070   6.086   4.475  14.438 -0.2622  0.0241 -0.1786
18867W        W37071   9.875   3.051  12.195 -0.4077  0.4020  0.3970
18868W        W37072  18.440   8.811  12.390 -0.0494  0.1271 -0.0068
18869W        W37073  13.100  18.796   2.253  0.0908 -0.1315 -0.0604
18870W        W37074   7.132   5.397  10.858  0.3364 -0.0600 -0.1351
18871W        W37075  18.606   5.623  13.426 -0.0780  0.0680  0.1932
18872W        W37076   3.826   6.031  14.425  0.0568 -0.0640  0.0872
18873W        W37077  16.212   1.156  12.128 -0.1373 -0.3220  0.0380
18874W        W37078   1.225   5.042   3.706  0.0120 -0.2403 -0.1943
18875W        W37079  16.577  16.747   2.249  0.2015  0.1648  0.1840
18876W        W37080  10.285  13.252   0.595  0.3790 -0.1732  0.2577
18877W        W37081   5.392  11.512   4.416 -0.0132  0.2261  0.1102
18878W        W37082   4.891   0.551   1.812  0.1086 -0.0199 -0.0379
18879W        W37083   5.283   8.161  10.674 -0.0285  0.0297  0.0726
18880W        W37084  17.023  17.240  12.802 -0.1486 -0.0429  0.0869
18881W        W37085  16.152   6.768   2.912  0.1765  0.1523 -0.2270
18882W        W37086  10.248   7.471  13.930 -0.2662  0.2146  0.2834
18883W        W37087   7.448  10.969   0.321 -0.0224 -0.1563 -0.1901
18884W        W37088  18.309   8.485  11.427  0.0129  0.0913 -0.1423
18885W        W37089  13.161  11.687  11.922  0.0841 -0.1929 -0.2023
18886W        W37090   0.420   3.895   3.500  0.1341 -0.0157 -0.1910
18887W        W37091   8.745   7.944  10.493  0.0189  0.0612  0.0259
18888W        W37092   4.407  14.340   3.692  0.1551  0.3080 -0.3446
18889W        W37093  15.035   1.843  11.250  0.1514  0.4032  0.0278
18890W        W37094  10.388   0.236   0.559  0.1350 -0.2561  0.1334
18891W        W37095  17.946  15.051  13.628 -0.0176  0.1143 -0.1830
18892W        W37096  15.214   2.843   3.869 -0.2841 -0.2230 -0.2366
18893W        W37097  13.157   1.692  11.743 -0.2762 -0.1059 -0.0048
18894W        W37098  12.692   7.851  14.351 -0.0665 -0.0774 -0.0016
18895W        W37099  16.320   1.429  10.541 -0.2889  0.1001 -0.0481
18896W        W37100   0.161   3.477  11.160 -0.0020 -0.0115  0.2898
18897W        W37101   5.188  16.471   0.590  0.2367 -0.3039  0.0815
18898W        W37102   2.263  11.768  11.563 -0.2232  0.1255  0.0393
18899W        W37103   9.837  16.450   2.268  0.0889  0.3173 -0.3678
18900W        W37104  14.986   9.607  12.599  0.1178  0.2674  0.2656
18901W        W37105   4.874  12.734   0.376  0.0781  0.0089 -0.0765
18902W        W37106  17.610  14.630  13.443 -0.0597 -0.1723  0.0958
18903W        W37107  17.180   0.128  10.618  0.2950 -0.1014  0.0513
18904W        W37108  16.301   7.272   0.522 -0.1530 -0.0469 -0.0853
18905W        W37109   0.790  12.365  14.689 -0.1053  0.0080 -0.2567
18906W        W37110  14.881   7.307  13.647  0.1048 -0.0278 -0.0888
18907W        W37111   6.416  16.165  10.993 -0.2594 -0.1507  0.0470
18908W        W37112  17.550  12.924   0.088  0.1868  0.0509 -0.0481
18909W        W37113   1.047   5.247  13.600  0.2494  0.1426  0.1641
18910W        W37114   2.370  12.330   9.445  0.0772 -0.0653  0.0442
18911W        W37115   5.620  18.326   0.380 -0.2408  0.1577  0.3393
18912W        W37116   6.190   2.374  10.617 -0.1612 -0.1961 -0.1341
18913W        W37117   2.165  10.912  11.357  0.2818 -0.1022 -0.0577
18914W        W37118  17.097   6.484   2.857  0.0020  0.1556  0.0487
18915W        W37119  11.510  16.129  12.853  0.2189  0.2437 -0.0258
18916W        W37120   4.657  12.566   1.272  0.2288  0.2569  0.0465
18917W        W37121   2.359   2.028  13.989  0.2370  0.0320  0.0363
18918W        W37122  14.813   5.309   4.112  0.1082  0.2066 -0.2474
18919W        W37123   9.453  11.224   2.319 -0.0452  0.6274  0.1731
18920W        W37124  12.192   8.926  13.049 -0.2922 -0.0722 -0.0299
18921W        W37125   4.027  17.521  14.008 -0.1326  0.0287 -0.2835
18922W        W37126   9.529   4.342  13.687 -0.0774 -0.2373 -0.2038
18923W        W37127   0.960   2.265  11.999  0.2009 -0.1615  0.1305
18924W        W37128  12.491   3.351  10.421  0.1441 -0.1711 -0.3577
18925W        W37129   4.632   6.279   2.585 -0.1941 -0.2935 -0.0346
18926W        W37130   8.254   6.005  10.888  0.0878  0.1031 -0.0826
18927W        W37131   2.955   2.391  14.454 -0.3044  0.0948  0.1569
18928W        W37132   4.834  18.299  13.650 -0.4203  0.1336 -0.0494
18929W        W37133  14.907  13.438   0.109 -0.2184  0.0434  0.2492
18930W        W37134   0.627   2.412   2.184  0.0903 -0.2388  0.0877
18931W        W37135   6.790  17.292   1.796 -0.1906 -0.0880  0.0474
18932W        W37136   4.885  15.030   0.804 -0.1606  0.1972  0.0018
18933W        W37137   9.898   4.612  14.803  0.0388 -0.0490 -0.0810
18934W        W37138   7.923  11.644  10.878 -0.2233  0.2662 -0.1691
18935W        W37139   3.556   1.179  11.167  0.3093 -0.1801  0.0540
18936W        W37140   5.590  17.395  11.834 -0.1186  0.1494 -0.0769
18937W        W37141   0.877   4.063   1.269  0.1722  0.1308  0.1581
18938W        W37142   0.159   4.962  12.374 -0.0472 -0.0425 -0.1426
18939W        W37143   1.936   0.547  12.221 -0.3479  0.2683  0.1710
18940W        W37144   3.063   2.736  11.750  0.0875  0.0323  0.0203
18941W        W37145  16.439  13.709  10.499  0.0922 -0.0942 -0.1244
18942W        W37146   9.207   8.937   3.511  0.1321  0.3044 -0.3220
18943W        W37147  10.805   8.408   4.711 -0.1992  0.3730 -0.0972
18944W        W37148  17.815   3.510  10.946  0.2548  0.0398  0.1310
18945W        W37149   2.525   3.611   2.424 -0.2761 -0.2599 -0.4283
18946W        W37150  17.921   9.385   4.724 -0.1416 -0.4302 -0.0883
18947W        W37151   8.915   7.358   1.128 -0.1319  0.0102 -0.1121
18948W        W37152   2.668   9.001  11.335 -0.0126  0.0236  0.1000
18949W        W37153   6.414  11.928   1.968  0.2167 -0.0047 -0.0255
18950W        W37154  16.758  16.130  10.701  0.1150  0.0939  0.0381
18951W        W37155   3.685   9.430   1.649  0.1996  0.0995 -0.0437
18952W        W37156   5.255   9.648  13.924 -0.1047  0.1933 -0.1030
18953W        W37157   2.977  11.926  11.090 -0.1541  0.0611 -0.1503
18954W        W37158  16.363  10.302  14.952 -0.0970  0.0850  0.1433
18955W        W37159  17.520   4.068  13.889  0.1860  0.1294 -0.1163
18956W        W37160  11.146  11.105  11.476 -0.2643  0.0423 -0.0866
18957W        W37161  11.269   6.086   1.011 -0.1731  0.0382 -0.0912
18958W        W37162  15.774  10.403   2.316  0.1326 -0.2624 -0.0565
18959W        W37163  11.307   0.188  14.366  0.1360 -0.2001 -0.0214
18960W        W37164  17.477   7.674   9.882  0.1035 -0.3008 -0.0021
18961W        W37165   4.390   5.774  14.368 -0.0938  0.1761  0.0595
18962W        W37166   9.418   2.401  14.138  0.1818  0.0469  0.0539
18963W        W37167  17.546  10.014   2.071 -0.0179  0.2279  0.1896
18964W        W37168  12.596   4.271   0.406  0.1336  0.0891 -0.3971
18965W        W37169  12.358   9.544   1.718 -0.0073  0.2583 -0.1011
18966W        W37170   4.938   2.114   2.132  0.1725 -0.0879 -0.1286
18967W        W37171  13.008   4.941   3.157  0.0797  0.0868  0.2752
18968W        W37172  18.499  17.330   3.940  0.1799  0.1064 -0.2525
18969W        W37173   1.822   5.510   4.442  0.0585 -0.4366 -0.1352
18970W        W37174  17.789   4.526   1.267 -0.0246 -0.2427  0.0096
18971W        W37175  18.140   8.572  13.029 -0.1651  0.0453  0.2763
18972W        W37176   9.485   0.519   3.615 -0.2619  0.1592 -0.1547
18973W        W37177  13.709   9.687   4.490 -0.0679  0.1642 -0.1352
18974W        W37178   6.609   3.998  13.788 -0.1861 -0.1083 -0.1083
18975W        W37179  14.085   3.899  14.547  0.2538 -0.3084  0.0750
18976W        W37180  18.566   0.140  15.021 -0.1318  0.2149 -0.0133
18977W        W37181   3.597  10.413   4.306  0.4479 -0.0749 -0.0366
18978W        W37182   3.219  11.632   0.143  0.0555  0.1263 -0.1265
18979W        W37183   9.975   0.582   0.634 -0.1740  0.1933 -0.2526
18980W        W37184  12.349  13.895  12.805  0.1202 -0.0976 -0.1275
18981W        W37185  14.117   1.701   4.870  0.0428 -0.0486 -0.0528
18982W        W37186   6.116   0.372   4.976  0.2447 -0.1395 -0.0045
18983W        W37187  11.956   3.880   4.099 -0.0158  0.0274  0.3375
18984W        W37188   0.753   2.525   3.500  0.2896  0.4167  0.0186
18985W        W37189   3.007   7.260   0.361 -0.1603 -0.2969 -0.2063
18986W        W37190  12.849   4.884   4.859  0.0024 -0.0442  0.6562
18987W        W37191  15.531  12.883   5.503  0.0789 -0.2611 -0.1286
18988W        W37192   9.409  15.474   1.155  0.0645  0.1659 -0.0527
18989W        W37193   4.500   0.803  14.523  0.2145  0.0147 -0.3032
18990W        W37194  13.860  17.986  10.129 -0.1069  0.0624 -0.2645
18991W        W37195   9.906  13.105  12.531  0.3422  0.0007  0.1287
18992W        W37196   0.675   5.295  14.509  0.4898 -0.3747 -0.0757
18993W        W37197   2.125   2.272  11.329 -0.0602 -0.1248 -0.3435
18994W        W37198  12.025   8.772  11.442  0.3832  0.0090  0.2303
18995W        W37199  15.855  17.033   1.616 -0.0670  0.2936  0.0721
18996W        W37200   6.626   4.925  13.281 -0.1403  0.1948 -0.2704
18997W        W37201  14.268  14.447   3.135  0.0526 -0.3639  0.0905
18998W        W37202  11.905  12.924   0.198 -0.0895  0.0138  0.1013
18999W        W37203   7.619  17.568  14.712 -0.0816  0.0415  0.0156
19000W        W37204   5.080  18.595   3.829  0.0622 -0.0635 -0.3365
19001W        W37205  14.562  12.070  14.801  0.0000 -0.2322 -0.1916
19002W        W37206  14.229   2.958  11.649 -0.1746 -0.1327 -0.0862
19003W        W37207  15.454   1.824   3.893  0.1686 -0.1287  0.0206
19004W        W37208   9.122  11.598  12.443  0.2918 -0.0553 -0.3255
19005W        W37209  12.332   4.683   1.177  0.3839  0.2960 -0.4219
19006W        W37210  16.926   9.859  13.676  0.0536 -0.0100 -0.2384
19007W        W37211   4.602   6.041   0.518 -0.0978  0.2638  0.0453
19008W        W37212  18.199  13.427   3.659  0.2864  0.2189  0.1862
19009W        W37213  17.215   4.522   0.462  0.0856 -0.0993 -0.2833
19010W        W37214  14.356   1.552  13.230  0.1313 -0.3558 -0.2207
19011W        W37215   4.167  11.029   0.719  0.0980 -0.0111  0.0461
19012W        W37216  11.236   7.760   4.424  0.2488  0.1923  0.0012
19013W        W37217   3.496  18.131   2.315  0.1017  0.2191  0.0395
19014W        W37218   6.280  16.380  12.557 -0.2185  0.0204  0.0951
19015W        W37219   8.186   1.289   3.194  0.0684  0.0705 -0.0933
19016W        W37220   6.482  17.345   0.980 -0.1879  0.0778  0.0869
19017W        W37221   4.884   1.264   1.882  0.1069  0.0239  0.0752
19018W        W37222   1.888  17.239   0.476 -0.0675 -0.1643 -0.3151
19019W        W37223   2.287  11.858   1.254 -0.0587 -0.1868  0.1376
19020W        W37224  10.006   2.965   1.280  0.2736 -0.3703 -0.0384
19021W        W37225   7.582   4.895   1.047  0.4408 -0.0341 -0.0073
19022W        W37226  11.620  16.040  11.573  0.1553  0.0849 -0.1981
19023W        W37227   1.365  14.837  11.435  0.0290  0.0630 -0.0736
19024W        W37228   2.105   3.424  12.658 -0.2153 -0.1551  0.2015
19025W        W37229   7.166   3.856   2.040  0.0534  0.0760  0.3813
19026W        W37230  14.622  14.955   1.534 -0.1391 -0.2614  0.1630
19027W        W37231   9.669   8.802   4.396  0.1296 -0.0497  0.2500
19028W        W37232   5.888   1.130  12.918  0.1811 -0.1457  0.1071
19029W        W37233  11.361   2.687  12.099 -0.1931  0.0144  0.3142
19030W        W37234   7.938   9.730   2.705  0.0211  0.0237  0.2227
19031W        W37235   5.556   2.433   3.218  0.1500 -0.2847 -0.1931
19032W        W37236   1.484  10.739  13.188 -0.0621 -0.0467 -0.1041
19033W        W37237  11.028  18.093  13.920  0.4661  0.1095 -0.3171
19034W        W37238  10.926  14.417  11.508  0.4862  0.0015  0.2011
19035W        W37239   7.341   6.754  13.498  0.2106 -0.0402 -0.0340
19036W        W37240  14.527   1.948   0.841 -0.0179 -0.2170  0.0721
19037W        W37241  11.617   6.406  14.863  0.1028 -0.0816  0.3068
19038W        W37242  17.585   4.326   2.833 -0.1180 -0.2277  0.0520
19039W        W37243  10.417  16.738   1.484  0.2986  0.2611  0.0156
19040W        W37244   1.618   8.144   5.234 -0.1048 -0.3882 -0.1549
19041W        W37245  12.049   1.127   1.438 -0.0116 -0.2064 -0.0248
19042W        W37246   1.756  17.823   1.229 -0.0323 -0.1187 -0.4117
19043W        W37247  11.117   3.035   2.283 -0.1597  0.0059  0.0502
19044W        W37248  12.192  14.102   3.732  0.1142  0.1331  0.2415
19045W        W37249  10.295   3.162  11.014 -0.0377 -0.3256  0.3974
19046W        W37250   1.995  18.371   4.650 -0.0327 -0.3281 -0.2346
19047W        W37251  17.589  17.098   1.114 -0.1409 -0.4475 -0.2867
19048W        W37252   7.785  12.887  12.844 -0.0471  0.1096 -0.1648
19049W        W37253   8.116  10.520  14.178 -0.1114  0.0245 -0.0677
19050W        W37254  14.017  13.084  10.320  0.0003 -0.1320  0.0525
19051W        W37255   4.697  14.156  14.219 -0.1813  0.2366 -0.2482
19052W        W37256  11.090  10.251   0.324  0.0166  0.0646 -0.1487
19053W        W37257   8.212   1.052  11.158 -0.2629 -0.0867 -0.0612
19054W        W37258  10.194   2.327   0.737 -0.1247 -0.3224  0.2526
19055W        W37259  11.851   7.613   5.605 -0.2162  0.1408  0.0773
19056W        W37260   0.898  14.746   4.152  0.1053  0.1630 -0.0763
19057W        W37261   8.104  12.594   2.328 -0.3075  0.1005  0.0501
19058W        W37262  16.679  12.068  11.035 -0.0745  0.2272 -0.1025
19059W        W37263   5.756   2.659  13.584 -0.4190 -0.1663 -0.0565
19060W        W37264  17.870  13.059  10.930 -0.3633  0.1414  0.3376
19061W        W37265  15.876   9.271   1.993  0.0828  0.2353  0.0518
19062W        W37266  11.475  18.564   0.427  0.0799  0.1957 -0.0538
19063W        W37267   7.631  12.814  14.296 -0.0240  0.1134 -0.1955
19064W        W37268   6.518   2.122   4.672  0.1617 -0.1494 -0.2778
19065W        W37269   4.021  13.383  10.707 -0.0341 -0.1590 -0.0365
19066W        W37270   0.197   2.219  11.488 -0.0177  0.3055  0.0476
19067W        W37271  11.474  11.941  13.892  0.0383  0.1637 -0.2443
19068W        W37272   0.195   9.970  11.397 -0.0409 -0.1036 -0.0059
19069W        W37273   7.518   8.746   4.437  0.0552 -0.1389 -0.1068
19070W        W37274  17.593   0.383  12.856  0.1089 -0.1919 -0.0465
19071W        W37275   8.683   4.883  12.270 -0.0870 -0.0324  0.0540
19072W        W37276   6.326   3.683  12.068  0.0358 -0.1502  0.0164
19073W        W37277  12.502  14.126   0.743  0.1168  0.2789 -0.0670
19074W        W37278   8.405   0.171  12.796  0.1998 -0.1974  0.2849
19075W        W37279  17.677   1.498   0.447 -0.1311 -0.0503  0.2196
19076W        W37280  15.430  17.010  12.227 -0.1115 -0.0133  0.2217
19077W        W37281  12.790  13.009  14.868 -0.1985 -0.1270  0.0277
19078W        W37282  15.338   1.595  13.696 -0.1359 -0.1544 -0.2356
19079W        W37283   6.975   3.477   3.308  0.0188 -0.2499 -0.2097
19080W        W37284   3.085   0.312   9.210  0.4906  0.2668 -0.5304
19081W        W37285  14.015  15.565   3.085 -0.0787  0.0619  0.2345
19082W        W37286  18.412   4.736  14.523 -0.2286 -0.2107 -0.2074
19083W        W37287   1.975   6.471   2.443  0.2078  0.0108 -0.0310
19084W        W37288   9.376   4.005  14.084  0.0117  0.1925  0.0410
19085W        W37289   1.352   2.459  11.690  0.0576 -0.1747  0.1894
19086W        W37290  11.302  14.025   1.231  0.2754  0.2870  0.5337
19087W        W37291   4.049  10.106  10.639 -0.0811  0.1208  0.2618
19088W        W37292   6.372  12.911  12.165  0.2080 -0.2131  0.2174
19089W        W37293   5.536   6.428  12.066  0.0132 -0.1413 -0.0690
19090W        W37294  10.407   4.435  10.326  0.0702 -0.1832  0.1042
19091W        W37295  10.958   3.994   2.404  0.1526 -0.2397  0.0488
19092W        W37296  18.106   5.788  13.602 -0.2281 -0.1264  0.1142
19093W        W37297  11.365  12.824  10.261  0.1121 -0.0858  0.1269
19094W        W37298  14.467   9.485  10.649  0.0413  0.0409 -0.0880
19095W        W37299   2.411  14.581  10.512 -0.4310 -0.2798  0.0830
19096W        W37300   5.850  17.115   0.879 -0.1050 -0.1504 -0.0775
19097W        W37301  13.088   5.350   4.625 -0.0458 -0.2050 -0.0510
19098W        W37302   6.009  11.369   2.664  0.0488 -0.1820 -0.0397
19099W        W37303  16.306  17.056   1.394  0.0333  0.1226 -0.0440
19100W        W37304   4.229  14.237  11.721  0.0978  0.0122 -0.0117
19101W        W37305  17.959   9.422   9.887 -0.0272  0.0270  0.0347
19102W        W37306  15.045   4.624  13.200  0.0231  0.2507  0.1747
19103W        W37307   3.125   7.312   0.954 -0.2749 -0.2953 -0.0275
19104W        W37308   2.694  12.450  10.350 -0.4108  0.1956 -0.2148
19105W        W37309   6.483  14.851   2.124 -0.1050  0.0034 -0.1231
19106W        W37310   1.834  10.357   2.122  0.2841 -0.0020  0.4647
19107W        W37311   4.855   5.681   3.195 -0.3067 -0.0054 -0.3429
19108W        W37312  13.061  18.458   3.175  0.1490 -0.3670  0.2248
19109W        W37313   8.274   7.998   0.515  0.2306 -0.1446 -0.4927
19110W        W37314  13.915  11.787  14.348  0.0147 -0.2960  0.0076
19111W        W37315  11.673   4.655   3.691 -0.1605 -0.1842 -0.3025
19112W        W37316  14.562  16.990  13.682  0.4712  0.2067 -0.1194
19113W        W37317  14.207   5.907   3.627  0.1201 -0.1875 -0.1481
19114W        W37318   0.674  10.497  13.550  0.0203 -0.0750  0.1009
19115W        W37319  14.953  10.324   4.583  0.0764 -0.0090  0.0856
19116W        W37320   5.750   6.320  11.289 -0.3632 -0.2716  0.2072
19117W        W37321   4.489  16.019   3.840 -0.1820 -0.4919  0.2433
19118W        W37322  15.266  15.120   3.439  0.2529 -0.2849 -0.2141
19119W        W37323  10.379   6.293  12.519  0.1517 -0.2726  0.1013
19120W        W37324   3.430  12.319   4.362  0.1362 -0.0278 -0.1041
19121W        W37325   4.279  18.481   0.241  0.0348  0.0663 -0.0165
19122W        W37326  12.159   8.630   2.649  0.0025  0.2562 -0.4380
19123W        W37327   1.616   2.056   3.013 -0.0533 -0.3989 -0.1359
19124W        W37328   6.885  12.146  14.344 -0.1772  0.2858  0.3527
19125W        W37329   3.762   1.353  14.736 -0.2910  0.1694  0.0797
19126W        W37330  10.413  10.019  14.505  0.0745 -0.1625 -0.1772
19127W        W37331  14.884   3.290   4.536  0.0272  0.0259  0.0517
19128W        W37332  17.013  13.612  12.786 -0.1954  0.0531 -0.0122
19129W        W37333  17.468   5.359   3.587  0.0909  0.0119  0.2546
19130W        W37334  17.720  10.613   3.407  0.0306  0.3359 -0.2085
19131W        W37335  10.529  12.697  14.985 -0.4375 -0.1687  0.0194
19132W        W37336  18.235  11.770  10.449  0.1798 -0.3804 -0.1302
19133W        W37337   2.857   0.240   1.950 -0.0594  0.0198 -0.1519
19134W        W37338  14.650  11.770   2.896 -0.2661  0.1433  0.2439
19135W        W37339  18.765  16.289  13.658  0.1535 -0.2582 -0.2108
19136W        W37340   3.141   3.585  10.824  0.0301 -0.3754  0.4888
19137W        W37341  12.551  14.314   1.492 -0.0876 -0.1298  0.1166
19138W        W37342   0.500   2.891   9.633 -0.0712 -0.0708  0.1736
19139W        W37343   2.668   3.395   4.396  0.2467 -0.1548  0.0217
19140W        W37344   7.355   1.198   5.446 -0.2423 -0.0115 -0.1669
19141W        W37345   9.732   4.113   1.479 -0.1545 -0.1119  0.0791
19142W        W37346  10.579  17.312   1.479  0.4492  0.0669 -0.1214
19143W        W37347  18.909   2.172   1.588 -0.4117 -0.2887  0.0668
19144W        W37348  17.261  17.903   3.074 -0.2307 -0.0273 -0.2169
19145W        W37349   8.451  13.849  13.871  0.1927  0.2646 -0.0757
19146W        W37350  12.452  13.369  13.646  0.3610  0.1868  0.4962
19147W        W37351   4.696  16.256  13.705 -0.2853 -0.2016 -0.1461
19148W        W37352   5.281   7.103  13.131 -0.0816  0.0128  0.0031
19149W        W37353   1.923  15.671   2.482 -0.0322  0.0695 -0.1047
19150W        W37354   1.419  16.392  12.521 -0.2074  0.0520  0.0791
19151W        W37355  15.517   4.564  11.322 -0.0887 -0.0905 -0.2135
19152W        W37356   0.493  10.047   2.654  0.0025 -0.0199  0.1460
19153W        W37357   0.689  11.618  12.239 -0.2255  0.0778  0.0539
19154W        W37358   1.560  15.181   5.318 -0.1219  0.0839  0.3501
19155W        W37359   8.901   4.221  11.160  0.0485 -0.0660  0.1798
19156W        W37360  16.395   0.299  11.660 -0.0991 -0.1337 -0.1679
19157W        W37361  13.192  11.952   3.762  0.0329 -0.1252  0.4200
19158W        W37362  14.037   3.355   1.039 -0.3188 -0.1255 -0.5170
19159W        W37363   2.306  10.988   1.498  0.0118 -0.1524  0.0810
19160W        W37364   8.506   7.357   1.901  0.1269 -0.0709  0.0734
19161W        W37365   6.938   6.968   3.700  0.0895 -0.1231 -0.0052
19162W        W37366  10.314   7.166  13.450 -0.0826  0.1608 -0.3130
19163W        W37367  11.575  13.318   0.426 -0.1184 -0.0154  0.0364
19164W        W37368   9.136   2.893  10.955 -0.3167  0.3451 -0.0414
19165W        W37369   8.582   0.708   3.752 -0.3642 -0.2803  0.3386
19166W        W37370  16.155   5.673  11.520 -0.2826 -0.2053 -0.0923
19167W        W37371   2.197  18.208  12.472  0.2640  0.1350 -0.1170
19168W        W37372   7.294  13.081   3.444  0.2966 -0.2292  0.0799
19169W        W37373  18.881   1.483  11.494 -0.0911  0.1163 -0.1817
19170W        W37374  18.449   9.694  12.937  0.1091  0.1424 -0.1939
19171W        W37375   7.200  16.439   3.050  0.1765  0.0193  0.2259
19172W        W37376  12.081  16.087  11.377  0.3064  0.0655 -0.2342
19173W        W37377   4.669   8.267  13.091  0.3678 -0.0575  0.0880
19174W        W37378  14.485  14.676   2.714  0.0368  0.1908 -0.4131
19175W        W37379   8.406  10.961   3.656  0.0967 -0.1875 -0.2369
19176W        W37380  14.085  13.494   4.262  0.1059  0.2864  0.2598
19177W        W37381  12.492   0.868   4.350  0.1335 -0.2542 -0.4588
19178W        W37382  17.110   9.645  11.056  0.0451 -0.0628 -0.1223
19179W        W37383  13.139   9.099  10.589 -0.0830 -0.1457 -0.1974
19180W        W37384  15.808   6.453  11.355 -0.1117 -0.0671  0.2080
19181W        W37385  15.677  15.698   1.207  0.2624  0.1489  0.1385
19182W        W37386  10.649   0.326  13.352  0.0422  0.0443  0.1883
19183W        W37387   5.164  11.428  15.024  0.0801  0.0894  0.1062
19184W        W37388  13.578   7.385  14.079 -0.1540 -0.1726  0.2221
19185W        W37389  18.545   2.493   1.656  0.1182  0.1439  0.2438
19186W        W37390   7.021  11.369  11.132  0.2031 -0.2466  0.0300
19187W        W37391   4.886   3.522   3.474 -0.3704 -0.1215  0.2093
19188W        W37392   6.174   8.980  12.475 -0.1996 -0.1855 -0.1478
19189W        W37393   5.687  10.824  10.810  0.1609  0.4350 -0.1287
19190W        W37394  10.303  12.285  12.615  0.3841  0.1100 -0.0634
19191W        W37395   0.871  18.463   1.426  0.3020  0.2831 -0.0554
19192W        W37396   8.482  17.362  14.111 -0.2238 -0.1566  0.2136
19193W        W37397  12.930  13.795  13.627 -0.2604  0.1857  0.0218
19194W        W37398   0.457   3.233  14.041 -0.0330  0.2110  0.1198
19195W        W37399  10.817   9.080  12.563 -0.0715 -0.1092  0.1471
19196W        W37400   0.029   4.915   3.510  0.4344 -0.1474 -0.0276
19197W        W37401   1.045   1.469   1.422  0.4677  0.2707  0.1186
19198W        W37402  11.367  12.753   1.580 -0.2184 -0.0013  0.1143
19199W        W37403  15.273   7.898  14.297  0.0896  0.1089 -0.0025
19200W        W37404  14.696  13.681  14.736  0.2162  0.1233  0.1436
19201W        W37405  17.851  15.815   2.480  0.2120 -0.0243  0.0327
19202W        W37406   5.649   4.441   2.812  0.1358  0.1175 -0.0286
19203W        W37407  10.073  10.952  14.248  0.0874  0.4753 -0.0962
19204W        W37408   2.137  17.766  14.339  0.1062  0.1479  0.1300
19205W        W37409   5.987   8.553   2.423  0.0222  0.0040  0.1897
19206W        W37410   7.183  14.755   2.321  0.1928  0.1528  0.0805
19207W        W37411   5.337  14.213   0.563 -0.2701  0.0215 -0.4164
19208W        W37412  13.227  10.619  11.671 -0.2033 -0.2705  0.1391
19209W        W37413  15.605   1.184   2.584 -0.1618  0.1286 -0.0635
19210W        W37414  11.326   4.366   0.640  0.0200  0.0458 -0.2179
19211W        W37415  16.907   2.307  15.032 -0.2507  0.0300 -0.3726
19212W        W37416  18.796   2.078  13.239  0.0337 -0.1491 -0.1800
19213W        W37417  12.319   6.571   4.272  0.1144  0.1702 -0.0487
19214W        W37418   6.056   2.896  12.670  0.3330  0.1582  0.0492
19215W        W37419   4.686   7.810   2.010  0.0208 -0.2040  0.2730
19216W        W37420   8.964  18.017   3.484  0.0939 -0.1425 -0.1045
19217W        W37421  18.852   7.775   1.159 -0.0666  0.2494  0.2275
19218W        W37422  15.005  12.356  10.653 -0.1427 -0.0913  0.1379
19219W        W37423  11.109   9.095  11.831  0.1186  0.1951  0.0343
19220W        W37424  18.680   2.209   2.056 -0.0626  0.3423 -0.0559
19221W        W37425   8.940   4.990   0.671  0.1813 -0.1930 -0.0048
19222W        W37426   4.241  11.376  12.528 -0.0308 -0.0239  0.2981
19223W        W37427  17.976   3.264   3.496 -0.0390 -0.0718  0.5346
19224W        W37428   8.016  15.012   0.752  0.1696  0.2335  0.0709
19225W        W37429  18.495   1.661   0.939 -0.1734 -0.0018  0.4186
19226W        W37430   3.785   8.428  14.382  0.1209 -0.0231  0.0359
19227W        W37431   3.925   1.255   5.363  0.0181 -0.0400 -0.1494
19228W        W37432   9.102   0.102   3.976  0.1720  0.0285 -0.0269
19229W        W37433   4.713   4.673  10.849 -0.0667  0.1670 -0.0572
19230W        W37434   3.024  13.127  12.434 -0.0888 -0.2433  0.1898
19231W        W37435   9.000  14.685   1.634  0.0018  0.0602  0.0229
19232W        W37436   6.960   2.540   2.363 -0.0476 -0.0669  0.0632
19233W        W37437  14.429   9.541  14.058  0.2787 -0.2480  0.1003
19234W        W37438   5.259   9.327  10.360 -0.0873 -0.0652  0.1652
19235W        W37439   1.563   3.674  11.076  0.2950 -0.1215  0.1878
19236W        W37440   4.549   3.115   1.952 -0.0330 -0.0740  0.0572
19237W        W37441   8.433  11.216  10.903  0.2114 -0.1681 -0.1186
19238W        W37442  18.497   6.105   0.804 -0.0199  0.2384 -0.4727
19239W        W37443  18.378   3.990   2.951 -0.0555  0.2868 -0.0109
19240W        W37444   2.220   3.292   2.601  0.0607  0.0954  0.0810
19241W        W37445   9.650  17.576   3.782  0.3436  0.0982 -0.0205
19242W        W37446   9.635  15.785   4.510 -0.2114 -0.2018 -0.1097
19243W        W37447  16.848  16.126  11.806 -0.0667 -0.2239 -0.3031
19244W        W37448   8.008  11.352  14.117  0.3368 -0.0416 -0.0091
19245W        W37449   4.694   5.131  14.703  0.1259 -0.0768 -0.1454
19246W        W37450   5.001  15.881  13.478  0.1195  0.0125 -0.2516
19247W        W37451   7.671   8.354   3.116  0.0897 -0.2629 -0.0975
19248W        W37452   5.363   0.732  13.501 -0.1856  0.1626  0.0181
19249W        W37453  16.355   8.957  12.835 -0.0348  0.2834 -0.1124
19250W        W37454  16.833  12.719  11.265  0.0283 -0.0250 -0.1858
19251W        W37455   4.088  16.111   2.560  0.2386  0.0844 -0.2941
19252W        W37456   9.898  10.872   4.126 -0.0092 -0.0930  0.1882
19253W        W37457  12.885   6.464   1.923 -0.0929  0.1896  0.2880
19254W        W37458  11.365   8.827   1.722  0.0437 -0.0458  0.1284
19255W        W37459   1.748  11.997   4.474 -0.0481  0.0470 -0.2812
19256W        W37460   5.222   2.288   0.346  0.2829 -0.2189 -0.1334
19257W        W37461   8.675   1.415   3.590 -0.3081 -0.0390  0.0913
19258W        W37462  11.609   9.623  12.315  0.4987 -0.1504 -0.0711
19259W        W37463  12.384  13.354   0.663 -0.2856 -0.1464  0.0441
19260W        W37464  18.711  11.482   3.199 -0.0340  0.1876 -0.1190
19261W        W37465   9.452   1.860  12.305  0.0491 -0.3459  0.0929
19262W        W37466  16.084  13.298   0.011  0.1994 -0.1797  0.0563
19263W        W37467   9.067  11.778  14.769 -0.3184  0.0216 -0.0923
19264W        W37468   6.543   9.230   5.130  0.2329 -0.0296  0.1723
19265W        W37469  10.614   9.084  12.065  0.3776  0.2095 -0.1515
19266W        W37470   2.145   1.507   2.350  0.2964  0.3818 -0.0420
19267W        W37471   3.153   0.122  13.811  0.0168 -0.5104  0.0960
19268W        W37472   2.153   3.177  10.696  0.4345 -0.2548 -0.1386
19269W        W37473   7.671   9.355  12.163  0.1206 -0.0068  0.2122
19270W        W37474  11.922  16.383   4.467  0.4307  0.0479  0.0827
19271W        W37475  16.887   6.980  14.495 -0.2749  0.2201 -0.0746
19272W        W37476   4.763   4.653  12.487 -0.2832 -0.1295  0.0035
19273W        W37477   2.598   3.630  11.235 -0.1679  0.1713 -0.3765
19274W        W37478   7.141   3.159  12.136  0.1702  0.1450  0.3126
19275W        W37479   9.061  17.168  14.039 -0.0343 -0.0820 -0.0257
19276W        W37480  11.992   8.876   0.081  0.1058 -0.0142 -0.1955
19277W        W37481   5.745  18.305   0.908  0.2950 -0.1132 -0.0824
19278W        W37482   9.584  16.601  12.290  0.3989  0.0889  0.4239
19279W        W37483  14.893  11.042   3.823  0.3047  0.1193 -0.0768
19280W        W37484  15.314  13.126   0.369 -0.1071 -0.0804 -0.3502
19281W        W37485  16.846   2.623  10.885 -0.1123  0.0168 -0.1642
19282W        W37486   7.208  13.586   0.749 -0.3632 -0.1651 -0.0155
19283W        W37487  15.478  12.740  11.644 -0.1073  0.0295 -0.0878
19284W        W37488  13.060  16.481   3.198  0.1103  0.1188  0.1058
19285W        W37489   8.258   6.494   4.345 -0.1149 -0.3039  0.0179
19286W        W37490  15.371  18.238  11.376  0.0864 -0.0394  0.1195
19287W        W37491   9.075  13.736  14.955 -0.2810  0.1321  0.0959
19288W        W37492   1.596   7.244   4.137 -0.2468  0.1870  0.1962
19289W        W37493   5.920   2.625   1.061 -0.0263 -0.1794  0.0517
19290W        W37494  10.708   4.902  11.930 -0.0244  0.2235 -0.1408
19291W        W37495  13.294   0.753   1.053 -0.2037  0.1203  0.1423
19292W        W37496   2.710  12.421  12.275 -0.0607 -0.1602 -0.1300
19293W        W37497   7.400  17.253  11.695  0.0087 -0.1953 -0.0357
19294W        W37498   6.059  12.621   3.625 -0.0426  0.1690  0.4047
19295W        W37499   8.615  10.175  12.385  0.0822 -0.5102  0.1695
19296W        W37500   6.780   9.740   1.562 -0.2586  0.2798  0.0611
19297W        W37501   5.365   5.558  14.075  0.0161  0.0115 -0.0097
19298W        W37502   0.159   3.388   2.742  0.2892 -0.1176  0.0153
19299W        W37503  13.356  16.840   2.897  0.1636  0.0863 -0.1589
19300W        W37504   9.877   8.264  14.411 -0.0553 -0.1646 -0.1555
19301W        W37505   3.931   7.478   0.277  0.1592 -0.0116 -0.3478
19302W        W37506   1.639  15.349   4.345 -0.0416  0.0800  0.1852
19303W        W37507  17.419  16.895   3.167 -0.0508  0.5165 -0.0584
19304W        W37508   1.391   5.849  10.811  0.1935 -0.0269  0.0231
19305W        W37509   4.032  15.280  12.120 -0.1283 -0.0600  0.0006
19306W        W37510   8.215   7.417  12.133 -0.0883  0.1483  0.3225
19307W        W37511  10.591   2.373   1.699  0.0846  0.1527  0.0326
19308W        W37512   0.265  16.874   1.825  0.1135  0.2535  0.3108
19309W        W37513  10.826   3.228   1.361 -0.2017  0.0977  0.0100
19310W        W37514  16.493   2.864   2.883  0.2984  0.2952  0.0660
19311W        W37515   2.545   5.940   1.413 -0.0214  0.2646  0.2814
19312W        W37516   9.546  10.209   2.713  0.0286 -0.1732  0.0712
19313W        W37517   7.385   2.926   1.969 -0.3689  0.2442 -0.1436
19314W        W37518   3.712  16.465   0.422  0.1718  0.0090  0.0511
19315W        W37519   1.364   4.465  14.280 -0.1124  0.0353  0.0693
19316W        W37520  15.936   4.236  14.312  0.2352 -0.0517  0.0908
19317W        W37521   2.714   9.653   1.955  0.0073 -0.0069  0.0884
19318W        W37522  14.963  10.846   2.753  0.1822 -0.1223  0.3497
19319W        W37523   2.986  17.507   3.096  0.1223  0.0895 -0.1867
19320W        W37524   0.223  10.745  13.571  0.2136  0.1054  0.1199
19321W        W37525   2.650   6.462  13.081  0.0854  0.1620 -0.1373
19322W        W37526  10.755  13.374  12.907  0.0174  0.0115 -0.2481
19323W        W37527   4.618  13.400  12.289 -0.2829 -0.0253  0.1334
19324W        W37528   3.847  15.696   0.078 -0.1072  0.2715 -0.0618
19325W        W37529   7.823   9.594  13.790 -0.2441  0.2151 -0.0540
19326W        W37530   0.655   4.910   0.269  0.2724  0.1065  0.4339
19327W        W37531  17.364   7.232   4.976 -0.4773 -0.1705  0.1479
19328W        W37532   9.720   2.882   3.574 -0.0716  0.0002 -0.2495
19329W        W37533  13.517  14.453   2.795 -0.2917  0.1343  0.1059
19330W        W37534   4.140   9.014  11.636  0.3213  0.2447  0.2162
19331W        W37535  12.722   9.496  13.583  0.0223 -0.0769  0.0783
19332W        W37536   6.951  15.482   4.305 -0.0147  0.3058 -0.1914
19333W        W37537  13.959   8.672  12.608  0.0929  0.2929  0.0560
19334W        W37538  17.349   4.872   1.041 -0.1698  0.2942 -0.0842
19335W        W37539   4.792   8.433   2.897  0.4199 -0.0836  0.0732
19336W        W37540   6.097  11.290   3.732 -0.4000 -0.1281  0.0110
19337W        W37541  12.724   8.243  12.103 -0.1903 -0.2269 -0.2689
19338W        W37542   9.663   6.394   3.056 -0.0424 -0.2510 -0.1174
19339W        W37543  14.381  17.680  12.649  0.2351 -0.1885 -0.1237
19340W        W37544  15.902   3.662  14.246  0.0321 -0.1528  0.3778
19341W        W37545   2.573   0.693   0.680 -0.3042  0.1781  0.0118
19342W        W37546   5.455  12.112   1.733 -0.5047  0.1461  0.1319
19343W        W37547   4.554  11.457  14.985 -0.0990 -0.3368  0.0825
19344W        W37548  18.106   2.694   3.345 -0.1110  0.1654  0.1338
19345W        W37549   2.881   6.094   0.469  0.0407 -0.0894  0.3111
19346W        W37550  10.209   4.495   2.188  0.1512  0.4543 -0.3368
19347W        W37551  10.171  11.827   0.430 -0.0465  0.0857  0.1432
19348W        W37552   2.573  18.329   1.968  0.4095 -0.0450 -0.0636
19349W        W37553   0.883   6.912   3.793 -0.0559 -0.0056 -0.1495
19350W        W37554   1.353   3.794   1.369  0.2156 -0.1731 -0.2845
19351W        W37555  13.935   3.338  11.426 -0.0412 -0.1038  0.1159
19352W        W37556   7.319  12.539  13.898 -0.1661 -0.1975  0.0264
19353W        W37557  11.858  11.240  12.523  0.1332 -0.0368 -0.0501
19354W        W37558   8.334  12.223  13.218  0.2236  0.1189 -0.0059
19355W        W37559  13.650   4.440   9.973  0.0851  0.1825  0.2287
19356W        W37560   6.559   6.620   4.997 -0.0083  0.3089 -0.0375
19357W        W37561  11.246   8.643   3.901  0.0452 -0.1604  0.1402
19358W        W37562  17.458   0.412  13.753  0.0369  0.2403  0.1904
19359W        W37563   0.120  17.521  11.851 -0.1407 -0.1239 -0.1866
19360W        W37564  15.284   9.002   1.631 -0.1624 -0.1635 -0.0537
19361W        W37565  16.197   3.515   1.074 -0.2148  0.0612  0.3024
19362W        W37566  18.038  13.948  12.051 -0.3457 -0.2286 -0.1600
19363W        W37567   1.854   1.599   0.022  0.2119  0.0964  0.0284
19364W        W37568  10.434  18.077   5.205 -0.3324  0.1383  0.0111
19365W        W37569  16.030  13.602   3.122  0.0103 -0.0275 -0.3167
19366W        W37570  11.224   8.757   1.219 -0.0191 -0.1728  0.0518
19367W        W37571   9.868   3.459   1.602 -0.0840  0.1072  0.1521
19368W        W37572   7.431   3.935   3.898  0.0642  0.2625  0.2050
19369W        W37573   6.292  10.066   0.107  0.0939 -0.3078 -0.0553
19370W        W37574   5.267   3.262   5.402 -0.0204  0.0378  0.1354
19371W        W37575   6.546   0.837   2.177  0.0363  0.3201  0.1520
19372W        W37576  16.446   9.063   0.922  0.2640 -0.0170  0.2001
19373W        W37577  12.120   9.122   1.851  0.0477  0.2093 -0.0091
19374W        W37578   2.192   7.563  13.049 -0.0391 -0.0031  0.0357
19375W        W37579  12.519   7.511  13.018 -0.1186 -0.0451 -0.0795
19376W        W37580  10.345   8.314   2.894  0.4344 -0.1436  0.0898
19377W        W37581  15.729   4.494   1.612 -0.4076  0.0875  0.1724
19378W        W37582  13.871   4.786   9.630  0.0319  0.2188  0.1480
19379W        W37583  10.581  14.353   3.457  0.2228  0.3834  0.1938
19380W        W37584   5.821   2.436  12.766 -0.0302 -0.0242 -0.2092
19381W        W37585  16.404   0.464  14.945  0.0096 -0.0270 -0.0231
19382W        W37586  17.080   8.955   4.305 -0.1012  0.0206  0.2026
19383W        W37587   1.203  15.260  11.799  0.2790  0.0903  0.2161
19384W        W37588  18.884  13.514   4.177  0.1575 -0.0560 -0.3145
19385W        W37589   9.741  14.393   2.442 -0.0369 -0.0116 -0.1185
19386W        W37590   3.139  12.109   1.887  0.0824  0.1297  0.1714
19387W        W37591   6.178  11.290   1.212 -0.2178 -0.0292  0.2046
19388W        W37592  17.442   2.597  12.203  0.1877  0.0532 -0.0786
19389W        W37593  16.765  15.841  11.147  0.1205 -0.2089  0.3146
19390W        W37594   4.650   2.667  13.477  0.0976 -0.0148 -0.2470
19391W        W37595   0.731   6.568  11.096  0.2469 -0.1596 -0.4873
19392W        W37596   8.573  16.336   5.424  0.0118 -0.1243 -0.4546
19393W        W37597   3.733  18.415  14.448  0.1045 -0.1794 -0.0356
19394W        W37598   9.110  13.629  11.769  0.1686 -0.3380 -0.1692
19395W        W37599  15.016   3.356   3.077  0.1004  0.0755  0.2963
19396W        W37600   3.171   4.021   0.089 -0.0596  0.2433 -0.3439
19397W        W37601  12.028  10.240   2.537  0.2606 -0.1883  0.3983
19398W        W37602  11.912   3.113   3.703  0.2958 -0.0423  0.0700
19399W        W37603   4.822  12.821  13.766 -0.0090  0.3598 -0.0544
19400W        W37604  14.389   6.499  12.313  0.1866  0.1444 -0.0805
19401W        W37605  10.764  16.936   2.762  0.2143 -0.1595  0.0248
19402W        W37606   5.699  18.600   2.460 -0.1878 -0.0006 -0.0015
19403W        W37607   3.781   8.489   3.749 -0.0115 -0.1526  0.0908
19404W        W37608  11.019   8.412   2.488  0.0313 -0.0553  0.1029
19405W        W37609  14.151   2.260   0.790 -0.0344  0.0381  0.0241
19406W        W37610   3.317   4.216  13.772  0.0908  0.0220  0.0580
19407W        W37611  18.945  17.999   0.351  0.2770  0.1039  0.0564
19408W        W37612   7.471  17.245   4.258 -0.2318 -0.1945 -0.0332
19409W        W37613  16.385   7.673  12.391  0.0021  0.0923 -0.0122
19410W        W37614   3.374   5.970  12.992  0.1712  0.1522  0.1302
19411W        W37615  18.029  12.236   4.294  0.1905  0.0615 -0.2654
19412W        W37616   4.096   2.206   4.254 -0.3176  0.5194  0.2653
19413W        W37617   7.023  16.071   2.720 -0.2592  0.1314 -0.1998
19414W        W37618   8.968  12.879  12.429 -0.0095 -0.1316  0.2337
19415W        W37619   6.743   7.175   3.246  0.2154 -0.1168 -0.0514
19416W        W37620   6.481   4.150  10.947  0.1608  0.1554 -0.4915
19417W        W37621  10.898   8.686  12.229 -0.1559 -0.0389 -0.2332
19418W        W37622  14.122   6.644   2.455  0.2262 -0.0492  0.1600
19419W        W37623   5.359  11.195  11.116 -0.0423  0.1463 -0.2808
19420W        W37624   3.525  12.783   4.580 -0.0190  0.0880  0.1006
19421W        W37625  13.997  14.476  12.835  0.1748 -0.0505 -0.2846
19422W        W37626  12.882  11.824  11.299  0.0096 -0.3636  0.0041
19423W        W37627  18.610  11.226  11.470  0.1179  0.0002  0.2284
19424W        W37628   2.129   8.903  13.314  0.0497 -0.0489 -0.2474
19425W        W37629  11.669  17.671   0.719 -0.2538  0.2473  0.0627
19426W        W37630   0.332   6.985   0.138  0.0094 -0.1513 -0.1545
19427W        W37631   8.182  15.176  14.924 -0.1466  0.0076  0.0237
19428W        W37632  16.755   3.766  11.386 -0.1224 -0.1911 -0.2578
19429W        W37633   0.026   1.750  11.106  0.2675  0.1212 -0.0086
19430W        W37634   9.098   4.368  14.023 -0.1197 -0.1305  0.2348
19431W        W37635   2.351  17.037   0.552  0.1810 -0.1978  0.4151
19432W        W37636   0.219   5.333  11.244 -0.1470 -0.1095 -0.2132
19433W        W37637  18.204  10.213   4.921 -0.1627 -0.2122 -0.1098
19434W        W37638   9.679   6.034  11.280  0.2245  0.1830 -0.1021
19435W        W37639   6.837  12.425  14.865  0.0109 -0.1010 -0.1886
19436W        W37640   2.505  13.879   1.038  0.5658 -0.2853 -0.3436
19437W        W37641  11.515  18.761  14.608 -0.3944 -0.4769  0.5010
19438W        W37642  13.906   6.494   2.978  0.2125 -0.2090 -0.0197
19439W        W37643   1.809   8.524   1.058 -0.0840 -0.1738 -0.2147
19440W        W37644   5.828  13.677  13.695  0.1034  0.1647 -0.2652
19441W        W37645  12.399   4.072  13.351  0.1175  0.0672  0.1263
19442W        W37646   7.460   8.531  11.222  0.2547  0.0574 -0.1962
19443W        W37647   6.373  18.720   2.951  0.1443  0.1520  0.2835
19444W        W37648   2.234   4.343  13.888  0.0748  0.1150 -0.1227
19445W        W37649   7.300   5.550   0.644  0.0632  0.1606 -0.1937
19446W        W37650   6.511  12.508   4.682  0.1949 -0.4150  0.1086
19447W        W37651  17.804  16.475  13.649  0.1457  0.0057  0.2229
19448W        W37652  12.070   1.984   0.979  0.0110  0.0730  0.2469
19449W        W37653   8.617   2.780   3.715 -0.0030 -0.0932  0.2497
19450W        W37654   3.171  12.971  13.533  0.0279  0.1678  0.0670
19451W        W37655   6.502   4.141  11.903 -0.0487  0.0133  0.1332
19452W        W37656  12.106   9.839  11.088  0.4243 -0.3760 -0.1348
19453W        W37657  11.410  18.239  14.343 -0.0996 -0.1599  0.1502
19454W        W37658   8.070   6.258   1.429  0.1229 -0.1436 -0.1407
19455W        W37659   4.557  10.066   3.747 -0.0274 -0.0499  0.3044
19456W        W37660  12.552  17.505   0.733 -0.2500 -0.1191  0.4032
19457W        W37661   5.238   1.919  11.646  0.3284 -0.0937 -0.0080
19458W        W37662   8.187  16.349   9.837  0.2823  0.1783  0.0717
19459W        W37663  16.800   7.244   0.435 -0.0173  0.1241  0.3156
19460W        W37664   5.348   9.281   4.434 -0.3283 -0.1423  0.0014
19461W        W37665   0.728   9.396  13.558 -0.0811 -0.3375  0.0180
19462W        W37666   5.021  17.384   0.188  0.4058 -0.0496  0.0362
19463W        W37667   2.090  13.163  10.766 -0.0273 -0.1600 -0.0786
19464W        W37668   6.729   1.405  12.721  0.1845  0.0161  0.0049
19465W        W37669  12.388  15.698  11.507 -0.1727  0.0027  0.0013
19466W        W37670   2.766   2.556  14.975 -0.2472  0.3135  0.2609
19467W        W37671  12.099   3.697   1.592  0.0766  0.0909 -0.2990
19468W        W37672   1.417  10.734   3.108 -0.0050 -0.0432  0.1436
19469W        W37673   9.774  10.156  10.716  0.2312  0.2030  0.2659
19470W        W37674   6.906   8.916  12.292 -0.3517 -0.1324  0.0621
19471W        W37675  18.926  12.253   2.768 -0.2133 -0.1181  0.0763
19472W        W37676  14.658   4.894   2.364  0.0320 -0.2867  0.1108
19473W        W37677   5.427  15.549  10.617 -0.2546  0.0652 -0.2045
19474W        W37678  11.540   3.429  11.634  0.2540  0.0312 -0.1444
19475W        W37679   2.567  17.062  11.215  0.2478 -0.3366  0.1476
19476W        W37680   9.257  16.960  11.166  0.2466 -0.0401  0.1121
19477W        W37681   4.105   2.874  14.976 -0.0727 -0.1628 -0.4111
19478W        W37682  14.973   4.164   9.384 -0.1740 -0.0196 -0.1495
19479W        W37683   6.501   0.566  11.406  0.1412  0.3231 -0.2411
19480W        W37684  17.558  13.711   2.549  0.4884  0.2967  0.2183
19481W        W37685  11.343   8.213  13.497 -0.4239 -0.2695  0.1874
19482W        W37686  15.826   6.793  10.955 -0.0400 -0.0126 -0.5810
19483W        W37687  12.899   4.469  12.102 -0.1713  0.0308 -0.3933
19484W        W37688   9.372   5.468   1.397 -0.0611 -0.0125  0.1107
19485W        W37689  17.726  11.062   0.122 -0.1259  0.0499  0.1150
19486W        W37690  13.187   8.431   2.181 -0.1409 -0.4026 -0.1053
19487W        W37691  17.344  11.927   0.980  0.1026  0.2311 -0.1518
19488W        W37692  16.921  17.246  11.932  0.1204 -0.0071  0.0173
19489W        W37693   9.427  10.017  12.138  0.1923 -0.0201 -0.2450
19490W        W37694  16.150   4.248  12.871 -0.2723 -0.0392 -0.2907
19491W        W37695   4.452  16.317   2.823  0.2196  0.0012 -0.1213
19492W        W37696  10.741   8.769   3.562  0.1777  0.1653 -0.3225
19493W        W37697   7.365   3.152   4.606 -0.0678 -0.0165  0.0396
19494W        W37698   8.348  11.351   1.763 -0.1452 -0.2243 -0.0275
19495W        W37699   1.312   8.990   0.824  0.0927 -0.1342 -0.5212
19496W        W37700  10.946  10.877  12.359  0.3214  0.0141  0.1376
19497W        W37701  16.102   1.040  13.554  0.0124  0.1224 -0.1806
19498W        W37702  11.595   9.558  11.331 -0.2141  0.0939  0.1322
19499W        W37703  17.898   0.568  12.023  0.0121 -0.0964 -0.1371
19500W        W37704   2.534  11.707  11.094  0.1700  0.2436 -0.2808
19501W        W37705   6.738  11.366  14.607  0.0431 -0.0769 -0.0476
19502W        W37706  10.979   7.938   0.639 -0.1663 -0.0991 -0.0878
19503W        W37707  15.600   2.249  11.994  0.2053  0.0923 -0.0202
19504W        W37708   8.785  10.122   3.475  0.2634 -0.1200 -0.0408
19505W        W37709  16.084  18.146   0.122 -0.2562  0.0797  0.0967
19506W        W37710  10.283   1.731   0.169  0.2165 -0.2267 -0.2267
19507W        W37711  15.332  16.432   0.937 -0.0526 -0.2642  0.2546
19508W        W37712  14.688   5.123  12.746 -0.3167  0.0383  0.2377
19509W        W37713  18.174   3.800   2.034  0.0975 -0.2281 -0.1073
19510W        W37714  17.760  16.163   2.818  0.0121 -0.1848  0.2287
19511W        W37715  16.782  12.537   1.530 -0.2876  0.0179  0.1522
19512W        W37716  14.464   5.606  12.683 -0.1097  0.1184  0.0146
19513W        W37717  17.557   5.339   1.243  0.3573  0.1823  0.0303
19514W        W37718  17.576   0.230   0.521 -0.0575 -0.1440 -0.0930
19515W        W37719   3.721  11.192   1.051  0.2839  0.0384  0.0044
19516W        W37720   1.913  10.014  11.311  0.1627  0.4313 -0.0003
19517W        W37721   2.371  17.360   3.567 -0.0093 -0.2759 -0.0463
19518W        W37722   1.195   4.598   1.906  0.0050  0.2875 -0.1359
19519W        W37723   9.614  15.615  12.375 -0.0195  0.4042  0.0650
19520W        W37724   2.213   2.447  13.696 -0.1099  0.0722  0.0101
19521W        W37725  14.105   1.441   1.933  0.0142 -0.2120 -0.1206
19522W        W37726  12.577   2.520   2.903  0.0781  0.2850 -0.3138
19523W        W37727  17.561  15.660   2.838  0.1028 -0.1464  0.2097
19524W        W37728  13.680  15.542   2.135 -0.3579 -0.1488  0.1352
19525W        W37729  14.973   3.252   0.958  0.0638 -0.0024 -0.1102
19526W        W37730  11.787   7.420   2.144  0.0735 -0.3004  0.1125
19527W        W37731  14.986  15.834  11.288  0.0910  0.2172  0.0947
19528W        W37732   2.532  10.804   2.468 -0.0275  0.2415 -0.2341
19529W        W37733  11.581  14.918   2.203  0.0110  0.0127 -0.2161
19530W        W37734  12.597  15.657  10.851 -0.2352 -0.0570 -0.1255
19531W        W37735   6.825   9.841   0.270  0.1986 -0.1046  0.0717
19532W        W37736  14.142  10.773  14.791 -0.1989 -0.1195  0.0663
19533W        W37737  18.782  10.187   3.030 -0.2323  0.1228  0.0579
19534W        W37738  15.384   1.924  11.702 -0.0855  0.1280  0.2013
19535W        W37739   6.514  10.025   3.416  0.2579 -0.0151 -0.2028
19536W        W37740   5.502   8.144  13.840  0.0704  0.1330  0.0544
19537W        W37741   7.807   4.066   0.835  0.1629 -0.1774 -0.2691
19538W        W37742  12.236  10.944  14.276  0.2161 -0.1799  0.0953
19539W        W37743  18.153   7.535  13.419 -0.2037  0.1909  0.1316
19540W        W37744   4.667   4.207   2.786  0.1225 -0.1372  0.0274
19541W        W37745  12.161   6.641  12.848 -0.0628  0.0039 -0.3114
19542W        W37746   6.449  15.405   3.537 -0.2180 -0.2458 -0.1221
19543W        W37747  14.050  16.319  13.084 -0.0728  0.1145 -0.0028
19544W        W37748   2.380   5.743  14.200  0.0018 -0.1122 -0.2387
19545W        W37749   0.269   7.410   0.536  0.0702  0.2154  0.1218
19546W        W37750  16.216  11.423  12.579  0.0772  0.2030 -0.1106
19547W        W37751  15.151  10.779   1.726 -0.2453 -0.1220  0.0748
19548W        W37752   8.537   4.875   4.094  0.1678 -0.1150 -0.0352
19549W        W37753  13.189   9.683   3.270 -0.1978 -0.0646  0.1251
19550W        W37754   2.587   9.478  13.767  0.0970 -0.2192  0.1189
19551W        W37755  16.157   9.152  14.093  0.1895  0.1959  0.2285
19552W        W37756  10.261  13.410  11.644  0.0894 -0.0971 -0.0483
19553W        W37757   2.275  13.780  13.207 -0.5244  0.0829  0.5157
19554W        W37758   3.208   9.845  14.317  0.1121 -0.6333  0.1475
19555W        W37759   7.430   8.546  12.283  0.0259  0.3704 -0.0696
19556W        W37760  12.354  14.521   1.906  0.1642 -0.0006  0.3028
19557W        W37761  12.516  13.842   2.553 -0.0401 -0.0118 -0.1498
19558W        W37762  15.398   2.852  12.702  0.1192 -0.0582  0.1282
19559W        W37763  14.873  11.760   0.955 -0.1339  0.0794  0.0767
19560W        W37764   9.704  18.147   1.781 -0.4085 -0.2525 -0.3674
19561W        W37765   0.604   6.517  11.811 -0.0578 -0.1602 -0.0421
19562W        W37766  16.748   6.640  14.889  0.3947 -0.0964 -0.1634
19563W        W37767  15.095  16.402   3.488  0.1901 -0.1669 -0.2225
19564W        W37768  13.024  10.461   5.440  0.0263  0.3412 -0.3982
19565W        W37769   3.837   3.264  14.907  0.0905 -0.0875  0.2315
19566W        W37770  14.892   4.102  10.689 -0.1676  0.0363  0.0479
19567W        W37771  14.894   2.714  11.951  0.0052  0.2846  0.1626
19568W        W37772  12.239   9.142   2.348  0.0164  0.0692 -0.1450
19569W        W37773  13.990   4.820   4.895 -0.1318 -0.1690  0.0707
19570W        W37774  14.882   4.813   5.183  0.0045 -0.3748 -0.3922
19571W        W37775  16.680   9.046  12.441  0.1850 -0.2132 -0.2180
19572W        W37776  14.860  14.863  12.214  0.0713 -0.0442 -0.0123
19573W        W37777  15.855  13.233   3.370 -0.0366 -0.2355 -0.0869
19574W        W37778   0.519  10.055  13.947 -0.1490  0.0528 -0.0189
19575W        W37779  16.568   7.875   1.208 -0.1344  0.2995 -0.0566
19576W        W37780   8.422   8.834   0.499  0.1060  0.1458  0.0891
19577W        W37781   1.240   1.595  10.440 -0.1595 -0.2167 -0.4592
19578W        W37782  11.189   3.264  12.105  0.1067  0.1977 -0.0044
19579W        W37783  16.153   7.563   3.230  0.0539 -0.4164 -0.1189
19580W        W37784   4.074  16.625  11.160 -0.0974  0.1137 -0.0048
19581W        W37785   6.166   3.058  13.535 -0.0199  0.1816 -0.0482
19582W        W37786   9.403  11.814   3.484  0.0342  0.1614  0.2281
19583W        W37787  12.585  15.545  12.224 -0.0188  0.3840  0.1406
19584W        W37788  14.860   8.813  10.419 -0.1762  0.3121  0.4843
19585W        W37789   6.040   0.648   3.296 -0.0355 -0.0213 -0.0932
19586W        W37790   1.041   2.842   4.445 -0.0986  0.1407  0.3342
19587W        W37791   1.532   9.666   4.355 -0.2810 -0.1573  0.1814
19588W        W37792   5.947   6.419  11.790  0.1827 -0.0648  0.0005
19589W        W37793   1.491   8.457   3.663  0.0503 -0.2586  0.1004
19590W        W37794   0.005  15.503  11.920  0.2110  0.0266  0.1645
19591W        W37795   5.884  17.113  14.488 -0.0170  0.3199 -0.4220
19592W        W37796  10.377  12.293  11.356 -0.1955  0.3124 -0.0606
19593W        W37797   2.339  14.121  14.881  0.0202  0.0260  0.0402
19594W        W37798  16.676   1.682  10.309 -0.0897 -0.0892 -0.2338
19595W        W37799  13.424  13.273   0.859 -0.0415  0.0651  0.2193
19596W        W37800  16.607  11.258  11.145 -0.2788  0.1115 -0.0877
19597W        W37801   6.497  11.337   2.793 -0.3236  0.1331  0.1363
19598W        W37802   2.221   7.552   3.871 -0.0423 -0.1044 -0.1769
19599W        W37803  18.914   0.808   1.632  0.0278  0.0716  0.0525
19600W        W37804   3.230  12.131  14.043 -0.1483 -0.1373 -0.1818
19601W        W37805  11.369  15.608  11.516  0.3708  0.1055 -0.3800
19602W        W37806  14.035   3.920   2.826  0.2177 -0.0255  0.0102
19603W        W37807   0.380   8.494   3.817 -0.3777  0.2613  0.4510
19604W        W37808   6.916   0.863   4.383  0.0171  0.0779 -0.0470
19605W        W37809   8.070  17.385  14.768 -0.0103 -0.0198 -0.1842
19606W        W37810  16.663  11.149  12.819 -0.1235  0.0014  0.1614
19607W        W37811   8.127  11.610   1.376  0.2119  0.2054  0.0226
19608W        W37812  15.576   0.378   0.667 -0.0753 -0.0438 -0.0480
19609W        W37813  13.360   9.890   2.059 -0.1061 -0.1313 -0.1925
19610W        W37814  13.212  15.966   3.486 -0.1515  0.2267 -0.1598
19611W        W37815  12.730  16.104   3.378 -0.2867  0.1399 -0.0885
19612W        W37816   2.772   3.218  14.633 -0.0765  0.1603 -0.0749
19613W        W37817   6.831  15.992  10.867 -0.2886 -0.1397  0.3962
19614W        W37818  17.385  15.467  13.046 -0.1705 -0.1277 -0.3592
19615W        W37819   6.852   2.871  14.216  0.2889  0.1835 -0.0816
19616W        W37820   3.745  11.396  10.673  0.2345 -0.1637 -0.0600
19617W        W37821   3.265   3.835   1.510 -0.0521  0.0196  0.1029
19618W        W37822   0.121  10.883   2.068 -0.0249 -0.2072  0.0431
19619W        W37823  10.665  12.188  13.424  0.0662  0.0060 -0.0465
19620W        W37824  10.864  13.296   3.406 -0.2251 -0.2572 -0.1959
19621W        W37825   2.188   4.220  11.996  0.3099  0.4562 -0.1404
19622W        W37826  15.010   5.355  12.281  0.0640  0.1460 -0.0829
19623W        W37827  15.318  14.689  13.912  0.3232  0.2146 -0.1155
19624W        W37828   5.147   6.838  13.617 -0.1559  0.0745  0.0732
19625W        W37829   8.834  12.074  13.416 -0.1531 -0.0716 -0.2756
19626W        W37830   3.418   5.183   2.767  0.0827 -0.1128  0.0746
19627W        W37831  13.330  10.013   2.557  0.1156 -0.2187 -0.0252
19628W        W37832   6.160  17.709  11.658 -0.1297  0.2174 -0.0142
19629W        W37833  15.357  17.511   2.805 -0.0992 -0.0235  0.1477
19630W        W37834   6.244   0.510  13.065  0.2465 -0.1818 -0.2120
19631W        W37835   1.554   3.048  11.860 -0.1899  0.0955  0.0379
19632W        W37836   2.725   8.370   1.708 -0.0231 -0.3688 -0.6656
19633W        W37837  13.660  15.156   3.147 -0.0023  0.1508 -0.0975
19634W        W37838   1.386  11.614   1.371  0.0480  0.2423 -0.0503
19635W        W37839  12.080  18.281   3.952  0.0826  0.0120 -0.2971
19636W        W37840   5.044  12.790   1.046  0.0334  0.1536 -0.1453
19637W        W37841   8.054  13.566   0.918  0.3275  0.0450 -0.1808
19638W        W37842   0.277  16.693  13.541  0.0272 -0.1638 -0.0354
19639W        W37843   8.071   4.656   4.044  0.3407 -0.1967 -0.1247
19640W        W37844  11.875   4.630  14.982  0.1942 -0.3140 -0.2841
19641W        W37845   0.103  15.736   3.695  0.1165 -0.2140  0.0023
19642W        W37846  16.395   3.560   4.021  0.0184  0.0700  0.1505
19643W        W37847  15.106   5.606   2.462 -0.0511 -0.0442  0.2053
19644W        W37848  17.906  12.130  10.522  0.1102  0.2166 -0.0621
19645W        W37849   3.594  15.489   1.925 -0.0562 -0.0411  0.1130
19646W        W37850   3.314  17.625  12.369 -0.0606  0.0152  0.0447
19647W        W37851   9.323  13.934   3.138 -0.1800 -0.0118  0.0585
19648W        W37852  10.123   4.823  12.570  0.0495  0.0512  0.2924
19649W        W37853   3.021  11.156   9.713 -0.0710 -0.1716 -0.0612
19650W        W37854   0.778   2.017   3.757  0.2138 -0.0498  0.0923
19651W        W37855   0.613  15.166  13.583  0.2584 -0.2832  0.1721
19652W        W37856  15.976  18.781   2.631  0.0967  0.1752  0.2318
19653W        W37857  17.787  16.602   3.420  0.0262 -0.1290 -0.0330
19654W        W37858   6.212   9.683  14.785 -0.0654  0.0821 -0.2265
19655W        W37859   9.683   1.448  13.233 -0.2427 -0.0846 -0.1072
19656W        W37860  11.656   5.050  10.812 -0.2633  0.1293  0.0948
19657W        W37861  13.599   5.586  11.489 -0.0551 -0.0909 -0.0144
19658W        W37862  15.466   5.367  12.497  0.1991 -0.2318 -0.1453
19659W        W37863   0.285  17.304  10.477  0.1421 -0.1550  0.2142
19660W        W37864  16.150  13.569  13.278  0.0583 -0.2382 -0.0889
19661W        W37865   4.869   9.290  12.142  0.2147 -0.3124 -0.1986
19662W        W37866  18.808  17.836   2.801 -0.1354 -0.4095  0.0141
19663W        W37867   6.949  10.869   1.733  0.0549  0.0254  0.3843
19664W        W37868  11.554  13.366  11.187  0.0121 -0.0013 -0.1009
19665W        W37869  12.746  18.461  10.805  0.2544  0.4335  0.3838
19666W        W37870  10.537   8.806   5.764  0.0993  0.1215 -0.2779
19667W        W37871  18.744  13.282  14.194 -0.1119 -0.1283  0.1795
19668W        W37872  16.228   3.668   1.789 -0.2445  0.0647 -0.1539
19669W        W37873   9.309   2.475   4.517  0.1958 -0.0560 -0.2838
19670W        W37874  15.484   7.524   4.378  0.0619 -0.0127 -0.1910
19671W        W37875   5.227  17.510   3.281  0.0091  0.1662  0.0163
19672W        W37876   0.431   8.996  10.682 -0.0003 -0.1632  0.2396
19673W        W37877   9.975   5.047  14.118  0.1273  0.4013  0.0140
19674W        W37878   5.035  15.973   0.632  0.2245 -0.1540  0.2456
19675W        W37879  12.597   3.730  12.834  0.1100 -0.1703  0.1382
19676W        W37880  12.999  12.694  14.296 -0.2126  0.0307  0.1041
19677W        W37881   5.964  18.252  11.777  0.1520 -0.2187  0.3074
19678W        W37882  11.931  12.386  11.709 -0.2124 -0.1570 -0.2276
19679W        W37883   1.811  13.852   3.249  0.0798  0.2910  0.1152
19680W        W37884  16.559   9.166  13.346  0.0977  0.0275  0.0251
19681W        W37885   5.725  11.329  10.307  0.0516 -0.1296  0.0187
19682W        W37886  11.328  14.153   0.166  0.2197  0.1441  0.2999
19683W        W37887   8.503  16.112   2.779 -0.0015  0.1819 -0.1643
19684W        W37888   9.899  11.914  14.540  0.2045  0.0585 -0.3129
19685W        W37889  11.874  13.081   1.597 -0.1187 -0.2464 -0.0928
19686W        W37890   2.658   9.896  14.484  0.0507  0.4452  0.2409
19687W        W37891  15.736   2.870   0.243 -0.0407 -0.4515 -0.2582
19688W        W37892   9.988  18.924  11.874  0.2623  0.0909  0.1824
19689W        W37893  18.025   0.595  12.976 -0.3065  0.0653 -0.2112
19690W        W37894   8.485  13.420   5.535  0.1917 -0.0137  0.1449
19691W        W37895  15.760   0.254   4.679  0.1127  0.1836 -0.0593
19692W        W37896  14.816   4.349   0.237 -0.0987 -0.1557  0.0278
19693W        W37897  15.611   5.809   2.611  0.0885 -0.0781 -0.0307
19694W        W37898   3.498   4.322   1.305 -0.0607  0.0406 -0.0200
19695W        W37899  14.705  14.963  12.781 -0.0031  0.2204 -0.0503
19696W        W37900   1.981  14.239  12.457 -0.1160 -0.0174 -0.0908
19697W        W37901  10.006  15.916  12.541  0.2564  0.1767  0.3661
19698W        W37902   3.604   1.632  13.166 -0.1423  0.0709  0.4657
19699W        W37903  10.234  11.546   4.013  0.0906  0.1103 -0.4212
19700W        W37904   1.527  17.172   3.000  0.1288 -0.1337  0.0994
19701W        W37905  12.953  17.877   3.286 -0.2001  0.0393 -0.2855
19702W        W37906   3.936  10.703   0.033  0.0255  0.3920 -0.0745
19703W        W37907   5.934  11.654   0.605  0.0521  0.4722  0.1274
19704W        W37908   6.709   7.433   4.731 -0.1925  0.2238 -0.4511
19705W        W37909  13.008  12.538   2.413  0.1010  0.3717  0.2051
19706W        W37910   9.762  18.507  12.012  0.2756 -0.2571  0.1122
19707W        W37911   2.147   0.613  12.701 -0.1264 -0.1442 -0.3300
19708W        W37912   5.704   5.342  13.286 -0.2213 -0.0188  0.2293
19709W        W37913   4.384  13.323   1.147  0.1630  0.1722 -0.0079
19710W        W37914  10.109  13.565  10.268  0.0791  0.2228 -0.0796
19711W        W37915   1.218   3.971   0.376 -0.0834 -0.0993  0.3749
19712W        W37916  17.228  16.268   3.244 -0.0964  0.3784 -0.1429
19713W        W37917   9.324  18.698   1.028  0.0237  0.1465 -0.2263
19714W        W37918  18.573  17.039  14.164  0.0142  0.2325  0.1257
19715W        W37919  13.500   6.823  11.146 -0.0182  0.3192 -0.3064
19716W        W37920  16.362   8.208  12.258  0.4424 -0.1350  0.0483
19717W        W37921  15.882   7.185   2.999  0.2807 -0.0281 -0.1995
19718W        W37922   1.694  16.167  13.166 -0.0269  0.1552 -0.2082
19719W        W37923  12.997  10.345  11.294  0.1031  0.0450 -0.1736
19720W        W37924  16.027  17.569   0.053 -0.1417  0.1385  0.0908
19721W        W37925  12.295   6.395   2.454  0.2146 -0.1925  0.2354
19722W        W37926  15.622   0.128  13.113 -0.3769 -0.1097  0.0252
19723W        W37927  13.586  14.962   3.658 -0.1901  0.1648 -0.3014
19724W        W37928  17.464  14.565   3.642 -0.0836 -0.0806  0.0973
19725W        W37929   6.284  16.339  13.321  0.3105 -0.0573 -0.0398
19726W        W37930   1.260   0.520   2.397 -0.3156 -0.0769  0.1446
19727W        W37931   4.664   1.491  12.073 -0.1314  0.3277 -0.3713
19728W        W37932   4.641  11.054   1.607 -0.1244 -0.0249  0.0089
19729W        W37933   4.313   0.131   0.522  0.0733  0.0602 -0.1650
19730W        W37934  12.442  18.167   2.061 -0.3035 -0.1233 -0.2220
19731W        W37935   0.793  10.087  13.256  0.1868 -0.0199  0.0943
19732W        W37936  12.735  13.731   4.090  0.3258  0.1178 -0.0463
19733W        W37937  18.503  10.549  12.165 -0.1099  0.2626  0.0104
19734W        W37938   5.098  13.051  14.622  0.1167 -0.3945 -0.3263
19735W        W37939  15.356   5.077   3.947  0.0448  0.0710  0.1258
19736W        W37940   4.526  11.041  14.287 -0.0804  0.0228  0.2486
19737W        W37941   0.863   4.056  15.030 -0.0124 -0.0513 -0.1484
19738W        W37942  13.438   3.836   4.340 -0.1369  0.0989  0.2317
19739W        W37943  15.254  16.496  12.257  0.2876  0.0673  0.0204
19740W        W37944  13.851  13.483   0.204 -0.2341  0.0986  0.1995
19741W        W37945  17.445   5.473   4.472 -0.1775  0.0120  0.0276
19742W        W37946  17.818   7.241  10.710  0.1330 -0.0134 -0.0859
19743W        W37947  14.157  11.898  11.570  0.0599 -0.0923  0.0362
19744W        W37948  13.115  15.192   1.631 -0.1596  0.0295 -0.3111
19745W        W37949  11.162  15.063  13.221 -0.1124  0.0423  0.2271
19746W        W37950  15.777  15.297  14.589 -0.0517 -0.3196  0.1331
19747W        W37951  11.760  12.271  14.519 -0.0472 -0.4036  0.3326
19748W        W37952  11.185   6.215  10.019  0.0285 -0.1317  0.2034
19749W        W37953  14.739   8.945  14.285 -0.0010  0.0823 -0.1765
19750W        W37954  17.603  17.466  10.507 -0.0475  0.1866 -0.1315
19751W        W37955  16.112   7.414  11.706  0.1086 -0.2684  0.0429
19752W        W37956   1.177  17.170  12.099 -0.1828  0.0289 -0.2652
19753W        W37957  12.673   3.350   1.747 -0.0275  0.1627 -0.0437
19754W        W37958   8.665  10.710  14.472  0.0487 -0.1491 -0.2711
19755W        W37959   1.283  11.857  14.017  0.3642 -0.1856  0.1373
19756W        W37960   3.059   6.285  14.983  0.0062 -0.0651  0.2960
19757W        W37961  16.776   2.300  12.348 -0.1253 -0.1661 -0.0240
19758W        W37962   4.858   8.172  10.930  0.2077  0.0397 -0.0775
19759W        W37963   2.968   2.275   1.355  0.2050  0.0147  0.3097
19760W        W37964   0.803  18.758   1.955  0.3387 -0.0473 -0.0336
19761W        W37965  10.442   8.208  13.155  0.0957  0.0295 -0.3660
19762W        W37966   1.624  14.096   1.451 -0.0009  0.2212 -0.1265
19763W        W37967  13.975   7.231   0.264 -0.0627 -0.2604 -0.0427
19764W        W37968   5.463  14.782   2.627 -0.1846  0.1866 -0.0069
19765W        W37969   5.417   6.353  13.733  0.4375  0.0150 -0.1558
19766W        W37970  10.449  10.265   1.761  0.1596 -0.0372  0.0842
19767W        W37971  10.997   3.162  10.164 -0.3744 -0.1955  0.0105
19768W        W37972   5.025   2.253  10.897  0.0115  0.1298  0.0156
19769W        W37973  16.384  13.667  14.804 -0.2453 -0.0717  0.1559
19770W        W37974   6.157  18.124  12.571 -0.0838  0.2894  0.1547
19771W        W37975   0.065  17.137  11.551  0.1978  0.0632  0.2935
19772W        W37976  15.272  11.704  12.938  0.0241  0.2343  0.1718
19773W        W37977  13.652  11.129   1.313  0.1049 -0.1248  0.0065
19774W        W37978  18.771   6.471   3.054  0.2125 -0.0302 -0.1118
19775W        W37979   3.873  16.776  12.233 -0.0736  0.0276 -0.1604
19776W        W37980  16.618   9.670  13.271 -0.0965 -0.0858 -0.1327
19777W        W37981  15.694  13.107   1.244 -0.0685 -0.0843  0.0631
19778W        W37982  16.396   6.930  10.394  0.0634 -0.1543  0.0599
19779W        W37983   2.859   5.348  14.453  0.2568  0.0684  0.2162
19780W        W37984   9.243   8.947  13.596 -0.0496  0.0696 -0.1491
19781W        W37985  15.314  10.868  13.359  0.0319 -0.2328  0.3909
19782W        W37986  15.755   9.868  12.996  0.2277  0.0562 -0.0600
19783W        W37987  15.624   8.356  12.561 -0.0984  0.2566 -0.1173
19784W        W37988  16.275  10.467  11.822 -0.0702  0.1227  0.0004
19785W        W37989  18.370  17.072   2.306 -0.2554 -0.0556  0.2184
19786W        W37990   5.387   1.023   0.179  0.4594  0.1316  0.3031
19787W        W37991  16.495  14.757  10.946 -0.0475  0.1779  0.1678
19788W        W37992  12.662  11.945   5.068 -0.0728 -0.0987 -0.0062
19789W        W37993  10.050  12.026   1.734 -0.2146  0.0927  0.0322
19790W        W37994  14.445   8.279  13.533 -0.0439 -0.4795 -0.0198
19791W        W37995  13.052   9.846   0.016 -0.0635  0.2286  0.0674
19792W        W37996   6.963   9.807  10.454  0.1467 -0.4176 -0.1027
19793W        W37997  10.009   0.481  11.365  0.2122 -0.1417 -0.2151
19794W        W37998   5.539  10.065  13.839  0.0607  0.0641 -0.1646
19795W        W37999   1.973   4.715  11.609 -0.0680  0.1725  0.0199
19796W        W38000   0.134   1.680  11.902 -0.0545  0.0679  0.1224
19797W        W38001  11.982  11.199   2.153  0.1562 -0.0518 -0.0274
19798W        W38002  12.415  14.118  12.373 -0.1090  0.0685 -0.2466
19799W        W38003   8.871   8.567   4.556  0.2353  0.1434  0.3970
19800W        W38004  11.695  18.720  13.069 -0.2101  0.0836 -0.3078
19801W        W38005  13.527  18.247   2.520 -0.1293  0.3361  0.1195
19802W        W38006  10.384  15.647  10.968 -0.1032  0.0959 -0.0973
19803W        W38007   3.229   9.767  12.237 -0.0854 -0.0721 -0.0707
19804W        W38008   1.162  12.207   5.224  0.1016 -0.2130 -0.1541
19805W        W38009   3.937   0.718   1.017  0.1512  0.4442 -0.0257
19806W        W38010  14.824   4.516  14.557  0.1691  0.0566 -0.2459
19807W        W38011   9.285  12.444   1.771 -0.3217 -0.0386  0.1328
19808W        W38012   0.902  11.829   0.738  0.0217  0.1666  0.2412
19809W        W38013  14.565   2.152  11.389  0.2160  0.1171 -0.1873
19810W        W38014   9.940   7.409   2.079 -0.1884  0.0466 -0.3562
19811W        W38015   0.426  12.059   2.495  0.3509  0.0311 -0.2465
19812W        W38016  15.225  16.647   9.725  0.1461 -0.1374  0.1545
19813W        W38017   9.815  16.226   4.210 -0.0044  0.4364 -0.2306
19814W        W38018  11.001   5.254   2.271 -0.0390 -0.0732  0.0801
19815W        W38019   1.172  17.768   3.050 -0.0548 -0.1042 -0.0620
19816W        W38020   2.328   1.013  13.719 -0.0322 -0.0831  0.1983
19817W        W38021  10.508   1.055   1.062 -0.0720  0.1305  0.2343
19818W        W38022  16.388   1.547  13.651 -0.0273  0.1687 -0.4246
19819W        W38023  18.954  13.847   2.810  0.1226  0.1828 -0.1862
19820W        W38024  13.637  16.704   4.410  0.0796  0.0973  0.1964
19821W        W38025   1.453   8.481  14.533  0.1980  0.0529 -0.1716
19822W        W38026  18.023   4.110   3.971 -0.0490  0.0234  0.1496
19823W        W38027  12.875   8.494  12.557 -0.1432  0.1944  0.0725
19824W        W38028   1.349  13.592  10.815 -0.1052  0.2860  0.3962
19825W        W38029  10.564   8.694  13.799 -0.0289  0.0155 -0.0902
19826W        W38030  17.574  12.136  10.877  0.0774  0.0665  0.0060
19827W        W38031  14.823   1.321  11.931  0.2433 -0.0414 -0.2861
19828W        W38032   7.232  11.665   1.734  0.1034 -0.0428  0.0785
19829W        W38033   8.857  12.609  14.233 -0.2105  0.1151  0.0764
19830W        W38034  16.974   0.944   0.621  0.0979 -0.2090  0.1707
19831W        W38035   8.467  11.439  11.760  0.0619  0.0396  0.3565
19832W        W38036   4.445   7.236  13.816  0.0698 -0.1725 -0.0358
19833W        W38037   8.157   6.049   9.702 -0.3012 -0.0651 -0.0280
19834W        W38038   7.482  17.902  13.963 -0.3519  0.1791 -0.2980
19835W        W38039  17.902  17.261  14.715  0.1922  0.0959  0.0397
19836W        W38040   0.795   7.999  11.223 -0.1243 -0.1945  0.1314
19837W        W38041   8.563   8.825  14.053  0.0417 -0.0059 -0.0122
19838W        W38042   4.139   3.340  14.447 -0.0508  0.3725  0.0708
19839W        W38043   2.551  16.536  13.531  0.0667 -0.1357 -0.0584
19840W        W38044  18.455  11.649  11.039 -0.1759  0.0551  0.1336
19841W        W38045   7.490   2.702   3.227 -0.1279 -0.1758  0.1059
19842W        W38046  17.236  15.006  10.540 -0.1780  0.2694 -0.0409
19843W        W38047   8.547   2.197   4.142 -0.1354  0.2991 -0.1526
19844W        W38048  15.598   6.156   1.289 -0.1929 -0.5101 -0.1464
19845W        W38049   1.064  18.884  13.790  0.3150 -0.1371  0.0882
19846W        W38050  14.832   0.637  13.311 -0.1102  0.0177  0.0281
19847W        W38051   0.113   8.173   4.031 -0.3208  0.1905 -0.0775
19848W        W38052   8.555  16.753   2.206 -0.2095 -0.2711 -0.0350
19849W        W38053   8.645   2.894  14.015 -0.1315 -0.2089 -0.0657
19850W        W38054   0.061  17.952   1.234  0.1739  0.2657 -0.2157
19851W        W38055  15.162   2.260   4.018 -0.3347 -0.4111 -0.3776
19852W        W38056   9.809  18.686  11.028 -0.0818  0.1936  0.1617
19853W        W38057   6.614  17.038  12.010  0.4439  0.3584 -0.2257
19854W        W38058  18.066   4.349   2.091  0.0881 -0.0507  0.0831
19855W        W38059  18.702   0.338  11.360  0.0673  0.0732 -0.0566
19856W        W38060  11.379   9.187  14.971 -0.0117 -0.1769 -0.1329
19857W        W38061  16.198   2.460   2.981  0.0317 -0.2362  0.4483
19858W        W38062   4.527  18.002  12.291  0.0553  0.0229 -0.2329
19859W        W38063  15.959   4.732  13.211 -0.1271 -0.0030  0.0143
19860W        W38064   7.789   0.999   1.213  0.0236 -0.1514  0.2515
19861W        W38065  16.986  17.759  13.160  0.0412 -0.2231  0.0192
19862W        W38066   8.845  13.056   2.871  0.1881  0.0118 -0.2086
19863W        W38067  16.681  10.799  11.840 -0.3530 -0.2128 -0.2230
19864W        W38068   9.165  14.325  13.727 -0.1296 -0.1100  0.1765
19865W        W38069   7.294   1.026  14.514 -0.1802 -0.3192 -0.1825
19866W        W38070   7.809   1.866   2.677  0.3643  0.0030 -0.0498
19867W        W38071   1.214  10.019   4.712 -0.0734  0.1269  0.0293
19868W        W38072   6.204   6.547   3.249 -0.4174  0.1852  0.3002
19869W        W38073  10.023   7.008  11.805  0.0887  0.0939  0.0369
19870W        W38074  18.378  11.258   4.092 -0.1396  0.1869 -0.5510
19871W        W38075   2.801  10.459  11.213  0.1331  0.2501 -0.1381
19872W        W38076   6.874  15.755  13.957  0.2571 -0.0992 -0.0960
19873W        W38077   4.786   9.617   3.594  0.1196  0.1909  0.0045
19874W        W38078  12.195  17.914   0.949 -0.3852  0.0391 -0.0827
19875W        W38079  14.926  16.131   2.974  0.0572  0.2584 -0.0130
19876W        W38080  12.240   3.576  11.200  0.0078 -0.0237  0.0660
19877W        W38081   4.522  15.922  11.779  0.0606 -0.0244 -0.0585
19878W        W38082  14.735  17.175   5.029  0.1579  0.2722 -0.1604
19879W        W38083   6.591   4.921   1.214  0.0019 -0.1573  0.1960
19880W        W38084  12.860  13.988  11.260  0.1026 -0.1540  0.0003
19881W        W38085   9.337   5.004  10.936  0.3648 -0.2105 -0.1154
19882W        W38086   6.295   8.857   4.381 -0.0405 -0.2027 -0.1566
19883W        W38087   7.538  11.054  11.125  0.1577 -0.0546 -0.0545
19884W        W38088  13.494   4.763  12.637  0.2283  0.0825  0.0514
19885W        W38089  17.737  15.441   0.658 -0.1862  0.0378 -0.2149
19886W        W38090  18.115   0.429   4.841 -0.1821  0.0068 -0.0763
19887W        W38091   1.661  17.497  14.223  0.0955  0.0967 -0.0495
19888W        W38092  18.209   9.456   3.088 -0.1499  0.0022  0.1244
19889W        W38093   2.185  10.411   3.293  0.2234 -0.0230  0.0762
19890W        W38094  10.232   2.972  10.530  0.0823 -0.0171  0.1499
19891W        W38095  12.566  16.766   2.243 -0.0567  0.1234  0.0266
19892W        W38096   5.834   4.701   3.802  0.0447  0.0506 -0.2497
19893W        W38097   5.459  11.781  13.751 -0.0867 -0.0964 -0.1328
19894W        W38098   5.813   6.724   2.447  0.0264 -0.0018  0.2226
19895W        W38099  11.703   3.099  11.144  0.0735 -0.2366 -0.0604
19896W        W38100   7.693  14.914   1.135 -0.2170  0.0921  0.0492
19897W        W38101  18.878   6.976  13.807  0.0222 -0.1039  0.0845
19898W        W38102  17.445   4.482  11.710 -0.0466  0.0923  0.1184
19899W        W38103   1.659  18.675   0.035 -0.0964  0.1237 -0.1405
19900W        W38104   8.488   8.483   4.126  0.2312  0.0065 -0.1038
19901W        W38105  15.414  11.171   0.525  0.2532 -0.1323 -0.2584
19902W        W38106   1.612   2.626  12.105 -0.2687 -0.0036 -0.0934
19903W        W38107  15.334  10.457   3.857 -0.0947 -0.0163 -0.3028
19904W        W38108  14.567   6.992  11.705 -0.1363 -0.0676  0.3243
19905W        W38109  16.448   7.884   2.202  0.0806 -0.0734 -0.1467
19906W        W38110  15.639   7.037   4.392  0.0280  0.1315 -0.1431
19907W        W38111  15.401   3.738   3.223  0.0830  0.0775 -0.1658
19908W        W38112  18.945  14.238   3.144 -0.2897 -0.0652  0.0273
19909W        W38113  17.235   5.486  14.148 -0.3666  0.2498 -0.1690
19910W        W38114  10.058  14.688   2.239 -0.2820 -0.2124  0.0576
19911W        W38115   3.839   5.754  13.186 -0.0389 -0.0361  0.2117
19912W        W38116  17.237  10.454   1.956  0.3897 -0.1513  0.0755
19913W        W38117  18.379   6.480   2.428 -0.2060 -0.2372 -0.0106
19914W        W38118  12.059  10.144  12.054  0.3463  0.1362 -0.0898
19915W        W38119   5.085  12.525  10.880 -0.0121 -0.1700 -0.2353
19916W        W38120   6.980   0.616   1.834  0.0284 -0.1514  0.1844
19917W        W38121   8.240   4.936  13.991  0.2053  0.0082 -0.2037
19918W        W38122   0.490   5.803   4.376 -0.0447 -0.0753  0.2129
19919W        W38123   0.663   9.099   2.069 -0.0160 -0.0530  0.0817
19920W        W38124  13.525   3.120  13.099  0.0200  0.2878 -0.1266
19921W        W38125   3.385  16.292   0.028 -0.4376  0.0795  0.2076
19922W        W38126  10.903   8.161  12.217 -0.0670  0.0081 -0.3083
19923W        W38127   7.382   2.272  10.882 -0.1129  0.1229  0.2341
19924W        W38128  12.314  10.830   2.062  0.4222 -0.0547  0.1993
19925W        W38129   5.023  17.767   2.870  0.2029 -0.0376  0.1799
19926W        W38130   9.903  15.463  12.875 -0.0710 -0.0596  0.0141
19927W        W38131  11.411   4.668  12.437 -0.0808  0.2668 -0.1003
19928W        W38132   8.546  17.455  13.557 -0.0149 -0.2687 -0.0268
19929W        W38133   1.690   7.361  12.148 -0.0970  0.2583 -0.0701
19930W        W38134   5.923   4.952   0.627  0.3820  0.1723  0.0170
19931W        W38135  17.311   2.757   1.478  0.2024 -0.2086  0.0129
19932W        W38136   3.565  17.424  14.887 -0.0711  0.0267 -0.3005
19933W        W38137   5.318  10.788   4.984  0.0494 -0.3221  0.4753
19934W        W38138  11.253  10.103  11.626  0.0344 -0.0656 -0.0883
19935W        W38139   4.040  17.042   2.954  0.0123 -0.1856 -0.2128
19936W        W38140   2.516  12.349  13.682  0.2713 -0.0924  0.0799
19937W        W38141   7.240   8.478  10.772 -0.2483  0.1866 -0.0832
19938W        W38142  14.137  11.254   0.312 -0.2650 -0.3131 -0.2321
19939W        W38143  11.658   2.936  11.685  0.3392 -0.2985  0.0800
19940W        W38144   7.823   5.805   0.856 -0.1841 -0.1304 -0.1609
19941W        W38145   3.424   9.950   4.057 -0.1471 -0.5817 -0.0867
19942W        W38146   9.094   5.447   0.940  0.2413 -0.3713  0.0460
19943W        W38147  13.645  13.696   3.803 -0.0823  0.2864 -0.2712
19944W        W38148   2.485   7.806   2.013  0.4407 -0.0361 -0.1526
19945W        W38149  18.758   0.813  14.042 -0.1609 -0.0963  0.0993
19946W        W38150   9.392   5.349  15.013 -0.1625  0.2786  0.0552
19947W        W38151   2.284  15.395  10.939  0.3613 -0.0268  0.1745
19948W        W38152   3.318   3.237   3.640 -0.2772  0.1926 -0.0783
19949W        W38153   5.929   4.386  13.149 -0.0096  0.1182 -0.0549
19950W        W38154   7.504   3.266  11.176 -0.0549  0.1048  0.0196
19951W        W38155   7.668  18.317   2.226 -0.0133  0.0344  0.1041
19952W        W38156   7.807  13.922  11.721  0.0591 -0.2478  0.0436
19953W        W38157  17.945   7.090   0.323  0.1408 -0.0287  0.1351
19954W        W38158  15.747   2.903  13.040 -0.2143 -0.1196 -0.3067
19955W        W38159  17.109  15.759   1.361 -0.1256  0.3126  0.2071
19956W        W38160   7.693   5.967   5.265 -0.0847 -0.0890 -0.1915
19957W        W38161   9.891  13.695   3.292  0.0064  0.0147 -0.0321
19958W        W38162   6.206  14.684   3.234 -0.2271  0.1922  0.4102
19959W        W38163  17.715   5.245   9.954 -0.1390 -0.0134 -0.0205
19960W        W38164   9.587  14.299  11.927  0.0154  0.0733  0.2279
19961W        W38165   3.588   6.570   4.235  0.1762  0.1392 -0.2050
19962W        W38166  13.440   2.539  13.136  0.0909 -0.3950 -0.0431
19963W        W38167   3.100   1.922   0.225 -0.2433 -0.3684 -0.1072
19964W        W38168   2.046  15.856  14.939 -0.0323  0.1034 -0.2646
19965W        W38169   7.449  14.403  11.931 -0.1944 -0.1514 -0.1163
19966W        W38170   0.149   3.045   0.612  0.1440 -0.0314  0.2956
19967W        W38171   6.757   2.109   1.946 -0.2759  0.0151 -0.1731
19968W        W38172  18.003   7.362   2.693 -0.1264  0.1562  0.0543
19969W        W38173   5.283   5.370  13.587  0.3010  0.2427 -0.3509
19970W        W38174  18.356  17.220  13.637 -0.2047  0.1197  0.0176
19971W        W38175  18.059   5.582  12.234  0.2207  0.3260 -0.0243
19972W        W38176   0.145   4.512  12.589  0.0868 -0.1541 -0.0862
19973W        W38177   7.537  10.531  10.981  0.0201 -0.0795 -0.0775
19974W        W38178   7.543  17.756   2.377  0.0046 -0.0570  0.2930
19975W        W38179   6.213   9.348   4.133 -0.2331  0.0484 -0.1217
19976W        W38180   3.701  15.635  12.849  0.0281  0.0614  0.0579
19977W        W38181  18.557  15.306   0.293 -0.2757  0.0450  0.4008
19978W        W38182   9.786   7.397  14.162 -0.2617 -0.0402  0.1217
19979W        W38183  15.254  15.651   1.406  0.0940 -0.3912 -0.0887
19980W        W38184   0.774   3.774  14.179 -0.1352  0.0977  0.0641
19981W        W38185   1.219   3.702   3.473  0.0258  0.2061  0.0593
19982W        W38186   9.920   6.028   0.692  0.1873  0.1816  0.0909
19983W        W38187   1.311   8.663  13.907 -0.1711 -0.1185  0.1289
19984W        W38188   9.589   8.964   2.216 -0.1380  0.1745 -0.1013
19985W        W38189   2.906  13.492  14.644 -0.2101  0.4816  0.0368
19986W        W38190   6.810  18.113   2.114  0.0531 -0.2121 -0.1393
19987W        W38191  16.179   9.385   1.191 -0.0644  0.1116  0.0536
19988W        W38192  11.262  15.820   3.424  0.2308 -0.1231 -0.0571
19989W        W38193   7.437  12.821   2.438 -0.0173 -0.0231 -0.2610
19990W        W38194  16.329  18.359  12.577  0.0731 -0.0725  0.1660
19991W        W38195   6.590   1.750   3.842 -0.2339  0.1450  0.3087
19992W        W38196   9.731  16.834   1.052 -0.0810 -0.2382  0.0812
19993W        W38197   0.444   6.621  14.548  0.4243 -0.0953 -0.1233
19994W        W38198   9.393   9.420   1.086  0.2652  0.0025  0.0822
19995W        W38199   3.597   0.725  13.669  0.0583  0.0426 -0.0087
19996W        W38200  11.416   5.497  10.807 -0.1291  0.3694 -0.0581
19997W        W38201   9.259  18.673  13.065  0.1608  0.2791 -0.0001
19998W        W38202  18.424  16.686   1.336 -0.1163 -0.0144  0.0332
19999W        W38203  13.165   6.273   4.134 -0.2153  0.0795  0.0968
20000W        W38204  16.106  10.913   1.603  0.0328  0.0202  0.2051
20001W        W38205   8.267   5.613  11.984  0.0080 -0.4008 -0.1274
20002W        W38206   0.017   8.933   2.846  0.0776 -0.3708 -0.1862
20003W        W38207   7.608  10.189  12.508  0.2690 -0.1398  0.1605
20004W        W38208   3.033  14.410  11.969  0.4598 -0.0707  0.1071
20005W        W38209   0.947  10.016   1.551 -0.2510  0.2378 -0.1630
20006W        W38210   1.958  15.750   4.089  0.0714 -0.0474 -0.0546
20007W        W38211   7.964  12.427  12.747 -0.1803  0.2437 -0.0637
20008W        W38212  14.896  18.363   0.706  0.0037  0.1013 -0.1599
20009W        W38213  18.318   6.189   2.806 -0.0747  0.0594 -0.4474
20010W        W38214   5.558   5.045  14.783  0.3243 -0.0470  0.1003
20011W        W38215   3.515  11.844   4.210  0.0561 -0.0739  0.0724
20012W        W38216  13.001  12.727   2.997 -0.1478 -0.0217 -0.0578
20013W        W38217   6.356  16.805  10.717  0.3591  0.1734 -0.1736
20014W        W38218   5.269   4.605   1.984 -0.0194  0.1174 -0.0725
20015W        W38219  18.625  15.953  14.427 -0.0807 -0.1593  0.1385
20016W        W38220  15.521  18.915   2.639 -0.1626 -0.0601  0.0828
20017W        W38221  18.687  16.484   3.913 -0.1163 -0.0651 -0.0419
20018W        W38222   8.310  15.974   3.736  0.1194 -0.2187 -0.2648
20019W        W38223   3.650   2.874  13.109  0.1360 -0.1234 -0.1333
20020W        W38224   3.337  18.050   4.163  0.2472 -0.0935  0.1814
20021W        W38225   4.244  18.601  13.747 -0.1129 -0.1676 -0.0031
20022W        W38226  17.607  16.542  10.492  0.2075  0.1036 -0.1532
20023W        W38227   2.475   5.680   0.499  0.1373 -0.3061 -0.1175
20024W        W38228  18.489   1.048   2.532 -0.2460 -0.1185 -0.2356
20025W        W38229  15.399   2.747  12.176 -0.0953 -0.0671  0.0488
20026W        W38230   6.728  11.762   1.041  0.0171  0.0336  0.6788
20027W        W38231  10.841   5.675  13.543 -0.0535  0.1373 -0.0812
20028W        W38232  11.972   6.859   4.637  0.0023 -0.1164  0.0221
20029W        W38233  18.876   2.633   0.821 -0.1173 -0.1139 -0.0009
20030W        W38234   5.995   6.455  13.788 -0.0394  0.2185 -0.0184
20031W        W38235  16.731  14.754   0.678 -0.2815  0.2459  0.1942
20032W        W38236   2.415   8.182  12.000  0.0217  0.3072 -0.1355
20033W        W38237   2.069   3.347  13.144 -0.4486  0.0039 -0.0472
20034W        W38238  18.612   6.241   4.695  0.2622 -0.0213 -0.1224
20035W        W38239   2.842  16.818   0.394 -0.0779 -0.2601 -0.3170
20036W        W38240   4.172   3.513   3.875  0.1441 -0.2372  0.1891
20037W        W38241  12.008  13.148  11.019  0.0165 -0.1385 -0.1823
20038W        W38242   6.580   7.918  14.402  0.1694 -0.2194  0.0046
20039W        W38243   7.760  13.295  13.519 -0.1106  0.0142  0.2825
20040W        W38244   7.647   2.482  11.861 -0.3130 -0.0029 -0.0677
20041W        W38245  13.967  14.946  14.706  0.0794  0.0283 -0.0106
20042W        W38246   5.382  12.805  12.587 -0.2214 -0.2113 -0.1347
20043W        W38247  16.049   3.648   4.550 -0.0338 -0.0364  0.2025
20044W        W38248  11.410  15.916  12.431 -0.0905 -0.1071 -0.1446
20045W        W38249  12.793  12.335   4.740 -0.0288 -0.1022  0.0147
20046W        W38250  12.930  18.429   1.305  0.0237  0.2395  0.1369
20047W        W38251  15.723  12.675   4.113 -0.2412 -0.1168 -0.2003
20048W        W38252   3.853  17.298  10.569  0.0548  0.1423 -0.0827
20049W        W38253   6.071   6.167   3.022  0.0356 -0.2403  0.1744
20050W        W38254   1.498   6.377  14.576  0.1351 -0.0688 -0.1028
20051W        W38255  13.065   9.471   2.325  0.2025  0.3666 -0.1454
20052W        W38256   2.967  18.306  11.757 -0.0712 -0.1592  0.0418
20053W        W38257  18.767   1.764  12.778 -0.1034  0.1389 -0.0150
20054W        W38258  16.350  17.498   2.294  0.0348 -0.0345 -0.2190
20055W        W38259  16.125   0.251  12.903  0.0403  0.0700  0.0602
20056W        W38260  17.422  10.159   3.153 -0.0702 -0.0006 -0.2462
20057W        W38261  11.969   6.656   9.887  0.1454 -0.0833 -0.0672
20058W        W38262   3.037   3.589  13.221  0.1006 -0.4088 -0.0145
20059W        W38263   4.978   7.381  13.922 -0.1464  0.0785 -0.0584
20060W        W38264   8.532   1.280   2.346  0.1800 -0.1616  0.1341
20061W        W38265   1.619   9.461   0.589 -0.5425 -0.0686  0.0280
20062W        W38266  17.596   3.541  13.843 -0.2497  0.1041  0.0691
20063W        W38267   3.600  10.545  12.880 -0.0169  0.2131 -0.2416
20064W        W38268   7.353   8.808  14.430  0.4599 -0.1321  0.1274
20065W        W38269  11.595   4.827   5.254 -0.0577  0.0883 -0.0392
20066W        W38270  12.587   8.171   3.442 -0.3210 -0.0561  0.5018
20067W        W38271  16.903   4.621  13.314  0.4273  0.0277 -0.0249
20068W        W38272  15.182   8.272   1.525  0.0141 -0.0108  0.2574
20069W        W38273   0.076  18.390   2.949 -0.2187 -0.3607  0.0960
20070W        W38274  12.334   0.964  14.943  0.0836  0.3202  0.3596
20071W        W38275  11.793  17.756   3.271 -0.0304 -0.0264  0.1094
20072W        W38276  17.048  14.367   0.878 -0.1617  0.0558 -0.0781
20073W        W38277  12.872  17.617   2.871  0.0957 -0.1114  0.0272
20074W        W38278   3.943   6.728  11.262  0.1427  0.0228 -0.2353
20075W        W38279   3.901   9.582   1.027  0.2565  0.1252  0.3089
20076W        W38280  18.123  15.926   3.550 -0.0169 -0.1120 -0.1577
20077W        W38281  11.222  15.349  13.876  0.1614 -0.1073  0.5399
20078W        W38282   5.400   2.233   1.333  0.1543  0.2498  0.3176
20079W        W38283   4.675  18.068  14.042  0.0690  0.0193  0.4443
20080W        W38284  12.474  14.765  10.663  0.0322  0.0312 -0.0618
20081W        W38285   5.760  12.006   9.825  0.3106  0.0383  0.0419
20082W        W38286   0.195  10.998  14.013  0.0978  0.5487  0.0953
20083W        W38287   0.461   9.503  14.281 -0.2000 -0.0320  0.0915
20084W        W38288  13.176   0.442   1.678 -0.1759 -0.0227 -0.0164
20085W        W38289  15.456  12.974   0.846 -0.1654  0.1038  0.0697
20086W        W38290  17.596  13.140   5.092 -0.0164 -0.0545 -0.1734
20087W        W38291  15.858   7.265   0.371 -0.0034 -0.0786 -0.3601
20088W        W38292   2.651  12.124  14.872 -0.0587  0.0082  0.3079
20089W        W38293   7.588   3.326  10.685 -0.0230  0.2404  0.1002
20090W        W38294   4.734   8.533   3.454 -0.0070  0.0745  0.0650
20091W        W38295  10.276  14.020  13.718 -0.4454  0.0912 -0.1454
20092W        W38296   2.054  14.678   0.911  0.0484 -0.4670 -0.0537
20093W        W38297  16.412   6.833  14.597 -0.1999  0.0122 -0.0849
20094W        W38298   3.659   6.769  14.343  0.0213  0.0630  0.1018
20095W        W38299   8.541  13.692  13.338 -0.1868  0.1723 -0.1446
20096W        W38300   1.671   4.618   2.297 -0.0003  0.1643  0.1281
20097W        W38301  13.221   4.190   3.151 -0.1243 -0.2897  0.2316
20098W        W38302  10.777  15.927   4.124  0.0823 -0.1517 -0.1406
20099W        W38303  14.902  12.985   1.574 -0.0092  0.2222 -0.0432
20100W        W38304  13.155   6.252   1.210 -0.2293 -0.0852 -0.1395
20101W        W38305   0.057   0.248   1.732 -0.0941  0.1980  0.1405
20102W        W38306   7.133  12.934  14.204  0.1715  0.1897 -0.0666
20103W        W38307   0.390   1.292  11.168 -0.0636 -0.3453 -0.1227
20104W        W38308   2.442  18.139   3.229  0.2769 -0.0873 -0.0751
20105W        W38309   7.259   2.540   1.269  0.1872 -0.1730  0.1243
20106W        W38310  17.832   8.187   4.686 -0.4175  0.0986  0.1976
20107W        W38311   9.734   9.157  13.372 -0.1428 -0.1732 -0.3400
20108W        W38312  16.635  11.351   2.729 -0.2003 -0.0198 -0.3441
20109W        W38313   9.395   7.117  12.285 -0.1707  0.1034 -0.0084
20110W        W38314  18.000   7.291   0.975  0.3952  0.0438  0.1498
20111W        W38315  16.573   6.283   3.906  0.3063 -0.3675 -0.1861
20112W        W38316  10.009   4.828   4.182  0.0416  0.0645  0.5095
20113W        W38317   6.149  11.298   5.470  0.1410 -0.1824  0.0492
20114W        W38318  11.079   0.184   3.287 -0.1413 -0.2995  0.1270
20115W        W38319  17.301  10.456  13.151 -0.2866 -0.2938 -0.0568
20116W        W38320   1.743   2.530  13.833 -0.2399 -0.3109  0.2010
20117W        W38321  13.929  11.052   0.780  0.1246 -0.2892  0.2194
20118W        W38322   4.828   7.471   2.457 -0.2423 -0.4003  0.0235
20119W        W38323   7.213  15.205  11.433 -0.4029  0.2892 -0.1156
20120W        W38324  12.736   8.565  13.369 -0.0511  0.0619 -0.2414
20121W        W38325   5.471   2.326  14.553  0.2296  0.0929 -0.1874
20122W        W38326  13.692   7.184   3.731  0.0764 -0.0659  0.4584
20123W        W38327  18.391  17.236  14.618 -0.1102  0.1803  0.0017
20124W        W38328   1.025  15.082   3.527  0.3485  0.1360 -0.3512
20125W        W38329   8.991   2.338   2.588 -0.1033  0.2389 -0.0203
20126W        W38330   8.408  16.301   4.443 -0.0340  0.0166 -0.0761
20127W        W38331  12.452   4.841   1.682  0.0382  0.2432  0.1258
20128W        W38332   4.838  10.569   3.802 -0.5537 -0.1450  0.1484
20129W        W38333   0.246   9.953   0.795 -0.0203 -0.1034 -0.2793
20130W        W38334   7.870  13.300   0.093  0.2022  0.1899 -0.0325
20131W        W38335   8.456  11.137  12.874 -0.1428  0.1219 -0.2671
20132W        W38336  14.693   7.355   3.508  0.0930 -0.0171  0.1224
20133W        W38337   5.084  12.323   4.847 -0.1321 -0.0531 -0.1236
20134W        W38338  18.018   4.593  13.912  0.3676  0.1065 -0.0366
20135W        W38339  17.293  10.639  14.433  0.0087 -0.0590  0.3981
20136W        W38340  16.452  18.849  12.555  0.3808  0.2072 -0.0359
20137W        W38341   1.212   3.366   1.068 -0.0457 -0.2255  0.1345
20138W        W38342   3.549  15.293  12.265 -0.1817 -0.2647  0.0685
20139W        W38343  10.163   7.505   4.115 -0.1446 -0.2302  0.0682
20140W        W38344  13.435  15.863  10.265  0.0051 -0.2434 -0.0004
20141W        W38345  10.329  15.768   0.882  0.0850  0.0002  0.2445
20142W        W38346  16.618  16.462   1.429 -0.0601  0.1764  0.0171
20143W        W38347  10.021   2.920  11.474 -0.1688  0.1156  0.0933
20144W        W38348   2.832   0.304   3.024 -0.0511 -0.2220  0.2115
20145W        W38349  12.951  18.410  14.234 -0.0771 -0.2722  0.1772
20146W        W38350   2.742  18.410   2.974  0.1736 -0.0776  0.0154
20147W        W38351  18.440   3.576   3.321 -0.2076  0.0276  0.0272
20148W        W38352   9.758  13.981   1.621  0.0137 -0.1768 -0.6350
20149W        W38353  11.965   4.745  11.044  0.1357 -0.0159  0.0167
20150W        W38354   1.156  10.377   1.133 -0.1664  0.0528 -0.2512
20151W        W38355  16.210   9.551  11.993 -0.0742  0.1430 -0.0161
20152W        W38356  14.471   1.834   2.945  0.0856 -0.4758 -0.1189
20153W        W38357  16.912   3.791  11.878  0.0462  0.0823  0.1788
20154W        W38358   1.908  17.756   4.764 -0.0557  0.1022  0.1544
20155W        W38359  16.049  18.276  11.227  0.0791 -0.0546 -0.2205
20156W        W38360  16.079   1.320  14.668  0.2094 -0.0076 -0.3718
20157W        W38361   6.072   8.923  10.675 -0.1139  0.4079 -0.0983
20158W        W38362   7.593   9.934  11.666  0.2622  0.0227 -0.1138
20159W        W38363  10.926   9.043   4.983 -0.1457  0.1476 -0.1670
20160W        W38364  14.937   0.148  10.512  0.2224  0.1544  0.0525
20161W        W38365   4.915  15.584  10.564  0.1761  0.0219  0.2851
20162W        W38366   9.141  13.057   1.110 -0.0957  0.2574 -0.1812
20163W        W38367   0.815   0.968  11.534  0.0354 -0.0539 -0.0356
20164W        W38368   5.724   1.211   1.613 -0.0417 -0.0471 -0.2604
20165W        W38369  12.520  11.981   4.246  0.4618 -0.0707  0.0327
20166W        W38370   9.727  10.358  12.297 -0.1030 -0.1929 -0.2049
20167W        W38371  11.462   7.484   3.591  0.2340  0.1509 -0.0252
20168W        W38372   7.647   2.032   0.308 -0.0103 -0.2643  0.1449
20169W        W38373   6.301  17.564  13.683  0.2301  0.1041 -0.1005
20170W        W38374   3.968  17.996   0.274  0.0509  0.0500 -0.4259
20171W        W38375   7.168   4.479  12.540  0.0086  0.0247 -0.0405
20172W        W38376   2.183  16.231  10.858  0.3033 -0.1228  0.2557
20173W        W38377  17.410   9.358   2.010 -0.3302 -0.0665  0.0157
20174W        W38378   7.579  12.273  12.012  0.1990  0.0982  0.0809
20175W        W38379  14.511   0.734  10.561  0.0814  0.1607 -0.3947
20176W        W38380   8.188  11.834  12.217 -0.2356  0.1997  0.0223
20177W        W38381  16.624  14.198   0.628 -0.1673 -0.3521  0.0787
20178W        W38382  16.506   3.858   4.418  0.1619 -0.1681 -0.1157
20179W        W38383  16.753  14.279  10.903 -0.0577 -0.1209  0.0008
20180W        W38384   6.294  12.628  10.870 -0.1049 -0.1389 -0.2647
20181W        W38385   0.217  16.155   9.433  0.0124  0.0363  0.0491
20182W        W38386   9.075   3.643  10.535  0.4771 -0.0496  0.0868
20183W        W38387   5.274  14.817  12.095  0.2715  0.0884  0.0701
20184W        W38388   4.995  18.647   1.375 -0.4520  0.2255  0.2280
20185W        W38389   6.780   8.720   3.008  0.1473 -0.1171 -0.2449
20186W        W38390   0.470  12.113   3.548 -0.0644  0.1728 -0.1843
20187W        W38391  18.600  13.854  13.333 -0.0526 -0.3021  0.0720
20188W        W38392  16.354  10.392   2.443  0.2684 -0.3638 -0.2005
20189W        W38393   0.752  10.240   0.840 -0.6673  0.1795 -0.0808
20190W        W38394  13.257  18.161   3.502 -0.0890  0.2208 -0.0470
20191W        W38395  18.169  17.310  14.174  0.0433 -0.1600 -0.2182
20192W        W38396  14.619   0.762   1.453 -0.0920 -0.0089  0.2696
20193W        W38397  15.564  14.358   2.229  0.5322 -0.0789  0.1308
20194W        W38398   6.785   3.778   1.657 -0.0511 -0.3927  0.0323
20195W        W38399  13.657  10.633   1.891 -0.3789 -0.0398  0.0047
20196W        W38400   0.052   6.973  14.769  0.2131 -0.3337  0.3650
20197W        W38401   6.934   2.996   1.531 -0.0039 -0.0863  0.2085
20198W        W38402  12.780   9.987   3.159  0.2181 -0.1531 -0.1628
20199W        W38403  15.480   9.092   4.243  0.1859 -0.0382 -0.1937
20200W        W38404  17.049  13.574  14.734  0.0624 -0.0453 -0.0588
20201W        W38405  16.243  13.421  10.816  0.0766  0.1961 -0.2098
20202W        W38406  18.435   4.001  10.699  0.0005  0.1231 -0.1197
20203W        W38407  18.257   8.566   3.299 -0.1608  0.0203 -0.0607
20204W        W38408  13.821   2.342  10.833  0.1475  0.1861 -0.0271
20205W        W38409  16.184  17.796  12.021  0.2970 -0.0388  0.0112
20206W        W38410  10.640  17.374  14.286 -0.0766 -0.3371 -0.0294
20207W        W38411  18.737  18.905  10.707 -0.2361 -0.0084 -0.3687
20208W        W38412  13.772  11.922   4.001  0.2274  0.2369  0.0862
20209W        W38413   0.361  16.849   0.406 -0.5977  0.0551  0.0231
20210W        W38414  14.507   9.240   4.837 -0.3460  0.4581  0.2912
20211W        W38415  10.540  14.065   0.706  0.1510 -0.2681  0.1227
20212W        W38416  17.355   4.892  12.776 -0.0706 -0.0658  0.1889
20213W        W38417   9.349  13.488   0.984 -0.0037 -0.2388  0.0653
20214W        W38418   7.439   4.065   0.465  0.1195 -0.5008 -0.1751
20215W        W38419   9.107   9.106   0.881 -0.1342  0.1529 -0.2009
20216W        W38420  15.597   7.591   3.084  0.4548 -0.0669  0.1076
20217W        W38421   7.584   6.737   0.591  0.2215  0.0951  0.0101
20218W        W38422   8.261  17.298   3.406 -0.3671  0.0273 -0.2375
20219W        W38423  17.425  18.850   3.766 -0.0889 -0.4060  0.1048
20220W        W38424   1.688   9.824   4.879 -0.3621  0.1971  0.1103
20221W        W38425   5.862   6.244   1.254 -0.1396  0.3730 -0.2480
20222W        W38426  12.087  14.876   0.934 -0.2707 -0.0946 -0.2576
20223W        W38427  14.213  14.074   2.043 -0.2992  0.1749 -0.1110
20224W        W38428  12.507  17.939   0.503 -0.0976  0.3353 -0.2535
20225W        W38429  11.859   4.692  11.623 -0.4690 -0.0495  0.1375
20226W        W38430  13.597   6.776  13.961  0.2563 -0.0570 -0.1630
20227W        W38431   7.238  10.747  11.350 -0.0796 -0.2125  0.0239
20228W        W38432   4.791  14.691   2.605  0.1521 -0.3205 -0.0030
20229W        W38433   2.431  16.749   0.036 -0.1488  0.0931 -0.2802
20230W        W38434  16.463   8.825  10.496  0.2810 -0.2569 -0.0599
20231W        W38435  18.792   9.223  14.680 -0.0979 -0.0276 -0.0813
20232W        W38436   5.883   4.785  12.713  0.2625  0.0653 -0.1033
20233W        W38437  13.398   9.216  13.695  0.2352  0.0778  0.1749
20234W        W38438   9.504  10.602  10.969  0.0966  0.0181  0.1350
20235W        W38439  15.412  17.821  13.679 -0.1628 -0.3157 -0.1653
20236W        W38440  10.555   1.761  13.209  0.0169  0.1152 -0.1499
20237W        W38441   5.218  10.010   2.187  0.0199 -0.3390  0.2289
20238W        W38442  13.752   1.365  13.411 -0.0574  0.0799 -0.0319
20239W        W38443  11.676  13.014   2.426  0.1479  0.1650 -0.0455
20240W        W38444   6.001   6.122   3.533 -0.0155 -0.0213 -0.0258
20241W        W38445  10.051   9.537   9.844  0.0602  0.4358 -0.2303
20242W        W38446   9.837  16.723   1.867  0.2033 -0.0295  0.1422
20243W        W38447   1.955  16.769   0.259 -0.0160 -0.3851 -0.1792
20244W        W38448   8.258  14.134  13.240  0.1934 -0.0515  0.0854
20245W        W38449  11.335  15.102   1.428 -0.0308 -0.3015 -0.1824
20246W        W38450   6.009  15.452  10.599 -0.0560  0.0177  0.0654
20247W        W38451  12.502   4.813  12.331 -0.1484 -0.0954 -0.0537
20248W        W38452   9.896  12.293  11.103 -0.0284  0.0170  0.2285
20249W        W38453  10.318   2.561  14.609 -0.2282  0.2623  0.4843
20250W        W38454  18.604  12.150  12.658 -0.1012  0.1030  0.0555
20251W        W38455  18.797  18.361  10.902  0.2738  0.2493 -0.1321
20252W        W38456   9.163  10.394   3.772 -0.1797  0.0426 -0.0974
20253W        W38457  13.639  13.556  12.898 -0.3292 -0.1504  0.1791
20254W        W38458  11.835   1.436  12.038  0.0046  0.0373  0.1703
20255W        W38459   5.017   2.633   0.626 -0.0715  0.1549  0.0707
20256W        W38460  17.681   3.738  14.299  0.2959  0.1741  0.0489
20257W        W38461  10.356   1.319  11.150  0.1611 -0.1784  0.0267
20258W        W38462   3.451   4.281   4.010  0.2787  0.0757  0.2842
20259W        W38463  12.196   5.027  13.787 -0.0228 -0.1078 -0.1123
20260W        W38464   6.576  17.865  12.733  0.0553 -0.0300  0.2606
20261W        W38465   6.369  10.055   1.593  0.0522 -0.0548 -0.3921
20262W        W38466  15.651   3.352  12.154 -0.1729 -0.5164 -0.0220
20263W        W38467  18.609   4.900   0.444  0.0631  0.0038 -0.2693
20264W        W38468   8.707   2.530  10.397  0.2462  0.1207  0.0866
20265W        W38469   5.235  18.214   0.041  0.0644 -0.0380  0.2031
20266W        W38470  10.336   3.339   1.413 -0.1092  0.0347  0.2132
20267W        W38471   4.848   6.585   5.507  0.0596 -0.1359 -0.0551
20268W        W38472  12.395   0.946  12.793  0.0247 -0.0165 -0.0948
20269W        W38473  13.894   9.855   2.136 -0.0578  0.1894 -0.0590
20270W        W38474   2.597   0.330   0.317  0.1657  0.1535 -0.2315
20271W        W38475   8.031  10.709  12.805 -0.1394  0.2820 -0.2157
20272W        W38476   8.913   4.675  11.300  0.0296  0.0414 -0.0457
20273W        W38477  14.875  10.846  11.521 -0.1769  0.1729 -0.1290
20274W        W38478  17.668  11.892   4.325  0.1009  0.1831 -0.1041
20275W        W38479  18.953  13.581   1.760  0.2287 -0.1883 -0.4152
20276W        W38480  13.484   0.755  14.470 -0.2652  0.1234  0.0534
20277W        W38481  16.190   9.941   1.477 -0.1987 -0.0776 -0.2780
20278W        W38482   9.445   9.832  13.862 -0.1202  0.1218 -0.0404
20279W        W38483   9.652  10.421   1.316  0.2077 -0.1242  0.0506
20280W        W38484   1.369   0.671   4.960 -0.1645 -0.2169  0.0881
20281W        W38485  14.460  12.464  12.376  0.1498 -0.1033  0.1673
20282W        W38486  16.035  13.533   2.577  0.0391  0.0496 -0.0831
20283W        W38487  18.349   2.362  13.187 -0.2365  0.2460 -0.0154
20284W        W38488   0.388  11.213   3.994  0.4564 -0.0059  0.0506
20285W        W38489   9.186   0.779  12.793 -0.1130  0.1819  0.1466
20286W        W38490  15.535  11.197   1.931 -0.0094  0.2985  0.2083
20287W        W38491  11.925  17.438   2.766 -0.0559 -0.1188  0.2003
20288W        W38492  13.238   5.818  11.018 -0.0289  0.0173  0.0734
20289W        W38493   3.362  17.026  13.803  0.2864  0.0553 -0.3464
20290W        W38494   8.280  15.452  14.546 -0.2174 -0.0565  0.2121
20291W        W38495  14.803   0.682   0.228  0.1070 -0.1048  0.2502
20292W        W38496   5.955  13.877  11.544  0.1634 -0.1122  0.0943
20293W        W38497  13.194   5.083   0.345 -0.0853  0.1749 -0.0061
20294W        W38498   7.700   2.606   4.055 -0.1107  0.1022 -0.1319
20295W        W38499  12.344  13.646  10.291 -0.0061  0.2668  0.0569
20296W        W38500   7.802  14.254  13.352  0.2968  0.1077 -0.0056
20297W        W38501   7.651   5.334   0.082 -0.2156 -0.1266  0.0293
20298W        W38502   0.709   0.399  11.346  0.1162 -0.1119  0.1032
20299W        W38503  15.814   7.867   2.306  0.0150  0.0044  0.2322
20300W        W38504  16.950   1.933  12.026  0.6179 -0.3404 -0.0526
20301W        W38505   1.804  17.108   2.252  0.0798 -0.3351  0.0260
20302W        W38506   1.864  15.151  14.323 -0.0269  0.1035 -0.3148
20303W        W38507   5.612   0.851  14.188  0.2209 -0.1078 -0.2191
20304W        W38508  14.382   7.256   0.655 -0.2752 -0.0667  0.0872
20305W        W38509  18.818   0.652   1.158 -0.2872  0.0859  0.0634
20306W        W38510  17.070  12.642   1.918  0.0823 -0.0022  0.1375
20307W        W38511   5.269   6.602  12.478 -0.0720  0.0788  0.0402
20308W        W38512   8.707   0.234  12.299 -0.1795  0.1975  0.2829
20309W        W38513  18.745   5.745  12.543 -0.1919 -0.0890  0.0410
20310W        W38514   7.269   4.606   1.909  0.2192  0.3479 -0.2644
20311W        W38515   0.934  16.015  11.205  0.0732 -0.1383  0.1356
20312W        W38516   4.126   7.154  14.736 -0.0180 -0.0638  0.0892
20313W        W38517   6.181   1.084   2.383  0.0435  0.2154  0.0502
20314W        W38518   4.373   1.114  10.755  0.0556  0.1280 -0.0775
20315W        W38519   2.328   2.568  13.111 -0.1436 -0.1151  0.0810
20316W        W38520   5.259  15.603   3.552 -0.4775  0.0347  0.2377
20317W        W38521  16.233  14.661   1.972 -0.0254 -0.0654 -0.1215
20318W        W38522  16.101  10.953  12.671 -0.0407  0.3465  0.1767
20319W        W38523   7.296   8.959   1.012 -0.2496 -0.1439 -0.0726
20320W        W38524   9.362  14.709   2.263  0.0857 -0.2036  0.1826
20321W        W38525  15.821  10.876  10.005  0.0473  0.1361 -0.4175
20322W        W38526  16.967  10.732  11.338  0.0287 -0.1632 -0.2120
20323W        W38527  12.725  17.621   0.156  0.0215 -0.1927 -0.0516
20324W        W38528  10.615   9.630  13.017  0.0724  0.0754  0.2173
20325W        W38529   7.054  14.161   3.863  0.3212 -0.3427  0.0475
20326W        W38530  13.003   4.510   0.152  0.0776 -0.0515  0.1934
20327W        W38531   6.367  12.439   0.023 -0.0276 -0.0942 -0.2351
20328W        W38532  11.018  13.386  11.496 -0.1433 -0.1185  0.1087
20329W        W38533   7.740   8.492   1.034  0.3326 -0.1380  0.0225
20330W        W38534   9.035  12.233  11.981 -0.2716  0.0149 -0.4291
20331W        W38535   2.659   7.833  12.930  0.1731  0.0947  0.1940
20332W        W38536  17.655  13.547   3.626  0.2463 -0.0956 -0.3845
20333W        W38537   0.118  15.773  13.586  0.0706 -0.2945 -0.0513
20334W        W38538   6.349  17.577   1.670 -0.1447  0.0695  0.0294
20335W        W38539   9.872   4.411  11.793 -0.0378  0.0705  0.1379
20336W        W38540   2.034   5.857   0.294 -0.0252 -0.0093  0.0573
20337W        W38541  13.358   0.233  14.219 -0.0055  0.1331  0.0731
20338W        W38542  14.152  11.572   2.115  0.0824 -0.1985  0.0374
20339W        W38543   5.687  14.068  13.291  0.2833  0.0148  0.2588
20340W        W38544   4.268  12.812   4.528  0.1367  0.0722 -0.0447
20341W        W38545  16.698  14.346  13.459  0.1445 -0.2827  0.3189
20342W        W38546   0.271  15.916   0.517  0.0372  0.0675 -0.2801
20343W        W38547   7.370   3.434  14.971 -0.3509 -0.1312  0.3609
20344W        W38548   7.417  13.562  11.316  0.1357 -0.1328 -0.1470
20345W        W38549  12.628   7.117  11.165  0.2609 -0.0957  0.2594
20346W        W38550  14.346   8.515  14.833 -0.0032 -0.1884  0.0714
20347W        W38551   1.208   5.355  14.532  0.0343  0.1437 -0.2395
20348W        W38552   7.886   3.934  13.189  0.3376 -0.2672 -0.0539
20349W        W38553  16.044   9.323   0.685  0.2079  0.2966  0.2975
20350W        W38554   7.249  16.910   3.246 -0.0868 -0.0381  0.1195
20351W        W38555   3.943   5.009   3.337  0.4072  0.0359 -0.0018
20352W        W38556   9.846   3.359   4.474 -0.1607 -0.3646 -0.2692
20353W        W38557   6.606  18.304   1.220  0.0531  0.0361 -0.1383
20354W        W38558  15.255   7.576  12.063 -0.0018  0.0052 -0.2655
20355W        W38559  14.835   5.370  13.733  0.1348 -0.0985 -0.1919
20356W        W38560  10.526   5.467  11.421 -0.0628  0.0106 -0.2345
20357W        W38561  11.467   4.657  11.058 -0.0986  0.3543 -0.0421
20358W        W38562   7.356   8.338  11.715 -0.2145 -0.0231 -0.0069
20359W        W38563  10.441   0.017   3.670 -0.1593 -0.3319  0.1609
20360W        W38564   2.539   7.312  12.704  0.1835  0.0025 -0.0120
20361W        W38565  12.747   0.779  14.731 -0.1456 -0.0672 -0.0885
20362W        W38566  18.861   3.699   3.584 -0.2118  0.3106  0.1342
20363W        W38567  16.930   9.599   3.668 -0.1902 -0.1880 -0.0370
20364W        W38568  16.695  17.651  11.616 -0.1764 -0.2505 -0.1574
20365W        W38569   5.068   8.437   4.074 -0.0326  0.0486 -0.0053
20366W        W38570   7.569   2.155  13.223 -0.1435 -0.1025  0.2794
20367W        W38571   1.409   4.060   1.779 -0.2166  0.2716 -0.0606
20368W        W38572   7.276  16.349   4.606 -0.1647  0.2835 -0.0942
20369W        W38573  11.348  17.393  14.731  0.0732  0.0749 -0.3236
20370W        W38574  12.324   8.668   2.206  0.1149 -0.4621  0.6289
20371W        W38575   3.278   4.384   2.775  0.2962 -0.1307  0.3878
20372W        W38576   6.366  11.217  11.399  0.0099 -0.3224 -0.0561
20373W        W38577   8.613  15.130  14.696 -0.1168 -0.1493 -0.0105
20374W        W38578   6.387  13.027  14.841 -0.3224 -0.0040  0.1697
20375W        W38579   5.492   9.050  11.052  0.1105 -0.2803  0.1543
20376W        W38580   0.564   4.375  11.070 -0.1896  0.3192 -0.2183
20377W        W38581   1.993  17.507  13.861 -0.0139 -0.1514  0.1896
20378W        W38582  17.718  12.908  13.808  0.0251 -0.3704  0.2475
20379W        W38583  13.678  13.323  11.076 -0.3198 -0.0862 -0.1874
20380W        W38584   8.205   7.779  11.713 -0.0368  0.0281  0.2466
20381W        W38585   5.606   9.957   2.595  0.2617  0.3023 -0.0678
20382W        W38586  10.578  14.979   4.542  0.2325 -0.0051  0.1021
20383W        W38587   8.665   8.374  12.307 -0.3101  0.3179  0.0007
20384W        W38588  15.872  14.463   4.651 -0.2419  0.3149  0.2705
20385W        W38589  12.783  11.261   1.875  0.0055  0.2847  0.0333
20386W        W38590  14.953   1.708  14.062  0.3404  0.0535  0.1752
20387W        W38591  12.176   8.242   4.494 -0.3418  0.1479  0.1290
20388W        W38592   8.036  18.224   3.091 -0.1748  0.2267  0.2199
20389W        W38593  13.278   7.864   3.937 -0.0341 -0.0874 -0.2815
20390W        W38594  13.581  14.000  10.564 -0.2038  0.6969  0.0142
20391W        W38595   8.429  10.450   3.227 -0.0438 -0.0740 -0.1952
20392W        W38596   8.375  11.831   3.034 -0.2432  0.0366 -0.3568
20393W        W38597   8.280  13.416   4.024 -0.1035  0.0536 -0.0211
20394W        W38598   9.609   1.966  14.230 -0.1985  0.1065 -0.0760
20395W        W38599   3.315   0.352  12.967  0.2237  0.0446  0.1495
20396W        W38600   3.225   4.895  12.424 -0.2794  0.0378  0.0429
20397W        W38601  17.874  16.286   3.778  0.0141  0.1277 -0.0154
20398W        W38602   5.034   9.100  13.052  0.2444 -0.2443 -0.0961
20399W        W38603   8.086   4.962   0.880  0.1734  0.0429 -0.0144
20400W        W38604   6.351  14.701   1.699 -0.1482 -0.2599 -0.2911
20401W        W38605   6.164  10.427   2.069  0.1711  0.0503  0.1147
20402W        W38606   5.824  16.340  13.545  0.1804 -0.1356 -0.0835
20403W        W38607   2.896  11.516   1.552 -0.3161 -0.0183  0.1628
20404W        W38608  11.213  10.090   1.974 -0.0692  0.0819 -0.1290
20405W        W38609  10.692   2.118  14.835  0.1421 -0.0546 -0.1352
20406W        W38610   4.736   2.253   0.269 -0.0669  0.1746  0.2394
20407W        W38611   0.782   6.478   2.138  0.0265  0.0818 -0.0548
20408W        W38612  10.701   5.871   4.592 -0.0134 -0.0169  0.0090
20409W        W38613   0.732  16.775   0.989 -0.1500  0.1977 -0.4822
20410W        W38614  11.152   2.333  14.774  0.1082  0.0197 -0.0037
20411W        W38615  14.083   6.483   4.467 -0.3014 -0.1957  0.5045
20412W        W38616   1.824   7.759   1.035 -0.2916  0.2773  0.0655
20413W        W38617   2.701  15.341  11.888 -0.0137 -0.0522  0.1396
20414W        W38618   9.108   4.073  13.606  0.0397 -0.0044  0.1146
20415W        W38619  14.179  12.118  13.159  0.0613 -0.0080 -0.0746
20416W        W38620  16.162   5.394   4.192  0.0445  0.0213 -0.2476
20417W        W38621   8.806  13.345  14.694 -0.2275  0.0976 -0.2435
20418W        W38622  13.395  18.449  13.630 -0.2124  0.1260  0.2903
20419W        W38623  14.413   3.973   0.496  0.1257  0.2178  0.1308
20420W        W38624   3.515   2.115   2.915  0.2089 -0.0986  0.1523
20421W        W38625  17.697  17.588  14.313 -0.2149  0.2081 -0.0897
20422W        W38626   5.356  10.694  12.953  0.0207  0.0186 -0.3204
20423W        W38627   4.498  18.224   2.682  0.0943  0.1484 -0.1830
20424W        W38628   7.970   2.983   2.856 -0.1251 -0.0156 -0.0700
20425W        W38629   1.557   9.802   3.332 -0.1978 -0.1571  0.1434
20426W        W38630   7.322   7.588   1.018 -0.2415  0.1104 -0.0191
20427W        W38631   5.274   6.479  10.423 -0.2130  0.5309 -0.0068
20428W        W38632   1.269  14.098   0.664 -0.0063  0.0127  0.0427
20429W        W38633  10.958  10.289   1.532 -0.1461  0.0755 -0.0471
20430W        W38634   8.169   3.513  13.304 -0.0573 -0.2883  0.1080
20431W        W38635  11.413   3.503  10.977  0.0146 -0.1086  0.3936
20432W        W38636  11.153   7.934  11.078 -0.0067 -0.0327  0.0168
20433W        W38637   8.119   3.496   0.039 -0.0415 -0.0150  0.1254
20434W        W38638  11.157   0.969   4.358 -0.2434 -0.0981 -0.0074
20435W        W38639  15.380  11.424   4.084 -0.0284  0.2611 -0.3034
20436W        W38640  18.223   3.265   4.243  0.0659  0.0499 -0.0639
20437W        W38641  11.755  11.595   1.154  0.0638 -0.0213 -0.1914
20438W        W38642  17.665   8.362   2.712 -0.1171 -0.0223 -0.1843
20439W        W38643  17.938   6.119  12.186  0.2373  0.0345 -0.0181
20440W        W38644  14.836  13.666   5.338 -0.2886 -0.3258  0.0583
20441W        W38645  10.010  11.924  10.749 -0.2340 -0.0896  0.0974
20442W        W38646  11.684   0.872  13.582 -0.2037 -0.3726  0.2486
20443W        W38647  10.345   3.451   4.084 -0.3495  0.0057 -0.0201
20444W        W38648   9.541  14.945   0.580 -0.0716  0.2020 -0.0608
20445W        W38649   7.894  17.269   2.574 -0.1273 -0.0583 -0.4087
20446W        W38650   4.151  13.393  14.329  0.0824  0.0503 -0.2105
20447W        W38651  13.244  11.265  14.453 -0.1467  0.1213  0.2597
20448W        W38652   9.924   9.304  10.480 -0.0063 -0.2462  0.1318
20449W        W38653  15.214   7.190   0.446  0.0674  0.0439  0.1559
20450W        W38654   1.564   3.582  12.441 -0.0310 -0.1510 -0.0129
20451W        W38655  16.039   4.685  10.469  0.3420  0.0140 -0.0481
20452W        W38656   3.624  16.531  12.625  0.0519  0.4818 -0.1400
20453W        W38657  17.369  10.734   3.105  0.2396  0.0063  0.0657
20454W        W38658  15.683   3.596   1.880  0.0522 -0.2112  0.0320
20455W        W38659  14.565   4.126  12.865 -0.0706  0.1850 -0.0321
20456W        W38660   8.421   3.526  11.899 -0.1085  0.2477  0.0190
20457W        W38661  11.637   6.200   3.914  0.0010 -0.2168  0.2578
20458W        W38662   9.226  17.655  12.938 -0.0681  0.2664 -0.0181
20459W        W38663  11.764  10.043   2.025 -0.2562  0.0883 -0.3358
20460W        W38664  14.955   0.452   5.211 -0.0590  0.1101 -0.1305
20461W        W38665   2.115  18.055  12.002 -0.0402  0.2603 -0.0005
20462W        W38666   8.402  17.292   4.183  0.0747 -0.1930 -0.1447
20463W        W38667  15.444  17.444  14.063 -0.3751 -0.1606  0.0109
20464W        W38668   0.822   9.206  11.800 -0.1716 -0.2975  0.0420
20465W        W38669  12.591   0.540  13.282  0.0588  0.0745 -0.1681
20466W        W38670   0.916   3.845   4.518 -0.1041  0.1145 -0.1347
20467W        W38671   1.620   6.344   2.785  0.0762 -0.0899  0.0586
20468W        W38672  14.551  15.681  10.688  0.0750 -0.0507  0.1516
20469W        W38673  16.719  12.306   3.630 -0.1619  0.1064  0.2302
20470W        W38674  17.889  11.748  13.038 -0.1556 -0.0614  0.0336
20471W        W38675  17.141   5.058   3.825  0.1744  0.1770  0.2650
20472W        W38676   3.510  13.528  11.456  0.0995  0.1996 -0.0560
20473W        W38677   8.122   7.378  13.715 -0.1672 -0.0532  0.3454
20474W        W38678  17.606   2.858   3.676  0.0908  0.2677 -0.0902
20475W        W38679   7.733   3.916  13.993 -0.0721  0.2748  0.1654
20476W        W38680   4.033  13.936  13.578  0.0560 -0.2710 -0.2381
20477W        W38681  14.771  10.482  13.429  0.0359  0.1591  0.1561
20478W        W38682  16.464   3.343   2.796 -0.2648 -0.2846  0.0007
20479W        W38683  10.841  16.388  14.165 -0.0618 -0.0581  0.0991
20480W        W38684  11.603   0.645  11.498  0.2122 -0.1084 -0.3625
20481W        W38685  10.641   6.637  14.363 -0.1109  0.2583  0.1377
20482W        W38686  16.857  13.136   2.085  0.1002  0.0670  0.3298
20483W        W38687   9.113  12.887   1.779 -0.0578 -0.2911  0.1557
20484W        W38688   6.442   0.653  11.953 -0.1045  0.1158 -0.1279
20485W        W38689   2.316  11.331  14.982 -0.1763 -0.0357  0.0343
20486W        W38690   6.350  13.591  13.701  0.1926  0.0430 -0.1212
20487W        W38691   3.460   9.285  11.020 -0.1141 -0.2416 -0.3040
20488W        W38692   7.938   5.900  12.526 -0.0588  0.2613 -0.0958
20489W        W38693  17.565   9.210   0.626  0.0146  0.5305 -0.0739
20490W        W38694   3.128  15.731   0.787  0.1705 -0.0600  0.1194
20491W        W38695   8.660  12.946   1.939 -0.3096  0.0122 -0.5012
20492W        W38696   5.457  11.457  13.372 -0.0017  0.0106  0.0018
20493W        W38697   6.538  17.796   4.641 -0.1626  0.0290 -0.1057
20494W        W38698   9.418   0.746  12.267  0.0324  0.2281 -0.1775
20495W        W38699   3.728   2.504   4.447  0.1293  0.1214  0.0524
20496W        W38700  15.509  13.221  12.734 -0.0677  0.0613 -0.1471
20497W        W38701   9.137   2.590  11.902 -0.0285  0.0485  0.0510
20498W        W38702   0.992  14.013  10.613 -0.3282 -0.1137 -0.2539
20499W        W38703   2.198  13.386  13.593  0.1560 -0.0099 -0.0316
20500W        W38704  12.842  14.590  13.279 -0.0614  0.0603  0.1460
20501W        W38705   4.110   9.503   0.401 -0.2329  0.0488  0.1225
20502W        W38706   1.415  13.976   3.481  0.0503  0.4012  0.1956
20503W        W38707  11.521  12.430  12.050 -0.2941  0.1134  0.1663
20504W        W38708  16.920  14.864  11.861  0.2526  0.4193 -0.1357
20505W        W38709   0.138   9.305   1.593  0.4554  0.0129  0.1659
20506W        W38710  14.730   2.800   1.122  0.3768  0.0059 -0.2512
20507W        W38711  14.634  14.313   3.434  0.1628 -0.1072 -0.5261
20508W        W38712   2.946  15.871   3.855  0.0907 -0.0751  0.0464
20509W        W38713   7.750   7.619  11.312  0.1079  0.1555 -0.1952
20510W        W38714   1.799   7.622  11.204 -0.0957 -0.0054 -0.0905
20511W        W38715  15.409   8.316   0.487 -0.0820  0.0442  0.0079
20512W        W38716  18.174  16.750  14.274 -0.1055 -0.1680  0.1815
20513W        W38717  15.034   5.115   2.696 -0.5140  0.1981 -0.0893
20514W        W38718  11.242   4.678  10.544 -0.2827 -0.1009 -0.0829
20515W        W38719   2.245   2.440   3.468 -0.1620 -0.2584  0.2076
20516W        W38720  13.910  13.973  14.175 -0.1766  0.1740 -0.1254
20517W        W38721  18.731   9.750   4.236  0.1029  0.0767 -0.2734
20518W        W38722   7.756   4.395  14.619 -0.0961 -0.0655  0.3497
20519W        W38723   3.298   7.387   2.543  0.0596  0.1431  0.0556
20520W        W38724  12.776   6.455   3.943 -0.0964  0.1677  0.0366
20521W        W38725   5.154  11.026  13.434 -0.0530  0.1116  0.2289
20522W        W38726  13.558  13.782  12.349  0.0203  0.0846  0.0503
20523W        W38727   4.143  17.182   4.201  0.0287 -0.0299 -0.2065
20524W        W38728   6.122   2.973   4.330 -0.2338  0.1721 -0.1599
20525W        W38729  13.010   3.983   0.727  0.4040  0.1400 -0.2030
20526W        W38730  14.845   5.270   1.203 -0.4362  0.0008 -0.5093
20527W        W38731  14.817  15.142   9.643  0.1263  0.0551  0.0554
20528W        W38732   8.886   8.902  12.522 -0.0988  0.2813 -0.1453
20529W        W38733  12.420  11.877  12.821 -0.0426 -0.3098 -0.1625
20530W        W38734  18.065  14.913   9.461 -0.0251  0.3452 -0.3062
20531W        W38735  15.622  16.793  11.086  0.0133  0.3674  0.0730
20532W        W38736   8.129  16.618   0.225  0.1737  0.1569  0.0515
20533W        W38737  15.572  18.754   3.957  0.0955  0.1672  0.1314
20534W        W38738   7.765   6.308  12.796 -0.0462  0.0035 -0.0907
20535W        W38739   2.602   6.289  13.573  0.0457 -0.2461  0.3204
20536W        W38740  16.391   2.082   4.010 -0.0493 -0.0067 -0.0896
20537W        W38741   1.580   9.539  11.023 -0.2254  0.0370  0.0182
20538W        W38742   3.908   9.288  12.574  0.0608 -0.1423 -0.0155
20539W        W38743   1.159  14.769  12.855  0.2154 -0.1075  0.0196
20540W        W38744   9.236  11.592   4.985  0.0539  0.1111  0.2060
20541W        W38745   8.407  11.065  11.385  0.2805  0.0734 -0.0498
20542W        W38746   2.100  16.142   2.256 -0.0728 -0.0585  0.0674
20543W        W38747   6.464   8.433  14.746  0.0389  0.0478 -0.1556
20544W        W38748  14.540  10.695   6.286  0.0435 -0.2451 -0.3183
20545W        W38749   6.722   8.944   0.229  0.1768  0.0839 -0.0214
20546W        W38750  17.621   7.899   2.862  0.0521 -0.1013 -0.1386
20547W        W38751   2.747  14.669  10.930  0.2308 -0.1816 -0.1552
20548W        W38752  17.473   7.320   0.051  0.0638 -0.2610  0.0210
20549W        W38753  14.192   1.373   3.014  0.4684 -0.1135 -0.1711
20550W        W38754   4.663  18.207  11.133  0.1658 -0.0064  0.1503
20551W        W38755   0.902  13.690   1.418  0.2742 -0.3781  0.3440
20552W        W38756  18.185   5.160   2.808 -0.2837  0.0865  0.1629
20553W        W38757  18.876  10.318   0.176  0.0491 -0.1140 -0.1018
20554W        W38758   5.111  11.327   1.645  0.3542  0.0624 -0.1358
20555W        W38759   3.938   6.725   3.597  0.0112 -0.0581  0.1828
20556W        W38760  16.109   5.188  14.601 -0.1070 -0.0172  0.0256
20557W        W38761  11.044   7.564  12.820 -0.1677  0.0769 -0.0778
20558W        W38762   2.980  11.511   0.653  0.0010  0.1729 -0.1509
20559W        W38763   6.424   6.812   0.039 -0.0618 -0.1713 -0.1564
20560W        W38764   0.006  15.132  14.806  0.1413 -0.1608 -0.1187
20561W        W38765  10.951   8.894   2.624  0.0637  0.4963  0.0935
20562W        W38766   4.029   1.864  13.879  0.0921 -0.2284  0.0064
20563W        W38767   8.472   3.393   3.035 -0.0514 -0.0762 -0.1851
20564W        W38768   6.561   2.935   0.108 -0.5347 -0.0882 -0.2340
20565W        W38769   0.675   5.860   3.301  0.0352  0.1323 -0.1650
20566W        W38770   4.583   4.672   5.366  0.1816 -0.3499  0.1233
20567W        W38771  12.523  10.449  12.705 -0.1362 -0.1798 -0.0515
20568W        W38772   2.576  17.982   0.133 -0.4323  0.1886 -0.2564
20569W        W38773  13.173   8.678  11.437  0.0722 -0.0419 -0.6142
20570W        W38774  10.649   8.721  14.873  0.1190 -0.1348  0.2363
20571W        W38775   0.662   8.148   3.040 -0.0756  0.0374 -0.0889
20572W        W38776   5.910   5.525   3.762 -0.0004  0.0634  0.1273
20573W        W38777  16.581  12.929   0.786  0.0429 -0.0117  0.0769
20574W        W38778   9.645   7.246   1.295 -0.1480  0.3500  0.0731
20575W        W38779   4.244  17.395   2.575  0.2477 -0.2286  0.1446
20576W        W38780  10.348  13.756  13.151 -0.1811 -0.2213  0.1048
20577W        W38781   8.755  16.125  14.454 -0.0803  0.3714 -0.1021
20578W        W38782   0.182  15.924   3.004 -0.1968 -0.0869  0.0235
20579W        W38783   0.086  16.107  13.079  0.0640 -0.0426  0.2845
20580W        W38784   6.513   6.106   2.112 -0.0308  0.1604  0.3267
20581W        W38785   1.682  10.690   0.308  0.0730 -0.2142  0.1299
20582W        W38786  11.768   0.659  11.002 -0.2038  0.2041 -0.0899
20583W        W38787   8.381   1.315   1.390  0.1816 -0.0102  0.0842
20584W        W38788   2.290   5.026   1.246  0.1671  0.2926  0.3568
20585W        W38789   4.122   7.875   2.086 -0.1393  0.1027 -0.2438
20586W        W38790   8.618  15.499  10.457  0.1992  0.3547 -0.0250
20587W        W38791   7.728  16.525   3.213  0.1297  0.0850 -0.1675
20588W        W38792  18.364   8.639   1.100  0.0870 -0.1295 -0.2018
20589W        W38793   5.025   6.881  14.714 -0.2625  0.1620  0.1079
20590W        W38794  16.200   9.166  11.290  0.0349 -0.4067  0.1582
20591W        W38795  13.971   6.257  10.471  0.3765  0.2617 -0.0216
20592W        W38796  12.663   0.231   2.323  0.1196  0.2559 -0.2996
20593W        W38797  12.420  13.436  10.826 -0.0111  0.2622  0.1636
20594W        W38798  17.537   8.662  13.726 -0.0933  0.1579 -0.0615
20595W        W38799   9.930   9.185   3.543  0.0500  0.0575 -0.1029
20596W        W38800  10.851  17.226  10.704  0.0514 -0.1098 -0.0606
20597W        W38801   1.864   4.942   4.600 -0.0290  0.0461 -0.1779
20598W        W38802  16.677  15.097  14.279 -0.1338  0.2309  0.2051
20599W        W38803   6.244  18.243  14.640 -0.0106  0.1524 -0.0277
20600W        W38804   4.154   2.077   1.006 -0.2817 -0.0991  0.2647
20601W        W38805   0.946  13.047   3.745  0.1331 -0.0992 -0.1462
20602W        W38806   4.022  12.703   4.128 -0.3100  0.2895  0.0615
20603W        W38807  18.075   2.410   1.556 -0.1055 -0.0851  0.4493
20604W        W38808  18.732   2.120  14.483 -0.0052  0.1035  0.0340
20605W        W38809  17.358  15.882  13.446 -0.3739 -0.0544  0.0239
20606W        W38810  14.679   3.099  11.649 -0.1388  0.0038  0.0965
20607W        W38811   9.688  18.597   4.053 -0.2167 -0.0752  0.1176
20608W        W38812   4.380   4.429  13.814  0.0632  0.1336 -0.1813
20609W        W38813  15.399  14.483  13.415 -0.0857  0.3163 -0.0202
20610W        W38814  13.140  13.056  14.002  0.2200 -0.1544  0.0375
20611W        W38815   1.151   6.736  11.641  0.1968  0.5191 -0.6111
20612W        W38816   2.614   9.045  12.303  0.3394  0.0987 -0.2428
20613W        W38817   0.771  13.548   1.862 -0.0161 -0.0531  0.2072
20614W        W38818   5.303   5.598  12.593  0.2842  0.1319  0.3059
20615W        W38819  12.873  12.428  11.835 -0.0153  0.0255  0.1238
20616W        W38820  18.101  13.616  11.240 -0.0086  0.1194 -0.0147
20617W        W38821   3.225  17.903   3.517 -0.2307 -0.0240  0.1548
20618W        W38822  12.229  10.653  11.801 -0.1217  0.0258  0.2093
20619W        W38823  16.060   4.697  11.249  0.3203  0.0795  0.1612
20620W        W38824  17.105  13.631   2.705 -0.0531  0.0378 -0.0011
20621W        W38825  16.697   0.605  10.967  0.2057 -0.1813  0.0278
20622W        W38826  12.076   2.587  14.675  0.2334  0.3871  0.0333
20623W        W38827   0.961  15.154   0.029 -0.2309  0.3527 -0.1708
20624W        W38828   5.092   5.996   1.431 -0.3499 -0.0847  0.1675
20625W        W38829  13.213   2.713  14.014 -0.1480 -0.1355 -0.1234
20626W        W38830  11.496  13.731   1.541  0.0360 -0.0087  0.1258
20627W        W38831  11.406  16.891  12.135  0.0944  0.1362 -0.0140
20628W        W38832   9.178   4.469   0.508 -0.0419 -0.1996  0.2632
20629W        W38833  17.851  16.769  11.788 -0.1359 -0.1566 -0.1260
20630W        W38834   9.990   1.898  10.602 -0.3935  0.2729 -0.2769
20631W        W38835  13.395   2.172   2.149  0.2622 -0.2447 -0.1716
20632W        W38836  11.216  12.533  13.351  0.1539  0.0771 -0.4112
20633W        W38837   9.854   7.520   0.461  0.1559  0.2179 -0.0648
20634W        W38838   9.975  16.940  14.821 -0.3754  0.1778  0.1687
20635W        W38839   7.785   9.707   4.274  0.2217  0.2435  0.1072
20636W        W38840  12.189  15.413   1.763 -0.1425 -0.0379  0.1918
20637W        W38841   6.852   3.073   0.497  0.1701 -0.1676  0.3054
20638W        W38842  10.139   7.811   1.286  0.4500  0.0761 -0.0426
20639W        W38843  12.299   2.353  11.048 -0.0786  0.2304 -0.0019
20640W        W38844  18.201  18.630   2.148  0.2697  0.0064  0.0569
20641W        W38845  17.555  17.869   2.158 -0.0336 -0.0067  0.1466
20642W        W38846  18.461  14.955  11.498  0.0648 -0.2976  0.2994
20643W        W38847   9.679   7.460   3.167  0.3946  0.1368  0.1996
20644W        W38848   7.933   5.417   3.803 -0.0760  0.1284  0.0587
20645W        W38849  15.568   5.065  13.215 -0.3181  0.2604 -0.4119
20646W        W38850  16.913   0.469  14.048 -0.1459  0.1754 -0.1899
20647W        W38851  12.877  13.466  11.089  0.3286 -0.0997 -0.0473
20648W        W38852  18.770  12.077   2.333  0.0287 -0.0159 -0.0383
20649W        W38853  13.554  16.152  14.316  0.1203  0.0065 -0.0920
20650W        W38854  14.139  17.958  11.238  0.3062 -0.0353  0.0845
20651W        W38855   2.172   1.487  13.917 -0.0866 -0.1444 -0.1023
20652W        W38856   1.891   0.506   1.467  0.0299  0.1876 -0.0383
20653W        W38857   8.938   1.133  11.156 -0.3480  0.0844  0.4060
20654W        W38858   6.667   6.828   1.798  0.0157 -0.1600  0.0679
20655W        W38859  10.246   9.141  10.100 -0.1183 -0.1583  0.1399
20656W        W38860  13.856  11.612   3.467  0.1378  0.3431 -0.0025
20657W        W38861  12.105   2.969   2.426 -0.0088 -0.1870 -0.1133
20658W        W38862  14.399  11.880   1.105 -0.1397  0.3154 -0.0320
20659W        W38863   0.543  18.079  14.559 -0.0859 -0.0798  0.0071
20660W        W38864  13.152  17.909   0.199 -0.2923  0.1455  0.0840
20661W        W38865   2.604   8.014   5.266 -0.2030 -0.1834 -0.0228
20662W        W38866   3.704  18.835   1.285 -0.0758  0.0790  0.0645
20663W        W38867  12.642  18.646   2.849  0.0366 -0.2035  0.2742
20664W        W38868   7.540   5.428   2.482  0.0586  0.2235  0.0029
20665W        W38869   1.257   9.538  13.570  0.0298 -0.2174 -0.0326
20666W        W38870  11.658  15.287   1.788 -0.2609  0.1123  0.0546
20667W        W38871  15.759  14.403  11.114 -0.1263  0.3384  0.1931
20668W        W38872   0.190   2.687  11.802 -0.0172  0.1839 -0.0247
20669W        W38873   0.666  12.669  13.031 -0.3331  0.2468  0.0197
20670W        W38874   3.461   0.950  14.702  0.1505 -0.3276  0.2490
20671W        W38875  17.014  18.602  11.322  0.0171  0.4046  0.0590
20672W        W38876  16.381  15.801   3.367 -0.4592  0.0621 -0.0838
20673W        W38877  15.708   3.016  11.738 -0.0373 -0.1711  0.1553
20674W        W38878   4.485   3.405   0.406  0.1312 -0.0401 -0.1145
20675W        W38879   7.608  14.899   2.796 -0.0405 -0.0304  0.2580
20676W        W38880   9.986   5.836  14.048 -0.0095  0.0353 -0.0590
20677W        W38881   2.060  14.262   3.530  0.2636  0.2584 -0.0877
20678W        W38882   7.979   0.865   3.071  0.3466 -0.0780  0.5065
20679W        W38883   1.596  11.723  10.694 -0.0474 -0.0446 -0.1547
20680W        W38884   0.052   3.206  12.006  0.1319  0.0847  0.1089
20681W        W38885   5.380  17.063   3.079  0.2217 -0.3601 -0.1375
20682W        W38886  13.213   0.594   3.861  0.0599 -0.0821  0.0831
20683W        W38887   2.963   8.242   3.627 -0.5601  0.0476 -0.0767
20684W        W38888   5.732  18.544   4.033 -0.2759 -0.0490 -0.0596
20685W        W38889  18.530   7.280  13.581  0.5630  0.0325 -0.1601
20686W        W38890   0.813   7.168  10.232  0.1707  0.2692  0.0205
20687W        W38891  16.519  10.220  10.271 -0.1732 -0.0593  0.0253
20688W        W38892   4.742   4.564   2.419  0.0333  0.1556 -0.0996
20689W        W38893   4.953   7.608  14.747 -0.1799 -0.1113  0.1220
20690W        W38894  12.155   4.912  10.566 -0.0631 -0.0876  0.1774
20691W        W38895   0.830  11.838  13.351  0.0451 -0.1320  0.1310
20692W        W38896   5.763   6.675   3.030 -0.2116 -0.1566 -0.0283
20693W        W38897  15.504  16.730  12.670 -0.2444  0.0579  0.0239
20694W        W38898   7.137   9.778  11.783  0.3896  0.0408  0.0277
20695W        W38899   7.758   7.993   5.300  0.3271 -0.0146 -0.1707
20696W        W38900   2.460  12.204   4.275  0.1187  0.2248 -0.1614
20697W        W38901   3.790  10.291  11.147 -0.0878 -0.0225  0.1768
20698W        W38902  15.609  18.492  14.780  0.1592 -0.0253 -0.0276
20699W        W38903   2.283  16.640   2.076  0.1737  0.1238 -0.0990
20700W        W38904  18.661   1.833  12.275  0.1557 -0.2001  0.4040
20701W        W38905   0.100   2.885  13.782  0.1209 -0.0678  0.0023
20702W        W38906  12.916   8.623  10.586 -0.1840  0.0335 -0.0820
20703W        W38907  14.846  17.746   2.263 -0.0702  0.0763 -0.0837
20704W        W38908  18.338  15.503  14.383 -0.0892 -0.1630 -0.0533
20705W        W38909  11.983   5.785  11.561  0.0998  0.4632  0.0945
20706W        W38910   0.205   3.347   3.637 -0.2280  0.0297 -0.0350
20707W        W38911   3.719   3.904   2.663 -0.1359 -0.1666 -0.2452
20708W        W38912   8.631  11.718   4.597 -0.2927  0.0413  0.0561
20709W        W38913  14.750   4.181   3.266  0.3252 -0.0277  0.2029
20710W        W38914  18.247  18.420  13.925  0.1059 -0.1129 -0.1630
20711W        W38915   1.739   0.918  12.500  0.3093 -0.0457  0.3310
20712W        W38916  18.149   3.960   1.222  0.2732 -0.0961  0.0980
20713W        W38917   8.087  10.719   2.938 -0.2064 -0.3103 -0.1480
20714W        W38918   3.077  17.298  14.070 -0.0770 -0.0164  0.2812
20715W        W38919   4.934   3.093   0.565  0.2844  0.1577 -0.0754
20716W        W38920   6.189   3.721   3.543 -0.1440 -0.0743 -0.1464
20717W        W38921   9.494  14.722  13.953  0.0706  0.0043 -0.1770
20718W        W38922  18.561  12.625  12.776  0.1363  0.1503  0.1221
20719W        W38923   4.974   2.842   2.785 -0.1744  0.0173  0.1142
20720W        W38924   5.130  15.235   4.040 -0.0273 -0.1221 -0.0429
20721W        W38925  18.593  17.447   2.042  0.0668 -0.1319 -0.0692
20722W        W38926   9.869   7.993   4.852  0.3302 -0.0549  0.0015
20723W        W38927   1.446   5.996   2.441  0.1640 -0.1764  0.2223
20724W        W38928   1.786   8.821   1.801  0.2122  0.0956 -0.0913
20725W        W38929   5.235   2.962  11.057 -0.0951 -0.1792  0.1537
20726W        W38930   8.404   7.268   4.109 -0.1739  0.2772 -0.0772
20727W        W38931  12.634   0.328   0.720  0.3044  0.1711  0.1696
20728W        W38932   7.594   3.528   5.162  0.1191 -0.0093  0.2645
20729W        W38933  10.145   0.271   1.486 -0.1808  0.1317  0.0850
20730W        W38934   0.223   3.807  13.445 -0.1973 -0.2096  0.5600
20731W        W38935  15.007   1.194  13.644 -0.0244  0.0339 -0.2281
20732W        W38936  17.541  12.668   4.756  0.0917  0.1298 -0.3281
20733W        W38937   6.429   1.948   0.236  0.1421 -0.0859 -0.0091
20734W        W38938  17.354   1.850   0.409  0.1679  0.0908  0.0923
20735W        W38939   4.550  14.862  14.960 -0.0721 -0.3023 -0.5246
20736W        W38940   1.949  11.102  13.770 -0.0518 -0.1141 -0.5500
20737W        W38941  13.851  15.912  13.747  0.0254  0.0750 -0.0302
20738W        W38942  11.541   3.917   9.995 -0.0749 -0.2129 -0.2610
20739W        W38943   6.010  10.556  15.010 -0.0120  0.0669  0.1105
20740W        W38944  12.738   0.826  10.965 -0.3482  0.1524  0.0188
20741W        W38945   4.055  15.694  12.433  0.0721  0.0242 -0.1880
20742W        W38946  15.231  17.335  13.247  0.2102 -0.1112 -0.0032
20743W        W38947  10.891  16.795  13.722 -0.2175 -0.0563  0.0194
20744W        W38948   5.357   9.109  13.943 -0.0345 -0.2641  0.1169
20745W        W38949   0.284   1.583   3.437  0.2531  0.2500 -0.1405
20746W        W38950   1.664  11.388  14.044  0.2392 -0.0381  0.0110
20747W        W38951  16.572   2.408   0.509 -0.1194 -0.1575 -0.0381
20748W        W38952   3.109  17.898  13.246  0.0875 -0.1013 -0.0672
20749W        W38953   2.704  10.890  11.367  0.0300 -0.2245 -0.3211
20750W        W38954   7.560  18.629  12.610 -0.2151 -0.0493  0.1651
20751W        W38955   5.019  13.596   3.717 -0.2508 -0.1938  0.0724
20752W        W38956  13.605   1.957   0.566  0.3613 -0.4348 -0.1599
20753W        W38957  11.087   4.122   1.040 -0.0400 -0.0400  0.0018
20754W        W38958  16.314  14.839  13.564 -0.0991  0.0652 -0.1311
20755W        W38959   5.948  18.169   3.630  0.0379  0.1852 -0.0435
20756W        W38960  18.567  16.901  13.380 -0.0062  0.1524 -0.1488
20757W        W38961   8.733  10.523   4.119  0.0471  0.2722  0.1235
20758W        W38962   6.024  17.991  13.552  0.0358 -0.3271  0.0999
20759W        W38963   4.492   0.596   9.981 -0.0616 -0.3941  0.0250
20760W        W38964   5.536  16.760  13.676 -0.2252  0.2489  0.2426
20761W        W38965  16.500   3.814  10.826  0.1738  0.1074  0.3139
20762W        W38966   5.223   9.609   3.870  0.1706 -0.2994 -0.0039
20763W        W38967   3.414  16.917  12.866 -0.1325 -0.2742  0.4018
20764W        W38968  15.887  15.472   1.619  0.0561 -0.0205  0.0966
20765W        W38969  18.854  14.994  10.910 -0.0047 -0.2480 -0.1720
20766W        W38970   2.090   7.275   0.854  0.2564  0.0413  0.2216
20767W        W38971  10.962  12.072  10.125  0.0563  0.1550 -0.3625
20768W        W38972   1.383   3.057  13.774  0.0126  0.1729 -0.0624
20769W        W38973  11.499   1.520   2.333  0.1433 -0.1053  0.1275
20770W        W38974  12.010  16.340   3.986 -0.0993  0.0946  0.1215
20771W        W38975  18.783  12.274  11.714  0.1613  0.0999  0.1818
20772W        W38976   1.927   4.500  12.564  0.3374  0.1219 -0.1711
20773W        W38977   0.156  16.068  11.936  0.0936 -0.1145  0.2259
20774W        W38978   2.347   1.186   1.982  0.0062  0.0918 -0.0460
20775W        W38979   8.465   8.243   1.866  0.3167  0.0296  0.0888
20776W        W38980   7.645  12.153  13.856  0.1943  0.0144 -0.1470
20777W        W38981  10.607  16.507  12.461 -0.0832  0.0398  0.0231
20778W        W38982  16.662  12.719   2.373 -0.4243 -0.2439 -0.3602
20779W        W38983   5.002   5.070   0.582  0.1831  0.1135  0.1674
20780W        W38984   6.240  11.354   1.818 -0.0073 -0.1063  0.0059
20781W        W38985  10.484   9.148  11.582  0.3019  0.1499 -0.1100
20782W        W38986  15.155   3.798  12.003  0.2021 -0.0718  0.2733
20783W        W38987   6.883   3.567  13.696  0.2702 -0.1493 -0.0575
20784W        W38988   4.329   1.437  13.890 -0.0499 -0.1660 -0.2655
20785W        W38989  15.836   0.090   1.029  0.1193 -0.0945  0.0319
20786W        W38990   4.611  15.051   1.249 -0.2241 -0.1480 -0.2329
20787W        W38991   2.526  12.859   9.677 -0.0917 -0.3251 -0.0675
20788W        W38992  14.387   0.550  12.112 -0.4911 -0.1937  0.2840
20789W        W38993  14.025  13.917  14.886 -0.0137 -0.0020  0.1741
20790W        W38994   8.575  17.691  11.240  0.1237  0.1055  0.1846
20791W        W38995   6.699   9.668  14.410 -0.2069  0.0017  0.0781
20792W        W38996  15.609   6.150   3.498 -0.4607 -0.3288 -0.0818
20793W        W38997  16.159  12.162  14.523  0.3114 -0.2921 -0.3569
20794W        W38998   8.479   0.379   5.638  0.2428  0.0745 -0.2257
20795W        W38999  11.862  10.473  10.532  0.0345  0.2982  0.2940
20796W        W39000   3.641   3.418  12.120 -0.2604 -0.0472 -0.1182
20797W        W39001  17.866   4.369   3.473 -0.1692  0.2078  0.0765
20798W        W39002   8.871  14.495   2.073  0.0953  0.1017 -0.2115
20799W        W39003  14.311  11.789   3.608 -0.0033  0.1537 -0.0807
20800W        W39004   7.826   4.391   5.308 -0.1762 -0.0229 -0.0953
20801W        W39005   6.048  17.628   3.694 -0.4232  0.1324  0.3942
20802W        W39006  18.840   8.487  14.322  0.2208  0.0674 -0.3224
20803W        W39007  14.573   6.276   0.542  0.1625 -0.1310  0.1658
20804W        W39008   1.645  15.925  12.273 -0.1940  0.0987 -0.1991
20805W        W39009  18.115  14.211  13.391 -0.2230  0.1207 -0.4261
20806W        W39010   8.112   4.283  11.650  0.0298  0.1410 -0.2384
20807W        W39011  16.454  11.698  14.879  0.1525 -0.0168  0.1834
20808W        W39012   1.785   3.892  12.177  0.3788  0.1031  0.2052
20809W        W39013   8.161  17.564   2.022 -0.0392  0.2229  0.1543
20810W        W39014  10.639   2.889  13.859 -0.0511  0.1512 -0.2551
20811W        W39015   8.872   2.312   3.557 -0.1646 -0.0269 -0.3036
20812W        W39016   2.672  18.888   2.678 -0.0053 -0.1533 -0.0524
20813W        W39017   2.458   5.602  12.294  0.1251 -0.4251  0.1840
20814W        W39018   9.939  18.095  14.663  0.1138 -0.3549  0.1289
20815W        W39019   4.817   3.222   2.525 -0.1512  0.1441 -0.3596
20816W        W39020  15.870  12.237  13.643  0.0438  0.0361  0.2474
20817W        W39021  10.600   0.236   2.239 -0.1615 -0.0953 -0.0238
20818W        W39022  13.502  17.969   0.733  0.1130 -0.0785 -0.0475
20819W        W39023  16.287   6.310   0.680  0.1873 -0.1275 -0.2785
20820W        W39024   2.089   3.671  11.273  0.0438  0.1499  0.2486
20821W        W39025   1.823   8.066  10.893 -0.0008  0.0774 -0.0222
20822W        W39026   3.954   7.970   4.540  0.0363 -0.0375 -0.2309
20823W        W39027  10.175   2.196   3.404 -0.0163  0.1264  0.0134
20824W        W39028   0.100   0.262   3.768  0.0061 -0.0676  0.1044
20825W        W39029   1.604   1.899   3.817  0.0560 -0.1126 -0.1201
20826W        W39030   6.264   2.834  14.745 -0.1086 -0.1377  0.1167
20827W        W39031   8.800  18.172  12.394 -0.2034 -0.0621  0.0786
20828W        W39032  15.383  10.369  12.170  0.4134  0.2668 -0.2205
20829W        W39033  18.855  12.147   3.247  0.3489  0.2227  0.2231
20830W        W39034   2.390  10.904  13.554  0.1149  0.0678 -0.0038
20831W        W39035  13.734   2.165  15.012  0.0691  0.0529  0.0330
20832W        W39036   4.250  11.120  14.773  0.2178 -0.2013  0.0859
20833W        W39037  18.119   0.065   0.360 -0.1635  0.1875 -0.1826
20834W        W39038   4.890   3.483  13.035  0.1631  0.3422  0.0099
20835W        W39039   1.744  12.049  13.795  0.1740  0.2562  0.3230
20836W        W39040   8.483  12.163   4.441  0.2591  0.1445  0.2317
20837W        W39041   5.210  16.173   0.197 -0.0754 -0.1022  0.1039
20838W        W39042  16.366   0.757  13.191  0.0920 -0.3116 -0.2129
20839W        W39043  16.101   4.720  11.750 -0.3614  0.3374 -0.0763
20840W        W39044  13.342  10.698  11.154  0.0432 -0.4674 -0.4825
20841W        W39045  14.403   9.915   2.052  0.0222 -0.1196  0.4322
20842W        W39046   2.087   1.101   5.288 -0.0495  0.3215  0.0081
20843W        W39047  14.164   7.092   2.049 -0.1663  0.2915  0.0806
20844W        W39048  10.840   4.657  14.295  0.1572  0.2921  0.1149
20845W        W39049  11.200   7.910   1.834  0.1139 -0.3716  0.1382
20846W        W39050  14.467   2.984  13.358  0.0909  0.4121  0.0906
20847W        W39051  17.801   2.236  12.203 -0.0078  0.1953 -0.1028
20848W        W39052   6.110   2.099  10.189 -0.2057  0.1628  0.0292
20849W        W39053   9.235   8.485   0.124 -0.0578 -0.1022  0.0469
20850W        W39054  13.956   3.518   1.659 -0.0036 -0.1086  0.1601
20851W        W39055  13.714   4.285  14.612 -0.0357  0.1414  0.1742
20852W        W39056   5.201   7.114   2.335 -0.0847 -0.1034 -0.0608
20853W        W39057  16.582   0.777   2.655 -0.1931  0.1599  0.0280
20854W        W39058   2.151   5.206  10.880  0.2415 -0.0173  0.0319
20855W        W39059   2.840   4.369   0.022  0.0575 -0.1980 -0.0156
20856W        W39060  10.111   4.864   1.315  0.2243 -0.2104  0.2021
20857W        W39061  18.044  13.061   4.882  0.1448 -0.0907  0.0061
20858W        W39062   9.745  17.403  14.143  0.3599 -0.0085 -0.0946
20859W        W39063  17.450   1.177   0.784  0.5335  0.0399  0.1304
20860W        W39064  17.047   3.173   4.491  0.1864 -0.0848 -0.4241
20861W        W39065   3.267   3.959   1.966 -0.0689 -0.1131 -0.0677
20862W        W39066   9.688  11.483   4.164 -0.3241 -0.1770  0.2533
20863W        W39067   1.983   9.885   3.092 -0.3083 -0.0997  0.1129
20864W        W39068  17.882  18.071  12.036 -0.5031  0.1166 -0.0005
20865W        W39069  16.004   4.535   2.059  0.4993  0.1166  0.1586
20866W        W39070  12.710   9.370  10.779  0.3074  0.0544  0.0841
20867W        W39071  13.191   1.162  12.575  0.0378  0.6218  0.3740
20868W        W39072   2.293   0.943  12.279 -0.0326 -0.0666 -0.2930
20869W        W39073   2.019   1.724   3.416 -0.1147 -0.2307  0.1217
20870W        W39074   7.275   1.192   4.181 -0.5184 -0.1128 -0.1012
20871W        W39075   2.110   3.833   0.163 -0.0504 -0.1633  0.2409
20872W        W39076   0.632   8.553   1.990 -0.1644 -0.2164 -0.2600
20873W        W39077  17.139  13.090  11.088 -0.1558 -0.1944 -0.2952
20874W        W39078   5.941   3.249  14.692 -0.0152 -0.1415 -0.0604
20875W        W39079   0.611   3.348   4.355  0.0396  0.0783 -0.1544
20876W        W39080  13.818  16.290   2.824 -0.1149  0.0585  0.1513
20877W        W39081  11.538  18.086   0.210 -0.2146 -0.1086  0.0148
20878W        W39082   7.540  14.197  13.960 -0.0380 -0.0078  0.1463
20879W        W39083   8.757   0.047  13.200  0.0097 -0.1098 -0.1363
20880W        W39084  16.942  18.300  10.881  0.0929  0.1587 -0.1833
20881W        W39085   1.338   1.344   2.749 -0.2671 -0.1519  0.1324
20882W        W39086  11.413   7.897  12.221  0.0503 -0.2459 -0.0893
20883W        W39087  18.472  13.797  12.287  0.1256  0.1033 -0.0425
20884W        W39088  10.589  17.914   3.289 -0.0300 -0.0925 -0.0630
20885W        W39089  14.747   2.276   1.130  0.1060  0.3782 -0.1780
20886W        W39090  14.662  16.914   1.782  0.1706  0.1956  0.1000
20887W        W39091   4.426   9.062   4.011 -0.1797 -0.0963 -0.2308
20888W        W39092  13.015   5.707   4.268  0.1855 -0.0521 -0.1221
20889W        W39093   9.323   3.868   2.267 -0.1591 -0.5704  0.3180
20890W        W39094  16.054   3.217  12.440  0.0417 -0.1437 -0.1320
20891W        W39095   2.604   4.177   0.796  0.1057 -0.0643 -0.2252
20892W        W39096   1.926   4.664   5.164  0.3348  0.0807  0.2181
20893W        W39097  10.588   5.446  10.353 -0.1521  0.2950 -0.0190
20894W        W39098   0.443   1.486  14.172  0.0234  0.1887 -0.0323
20895W        W39099   2.779  16.616   4.147  0.0541 -0.0517 -0.0414
20896W        W39100  11.839   7.278  11.516 -0.0730  0.2482 -0.2140
20897W        W39101   4.981  13.409   3.266 -0.3017  0.0703  0.1502
20898W        W39102  10.052  15.485  12.208  0.0185  0.2248 -0.0644
20899W        W39103  14.653  12.513  11.868 -0.2575  0.2656  0.3652
20900W        W39104   6.415   9.222  11.265 -0.0758  0.0098 -0.0614
20901W        W39105   3.480  10.565  14.388  0.2232  0.0510  0.2172
20902W        W39106   5.861   9.421  11.187  0.0119  0.1901 -0.1047
20903W        W39107   7.571   0.038   3.410 -0.1328 -0.1462  0.1820
20904W        W39108   3.369   6.181   2.628  0.0694  0.0683  0.0656
20905W        W39109   7.554  11.846   2.176  0.0058 -0.0329 -0.1662
20906W        W39110  18.939   4.795  14.573  0.1603 -0.1499 -0.3907
20907W        W39111   6.470   7.152  10.203 -0.0173  0.1159  0.0922
20908W        W39112  18.723  10.549   2.326  0.1982  0.2670  0.1191
20909W        W39113   2.361   1.405   4.206 -0.1724  0.0094 -0.1819
20910W        W39114   5.756  10.681  13.968 -0.1536 -0.1938  0.4710
20911W        W39115  14.087   6.694  13.179 -0.0717 -0.0421 -0.0652
20912W        W39116   1.175  13.787   0.158 -0.1163  0.0566 -0.0480
20913W        W39117  11.378  12.423  11.130  0.2338  0.1413 -0.2698
20914W        W39118  11.471  18.253  10.883 -0.0971  0.2613  0.1485
20915W        W39119  12.010   0.816   2.329 -0.2291  0.0976 -0.1792
20916W        W39120   1.829  16.668  12.442  0.0251  0.1087  0.1152
20917W        W39121  14.707  18.126  14.813  0.0096  0.0234 -0.0022
20918W        W39122   4.485  18.886   5.028  0.2905  0.0314  0.2128
20919W        W39123  13.685   0.496   2.986  0.2285  0.0058 -0.1068
20920W        W39124   3.440  11.484  12.512 -0.0643 -0.2069  0.0004
20921W        W39125  12.435   1.134  14.006 -0.0735  0.0403 -0.0303
20922W        W39126   4.839   8.780   0.570  0.3788  0.2731  0.1090
20923W        W39127  17.566   1.116   3.110 -0.0156  0.0679 -0.2203
20924W        W39128  12.135  14.157  11.921  0.0881 -0.4817 -0.0008
20925W        W39129  14.951   6.828  14.505 -0.1878 -0.2289  0.0210
20926W        W39130  10.275   4.282  12.446  0.0682 -0.1930 -0.2769
20927W        W39131   8.028  14.440  11.696  0.4399  0.0776 -0.1086
20928W        W39132   7.722  13.468  11.851  0.1539 -0.4079 -0.1666
20929W        W39133   7.277  11.555   0.249  0.2532 -0.2368  0.0113
20930W        W39134   5.024   4.783   4.050 -0.1348  0.0971  0.1424
20931W        W39135  11.770   9.085   1.539  0.2056  0.2689 -0.1739
20932W        W39136  18.854   4.815  12.861 -0.1058  0.1770 -0.1155
20933W        W39137  16.989  16.697  11.553 -0.1105 -0.1062  0.2342
20934W        W39138   7.511  15.236   4.094 -0.0059 -0.0663 -0.1266
20935W        W39139   8.466   1.520  10.394 -0.2420 -0.1975  0.1668
20936W        W39140   8.524  14.849   1.697  0.1483  0.1165 -0.0081
20937W        W39141  15.289   5.670  13.937 -0.2951 -0.0533 -0.0665
20938W        W39142  10.200  16.546  12.782 -0.1912  0.1937  0.1206
20939W        W39143  15.650  11.271  10.978 -0.2750 -0.1507  0.1267
20940W        W39144  17.452  15.047  12.700  0.1207  0.0326  0.2817
20941W        W39145   7.763   2.746  13.693  0.2898  0.1938  0.2193
20942W        W39146   9.365  14.008  11.553 -0.1048  0.1060 -0.0553
20943W        W39147  10.301  12.563   3.901 -0.2687  0.0675  0.1822
20944W        W39148   8.714   5.490   3.629 -0.3634  0.2688  0.4313
20945W        W39149   4.955  11.238  14.224 -0.4171  0.0911 -0.0001
20946W        W39150  12.693   9.268   2.548  0.0366 -0.1539 -0.0664
20947W        W39151   4.531  14.053  12.873 -0.1318  0.0842  0.0204
20948W        W39152   7.120   9.881   1.138 -0.1159  0.3664 -0.4577
20949W        W39153  12.011   2.648  11.997 -0.0729  0.2195 -0.2560
20950W        W39154   2.702   7.251   3.800 -0.0347  0.0122  0.2042
20951W        W39155   4.026   1.637   4.281 -0.3307  0.0950 -0.1340
20952W        W39156  11.947  11.042  11.621 -0.0836 -0.0377 -0.0120
20953W        W39157   0.424  12.204   3.049 -0.0693  0.3961 -0.1580
20954W        W39158   7.820   8.364  13.907 -0.0457 -0.2197  0.0462
20955W        W39159   4.660  10.679   0.535  0.0320  0.1891  0.0390
20956W        W39160   8.908   2.431  11.213 -0.0377  0.1382 -0.2634
20957W        W39161   8.949   1.941  11.013  0.2102 -0.4871  0.0080
20958W        W39162  15.410   0.269  10.717  0.0060 -0.0290 -0.1444
20959W        W39163   5.604  12.805  14.772 -0.1949 -0.3874 -0.0363
20960W        W39164  15.707   1.409  11.957  0.0114 -0.2471 -0.1324
20961W        W39165   5.769  17.760  13.927 -0.0402  0.0424  0.3702
20962W        W39166  11.203  15.451   1.788  0.0334  0.2325  0.0050
20963W        W39167   8.915  13.353   0.657 -0.1699  0.0678 -0.2273
20964W        W39168  17.418  15.147  14.879 -0.0580  0.0301 -0.1433
20965W        W39169  17.989  14.861   1.961  0.4505 -0.1840 -0.0834
20966W        W39170   3.017  14.058   3.756 -0.0853 -0.0119  0.3634
20967W        W39171   7.979   5.919   1.816  0.1734  0.1971 -0.2238
20968W        W39172  14.997  11.680  13.602  0.0967 -0.3252  0.3692
20969W        W39173  10.233   3.381  11.836 -0.0580 -0.2427  0.0085
20970W        W39174   6.760   0.132  11.294  0.0227 -0.0436  0.0186
20971W        W39175  16.266  17.367  12.427  0.1345 -0.0662 -0.3248
20972W        W39176   0.039   3.947  11.063  0.2168  0.0068 -0.2241
20973W        W39177  13.512   2.217  13.613  0.2108  0.0569  0.5088
20974W        W39178  17.174  18.334   1.704  0.0341  0.1376 -0.1112
20975W        W39179  10.543  11.088   2.053 -0.2616  0.0550 -0.0151
20976W        W39180  14.418  10.837   2.740 -0.1736 -0.0861 -0.0739
20977W        W39181  10.876   9.584   4.314  0.1724  0.0566  0.1658
20978W        W39182   7.787   1.659  14.496 -0.1530 -0.3425 -0.1537
20979W        W39183   7.835   7.787  13.043  0.0582 -0.0714 -0.1448
20980W        W39184   8.912   1.995   1.498  0.4724  0.2128  0.0812
20981W        W39185  10.203   7.162   0.059 -0.0391 -0.0111 -0.2125
20982W        W39186  12.581   5.280   4.571  0.0191 -0.1696  0.1001
20983W        W39187   2.160   0.680   3.588  0.0218 -0.2269 -0.2698
20984W        W39188   9.929  12.645  12.850  0.1138 -0.4311  0.0395
20985W        W39189   9.072  12.578   2.212  0.0557  0.1409  0.0796
20986W        W39190  15.468   6.319   3.960 -0.0412 -0.3109 -0.2447
20987W        W39191   3.211  12.033   1.420  0.2954 -0.2195  0.1111
20988W        W39192  18.851  18.638   2.551 -0.0130 -0.2979  0.1796
20989W        W39193  16.393  10.951  13.916 -0.1018  0.0484 -0.0016
20990W        W39194   4.898  13.358   1.262  0.2202 -0.1071 -0.0372
20991W        W39195   2.369   0.884  10.568 -0.2885  0.1970  0.0800
20992W        W39196  16.679   8.712  13.371 -0.0724 -0.0790  0.3995
20993W        W39197  13.114  14.055  11.706 -0.0620  0.2260  0.1198
20994W        W39198  18.534   9.232  12.718 -0.1046 -0.2564  0.2160
20995W        W39199   9.958   6.049  12.781  0.0851 -0.1150  0.3742
20996W        W39200  12.099   5.123   0.414 -0.3188  0.1971 -0.1022
20997W        W39201  14.678  12.813  11.415 -0.1093 -0.1651  0.3073
20998W        W39202  14.832   5.822   4.171 -0.1202 -0.1592  0.0973
20999W        W39203   4.145   5.360  14.477  0.0760 -0.1831 -0.0948
21000W        W39204   6.794  14.206   2.827  0.2536  0.1680  0.0740
21001W        W39205   9.153   7.883   2.279 -0.1179 -0.0273  0.1639
21002W        W39206  11.588   5.531   4.778 -0.0408 -0.3274 -0.1279
21003W        W39207   4.128   9.031  10.913  0.1519 -0.0579 -0.0262
21004W        W39208  15.110   9.843   4.552  0.2684  0.0248  0.4341
21005W        W39209   5.089  18.536  12.411  0.3323 -0.4209  0.1348
21006W        W39210   1.296  14.398   1.581  0.1249 -0.0662  0.0727
21007W        W39211  16.217  15.416  10.233 -0.0309  0.0106 -0.2099
21008W        W39212  17.287  18.781  13.170 -0.2518 -0.0870  0.0462
21009W        W39213  13.829   4.438   2.750 -0.1601  0.1999 -0.1181
21010W        W39214  12.296   5.866   3.128 -0.1344  0.1808 -0.2307
21011W        W39215  14.617   5.630   3.766 -0.0062 -0.0643 -0.0780
21012W        W39216   9.486  16.971  13.849 -0.0497 -0.2238 -0.2702
21013W        W39217  13.984  17.651  12.250  0.2847  0.1660  0.1697
21014W        W39218   7.379  16.908  12.871  0.1548  0.2964  0.2786
21015W        W39219   9.096   6.349   2.904 -0.0468  0.2260 -0.0893
21016W        W39220   7.380   6.650  14.403 -0.2250  0.0742 -0.1536
21017W        W39221  15.402  15.414   3.897 -0.0896  0.3774 -0.1418
21018W        W39222  10.424   2.669   2.036 -0.1139 -0.0846 -0.3956
21019W        W39223  14.715   8.568  13.205 -0.0279  0.1505  0.0368
21020W        W39224  13.171  10.923  13.114 -0.1326  0.1390 -0.2791
21021W        W39225   0.255  16.571   4.164  0.1459 -0.0288 -0.1774
21022W        W39226  14.987   6.713  11.714  0.2898 -0.1875 -0.0014
21023W        W39227  17.637   7.130  12.704 -0.3118 -0.3233 -0.0041
21024W        W39228  15.685  17.270  13.615 -0.1301 -0.0728  0.0051
21025W        W39229  17.717  16.735   3.886 -0.3281 -0.2440  0.2935
21026W        W39230  17.316  14.863   2.615  0.0627  0.1779 -0.0839
21027W        W39231  11.609  15.124   2.808 -0.0702  0.4080  0.2748
21028W        W39232  14.408  16.250  14.412  0.1471  0.0267  0.0181
21029W        W39233   7.485   8.774   3.449  0.1596 -0.1468 -0.2201
21030W        W39234   1.328   5.696   4.556  0.0500 -0.0848 -0.2597
21031W        W39235  13.248  15.432  14.737  0.1429 -0.4311  0.1678
21032W        W39236   1.431   8.200  12.474  0.0545 -0.2198 -0.2104
21033W        W39237  15.252   6.959   9.810  0.4301  0.1521 -0.1209
21034W        W39238  11.581  17.231   1.024 -0.0063  0.1013  0.1360
21035W        W39239  15.195   7.332  14.412  0.1562  0.0791  0.0701
21036W        W39240  10.199  14.963   1.133  0.2174  0.1689  0.4111
21037W        W39241   2.157  14.030  10.488  0.2365 -0.1099 -0.2722
21038W        W39242  15.497   4.649  13.544  0.0756  0.3526  0.0077
21039W        W39243   6.310   3.519  13.611  0.1282  0.0658  0.0046
21040W        W39244   9.862   1.207   1.755  0.0340  0.3532  0.0715
21041W        W39245   5.240   5.227   3.183 -0.1540  0.0690 -0.1019
21042W        W39246  13.321   7.789   1.192 -0.1628  0.0750 -0.4381
21043W        W39247  12.537   1.936   1.224  0.3092  0.1882 -0.1755
21044W        W39248   2.304   6.343   2.115  0.3311 -0.1394  0.0459
21045W        W39249   3.012  12.972   1.940  0.4301  0.2899  0.0062
21046W        W39250   3.441   7.198  13.611 -0.1489  0.5458  0.2185
21047W        W39251   1.868   2.872  13.091 -0.2614 -0.1354  0.3364
21048W        W39252   1.099  11.932  12.238 -0.0478 -0.0244 -0.1444
21049W        W39253   7.396   1.000  13.176 -0.0807 -0.1160  0.0055
21050W        W39254  16.929  10.161  14.693 -0.1781 -0.0065 -0.1603
21051W        W39255  14.481  11.809  12.434 -0.0301  0.4440 -0.0500
21052W        W39256   3.303   5.089   9.809 -0.1384  0.2681  0.0338
21053W        W39257  16.340   4.796   2.310  0.1285  0.1989 -0.4076
21054W        W39258   9.892   9.845   2.413 -0.1111  0.0238  0.1392
21055W        W39259  13.069  13.288  14.468 -0.0443  0.3011 -0.0961
21056W        W39260  11.252  11.593   1.206 -0.0981  0.0426  0.1578
21057W        W39261   7.664   7.538   4.438 -0.2637  0.2857 -0.2287
21058W        W39262  15.468   2.263   1.884 -0.1500 -0.0798  0.1397
21059W        W39263  11.952   1.102   1.894  0.2432 -0.0985  0.0641
21060W        W39264   1.782  12.195   0.253 -0.3604 -0.0776 -0.0625
21061W        W39265   8.099  17.236   0.988 -0.1736 -0.1180  0.1041
21062W        W39266   5.091   8.117  12.317  0.3546  0.0133  0.0027
21063W        W39267  14.019   9.635  12.647 -0.2584 -0.1624  0.0074
21064W        W39268   3.541  14.500  12.980  0.1911  0.1176  0.2358
21065W        W39269  12.285   3.977  12.370  0.0961 -0.0071 -0.0604
21066W        W39270   2.446  10.212  10.243 -0.0048  0.1560  0.2041
21067W        W39271  16.733   5.917  13.563  0.3625 -0.0709 -0.0147
21068W        W39272  16.846   4.254  13.711 -0.3431  0.0071 -0.1696
21069W        W39273  18.616  10.296   4.513 -0.0062 -0.1534  0.1479
21070W        W39274   1.248  14.720  10.976  0.0738  0.3578  0.0939
21071W        W39275  16.008   9.324  13.053  0.4650 -0.1986  0.1230
21072W        W39276   8.553  16.681   2.783 -0.2128  0.1218 -0.0832
21073W        W39277  18.804   8.570   2.149 -0.0824 -0.0645 -0.2263
21074W        W39278  14.952  14.593   1.373 -0.2818  0.1493  0.0572
21075W        W39279  17.813   7.650  12.762  0.1744 -0.1100 -0.2115
21076W        W39280   7.104   6.931  11.693 -0.0336  0.1679 -0.0130
21077W        W39281   1.694   8.342  10.514  0.3259 -0.0698 -0.0944
21078W        W39282   4.817  11.095   1.139  0.1993 -0.0182 -0.1214
21079W        W39283  12.364   7.240  10.192  0.1605 -0.4012 -0.1462
21080W        W39284   1.022   6.355  12.021  0.1030  0.4272  0.2057
21081W        W39285  18.598   8.203  11.660 -0.3068  0.5158 -0.0558
21082W        W39286  16.893   9.539  12.034 -0.0298  0.1632 -0.2411
21083W        W39287   2.511  16.418  10.435  0.2900  0.1321 -0.0132
21084W        W39288   4.814  13.844  14.719  0.0171 -0.4530  0.0053
21085W        W39289   2.586   8.936  14.412  0.1622 -0.3124 -0.2298
21086W        W39290  18.032   1.957  13.875  0.3079  0.1899  0.2413
21087W        W39291   1.263  10.458   2.228 -0.0874 -0.2520  0.0795
21088W        W39292  14.458  16.175   3.158  0.2454 -0.0346  0.3882
21089W        W39293   4.133  16.746   9.537  0.1614 -0.0951 -0.0344
21090W        W39294  16.656   9.102   0.365  0.0713  0.0912  0.0598
21091W        W39295   2.559  17.771  13.249  0.5076 -0.1429  0.2015
21092W        W39296   3.812   6.813  13.819  0.4201 -0.0102  0.1239
21093W        W39297  13.318  16.326   2.823 -0.3119  0.3951  0.0035
21094W        W39298  16.016  11.299  11.464 -0.0030  0.2341 -0.0626
21095W        W39299  16.358   7.756  11.408 -0.2866 -0.1789 -0.0958
21096W        W39300   8.378  15.653  11.956 -0.2253  0.1483  0.2644
21097W        W39301  17.188  12.858   2.366  0.0328  0.3464  0.0112
21098W        W39302  16.229   3.174  11.948 -0.1263  0.0090  0.0586
21099W        W39303   5.943   4.102   3.195  0.1755 -0.0982 -0.1726
21100W        W39304  13.898   0.314  12.190 -0.1882 -0.0504  0.1574
21101W        W39305   8.119   0.142   2.978  0.1808 -0.0773  0.0334
21102W        W39306  16.952   5.859   0.164  0.0296 -0.2206 -0.1620
21103W        W39307  17.382   8.386   3.550 -0.0178 -0.0396 -0.1335
21104W        W39308   2.687   2.662  13.589  0.0998  0.5158 -0.1839
21105W        W39309   3.915  16.618  14.904  0.1595  0.0460 -0.1578
21106W        W39310   6.059   2.156  12.295  0.0167 -0.1673  0.2629
21107W        W39311  10.449   0.222  11.320 -0.3125  0.3546 -0.4225
21108W        W39312  16.362  14.284   1.679 -0.1223  0.5523 -0.2523
21109W        W39313  18.014   0.944  14.634 -0.0756 -0.2277  0.0260
21110W        W39314   4.018   1.839  14.734  0.1656 -0.0014  0.1641
21111W        W39315   7.708   0.377   3.003 -0.2662  0.0584 -0.2827
21112W        W39316  16.580  10.878   1.407  0.0315  0.2415  0.0494
21113W        W39317   0.709   6.731  10.455 -0.3386 -0.0057  0.0053
21114W        W39318  11.439   5.102  13.596  0.3229 -0.0904  0.2098
21115W        W39319   7.832   1.972   2.124  0.0701 -0.1290 -0.1121
21116W        W39320   0.619  10.682  11.170  0.0718  0.2150 -0.0141
21117W        W39321   4.484  17.238  14.389 -0.0441  0.0719 -0.2572
21118W        W39322   5.175  16.558   2.000  0.0813  0.0444 -0.0675
21119W        W39323   6.186   1.037  13.326  0.0965 -0.3052  0.0064
21120W        W39324   4.425   7.488  11.452  0.0942  0.0855  0.1703
21121W        W39325   8.136   5.251   4.361  0.5134  0.2940 -0.1242
21122W        W39326  17.217   1.626  10.971 -0.1204 -0.0756 -0.4845
21123W        W39327  10.328   1.350   0.524 -0.0164 -0.1404  0.3394
21124W        W39328  14.016  18.489   0.448 -0.0130 -0.2238 -0.0137
21125W        W39329   6.563   5.767  12.987  0.0154  0.0906 -0.1703
21126W        W39330   7.005  15.845  11.694 -0.2045  0.0109  0.2605
21127W        W39331   1.469   1.627   4.461  0.0429  0.3761 -0.1408
21128W        W39332   0.601   9.053   3.456  0.0250  0.1889  0.0488
21129W        W39333   3.487   1.402  11.590 -0.2000 -0.1218 -0.3490
21130W        W39334  16.437   5.229  14.158  0.0842 -0.3257 -0.2869
21131W        W39335   7.141  13.046   0.557  0.2956  0.2940 -0.1146
21132W        W39336  14.337   7.141   2.614 -0.1404  0.0261  0.0254
21133W        W39337  14.573  13.163  14.615  0.0775 -0.0478  0.1268
21134W        W39338   3.391  11.083   2.010  0.0864  0.0261  0.0588
21135W        W39339   3.370   8.828  12.794 -0.1448 -0.1676 -0.0213
21136W        W39340  12.530  18.898  14.018 -0.1127 -0.2166  0.0157
21137W        W39341   3.197  17.557  14.526  0.4505 -0.0932  0.0254
21138W        W39342  18.278  15.479   0.772 -0.2339 -0.1582  0.1523
21139W        W39343   5.585   0.130  11.830 -0.0051  0.1678 -0.0180
21140W        W39344  10.928   7.538   2.088 -0.0096  0.2854  0.1802
21141W        W39345   8.686   7.051   3.317 -0.1291  0.1606  0.0032
21142W        W39346   0.413   3.137  11.523 -0.0352  0.1767  0.0181
21143W        W39347   3.762   6.243  11.114  0.0760  0.2980  0.1736
21144W        W39348   1.835   3.400  11.651 -0.1068 -0.2380 -0.0402
21145W        W39349   5.325  16.581   9.538  0.1290 -0.1162  0.2116
21146W        W39350  17.464   9.431  13.503  0.0817 -0.0637 -0.1143
21147W        W39351   7.046   8.362   2.798  0.0933  0.0335  0.0800
21148W        W39352  12.901  11.407  11.570  0.2666  0.0925 -0.1706
21149W        W39353  14.316   5.426  14.769 -0.3717  0.0273  0.0129
21150W        W39354  11.274   6.507  11.001  0.0064 -0.0330 -0.3742
21151W        W39355  18.223   0.008  14.588 -0.2585 -0.4188 -0.1372
21152W        W39356  15.098  15.771  10.782 -0.1676  0.3146  0.1988
21153W        W39357   4.670   3.664   1.297  0.0772 -0.1835  0.1355
21154W        W39358   1.789   4.161   1.403 -0.1420  0.0872 -0.2361
21155W        W39359  17.988   0.076  12.108 -0.0245 -0.2593 -0.3227
21156W        W39360   8.699   0.632  10.052  0.4490  0.2265 -0.1355
21157W        W39361  12.918   9.020  11.063  0.1560  0.2461  0.2423
21158W        W39362   0.024   0.690  13.516 -0.0105 -0.0120  0.0748
21159W        W39363  16.910  15.865   2.471  0.0250 -0.0776 -0.0389
21160W        W39364  13.566   1.822  10.839 -0.2790  0.0717  0.1034
21161W        W39365  18.192  10.293  11.562  0.5310  0.0837 -0.3091
21162W        W39366   8.571   6.068   3.646 -0.0033 -0.0024  0.0775
21163W        W39367   7.173  18.694   0.582 -0.2606 -0.0540 -0.0724
21164W        W39368   4.181   7.593  10.530 -0.0018 -0.3230  0.0758
21165W        W39369   2.455   2.215  14.488 -0.0390 -0.0668 -0.3278
21166W        W39370  15.596  13.391  14.364  0.2048  0.1220  0.0237
21167W        W39371   6.753  16.542  10.863 -0.0616  0.2313  0.1883
21168W        W39372   1.008  11.531  11.907  0.0782 -0.1658 -0.1932
21169W        W39373   5.570  16.951   4.130  0.0352 -0.0167 -0.3068
21170W        W39374  10.938   2.491   0.271  0.1428  0.1303 -0.1237
21171W        W39375  15.366  12.660   3.773 -0.1801  0.0850  0.1759
21172W        W39376   5.860  14.070  10.536 -0.0121  0.0156  0.0543
21173W        W39377   9.052   9.662   3.681 -0.1683  0.0622  0.2014
21174W        W39378   6.405  17.674   0.552  0.1274  0.3965  0.3132
21175W        W39379   6.942   6.435  12.745  0.2140 -0.0356 -0.1198
21176W        W39380  16.732  15.184  10.353 -0.2594  0.2185 -0.0887
21177W        W39381   2.155  17.955  13.512 -0.0988  0.1781  0.2624
21178W        W39382   2.927   5.208   1.217 -0.1071  0.5410  0.2708
21179W        W39383  13.998  12.891  14.951  0.0667 -0.0030 -0.0776
21180W        W39384   5.217   8.309  11.265  0.0133 -0.0611  0.0175
21181W        W39385   0.858  12.319   0.668  0.0807 -0.2296 -0.0066
21182W        W39386   8.381  10.994   0.270  0.2963 -0.3300 -0.0964
21183W        W39387   2.250   2.905   1.608 -0.1402  0.3886 -0.1028
21184W        W39388  17.993  12.820   0.280  0.0939 -0.1345  0.2586
21185W        W39389   7.417   7.190  13.146 -0.0199  0.0524 -0.0581
21186W        W39390  16.689   3.899   1.823 -0.1860 -0.0774  0.0079
21187W        W39391   8.472  12.051   0.615  0.1179  0.0767  0.0259
21188W        W39392  17.847  13.366  12.681 -0.2390  0.2547  0.5807
21189W        W39393  10.164   6.549   3.751 -0.1869 -0.0712  0.0737
21190W        W39394   6.902  16.846   3.655  0.0790 -0.1334  0.1631
21191W        W39395  14.058  15.836  12.408 -0.2092 -0.1184 -0.2581
21192W        W39396   5.753   3.027  13.229  0.1334 -0.1445 -0.1095
21193W        W39397  13.188   8.489  11.932  0.0532 -0.3621  0.0474
21194W        W39398   0.734   3.910  13.198  0.0132  0.0217 -0.0388
21195W        W39399   8.050   8.904   4.268 -0.2615  0.2501 -0.1180
21196W        W39400   9.254  17.268  13.260  0.0926 -0.2529 -0.1119
21197W        W39401   0.540   4.574   2.170  0.2022  0.2911  0.0828
21198W        W39402   1.294  18.106   4.022  0.0553 -0.0139  0.0325
21199W        W39403   3.539  18.245  13.200  0.4392  0.1801 -0.0901
21200W        W39404  16.071   2.550   0.494  0.0858 -0.0090  0.2429
21201W        W39405  11.816   9.168  12.744 -0.1376 -0.0948  0.2589
21202W        W39406  10.773   1.841  10.146 -0.0010 -0.0388 -0.3113
21203W        W39407  15.432   7.708   4.855  0.2417  0.2459  0.4001
21204W        W39408  10.252   1.598   4.093  0.1684 -0.1120  0.2733
21205W        W39409  16.324  13.104   0.410  0.0046 -0.0340 -0.0459
21206W        W39410   4.075   8.568   0.912  0.0651 -0.0398  0.1573
21207W        W39411  15.862   4.370  10.117 -0.0476 -0.0627 -0.2858
21208W        W39412   9.583   3.094  11.177 -0.0617  0.1570 -0.2146
21209W        W39413  12.932   3.475   0.023  0.3517 -0.2951  0.0128
21210W        W39414   7.391   9.765  13.393 -0.0496  0.0851 -0.1086
21211W        W39415   1.768  10.197  12.362  0.1845  0.0083  0.1677
21212W        W39416  16.198  18.735  11.020  0.3278 -0.1778 -0.2767
21213W        W39417   8.602   4.911  13.676  0.1038  0.0241 -0.4464
21214W        W39418   8.780  12.057  10.670  0.0048 -0.0355 -0.1621
21215W        W39419   9.765  18.679  14.033  0.0579 -0.1283 -0.0999
21216W        W39420   8.881  15.549  14.637  0.0803 -0.0256  0.0117
21217W        W39421  15.383  15.384  14.244 -0.2790 -0.0930 -0.2366
21218W        W39422  12.359   6.725  13.359 -0.1175  0.2006  0.0185
21219W        W39423  15.828  14.000   4.107  0.2839 -0.0550 -0.3034
21220W        W39424   3.573   0.559   3.845 -0.1346  0.2131  0.1459
21221W        W39425  10.577  16.357   3.886 -0.0373  0.1571 -0.1317
21222W        W39426  10.840   3.714  14.331  0.2356  0.1043 -0.1312
21223W        W39427  14.341  12.086   1.691 -0.4675 -0.0780  0.0228
21224W        W39428   7.004  11.473  13.977 -0.0811  0.1419 -0.2740
21225W        W39429   9.714  12.157   0.375 -0.0500  0.0370 -0.3596
21226W        W39430   5.527   4.941  13.621 -0.1203 -0.3334  0.1258
21227W        W39431   6.162   6.045  12.897 -0.0291 -0.0223  0.3815
21228W        W39432  17.335  15.137  12.228 -0.0921 -0.3454  0.1858
21229W        W39433   2.942   0.355  12.633  0.3125  0.3092  0.0350
21230W        W39434   9.240   3.277   0.866  0.2830 -0.0146  0.0374
21231W        W39435   2.744   4.094  11.327 -0.3032 -0.0167 -0.3939
21232W        W39436   5.036  13.676  13.104 -0.1077  0.2110  0.0579
21233W        W39437  10.188   3.082  13.856 -0.2047  0.1476  0.0101
21234W        W39438   6.480  16.923   3.917 -0.3370  0.5061  0.0805
21235W        W39439   1.876   2.850  14.405  0.0262  0.1667  0.0908
21236W        W39440   9.515  17.954   0.354 -0.2387 -0.0780 -0.0324
21237W        W39441  14.511  10.987   0.551 -0.3142 -0.0860  0.0144
21238W        W39442   6.641   4.248   1.525  0.0664  0.1108 -0.1571
21239W        W39443   9.871  12.664  11.889 -0.3307  0.2256  0.1294
21240W        W39444  14.296   9.819   3.666  0.0596  0.0190 -0.1273
21241W        W39445   3.387  10.642  11.301  0.0065 -0.1721 -0.1693
21242W        W39446   7.690   3.495  13.324  0.2505 -0.1521 -0.0795
21243W        W39447   9.209   6.214  13.915  0.1766 -0.1530  0.1396
21244W        W39448   8.668  10.721  13.380  0.1326 -0.0439 -0.5002
21245W        W39449   3.605   0.336   1.323 -0.0255  0.1372 -0.1417
21246W        W39450   9.686  14.375  14.267 -0.0143 -0.1741 -0.5200
21247W        W39451   2.354  18.889   4.132 -0.1025 -0.0848  0.1469
21248W        W39452   9.225  16.396  12.628  0.0761 -0.1048 -0.1356
21249W        W39453  18.947   5.352  10.798 -0.0200  0.1781  0.1509
21250W        W39454   2.734  17.946  10.228  0.2878 -0.1407  0.2194
21251W        W39455   8.410   8.019   4.004 -0.1802 -0.1275 -0.1126
21252W        W39456  18.762  17.461   1.201 -0.0430 -0.1709  0.1348
21253W        W39457   3.380  10.078   1.764  0.0505  0.0172 -0.1312
21254W        W39458   7.657  18.596  11.522 -0.2552  0.0357 -0.1901
21255W        W39459  18.410  14.937  12.988 -0.1648  0.3465 -0.2162
21256W        W39460   4.410   7.837   4.460  0.1908  0.0121 -0.1414
21257W        W39461   5.806   8.551   4.540 -0.1773 -0.6143  0.2907
21258W        W39462  12.635   7.340   0.125  0.0003  0.1105  0.1112
21259W        W39463   7.348   8.691  13.628  0.2751 -0.0426 -0.0270
21260W        W39464  13.545  17.412   0.857  0.1323  0.3411  0.0632
21261W        W39465  16.584  10.997   4.666 -0.1815  0.1190  0.0325
21262W        W39466  10.227  12.841   3.416  0.1692  0.0506 -0.1845
21263W        W39467  10.159   5.847   2.387 -0.2218 -0.2659 -0.1579
21264W        W39468  15.305   7.831   1.692 -0.0210  0.1975 -0.0618
21265W        W39469  12.614   1.422  10.432  0.1581  0.0815 -0.0864
21266W        W39470   8.228  13.706  11.912  0.1489  0.1998  0.1851
21267W        W39471  12.294   3.304   0.344 -0.3579 -0.1830 -0.2237
21268W        W39472  16.460   7.046   3.860  0.3884  0.0486  0.1223
21269W        W39473  10.163  18.133   4.566  0.0415 -0.1176  0.2109
21270W        W39474   4.775   1.749   0.516 -0.0314 -0.1772 -0.0727
21271W        W39475  15.993  14.245  12.368 -0.2316 -0.2316 -0.0196
21272W        W39476   1.140   8.969  11.457 -0.0991 -0.2058 -0.0638
21273W        W39477   2.372   9.390   3.744  0.1648  0.0172 -0.1811
21274W        W39478  11.662  18.159  11.506  0.0992 -0.0954 -0.1454
21275W        W39479   3.414  11.081   1.508  0.2799 -0.0840  0.1557
21276W        W39480  18.275   9.074   0.822  0.1789  0.1397  0.0153
21277W        W39481  18.039  17.974  14.091 -0.4002 -0.3071 -0.2373
21278W        W39482   2.003  11.092  14.349  0.2325 -0.0317 -0.0276
21279W        W39483  12.594  14.665   2.379 -0.0297  0.3206 -0.0922
21280W        W39484  15.201   7.357   1.845  0.1721 -0.1006  0.1326
21281W        W39485  10.829  14.845   2.859 -0.3205 -0.2823 -0.2431
21282W        W39486   6.624   6.288  14.405 -0.3430 -0.4482 -0.3970
21283W        W39487  14.706  16.130  10.198  0.0157 -0.0927  0.0632
21284W        W39488   5.120  18.791  11.982 -0.0072  0.0542 -0.0427
21285W        W39489   0.690   1.636  12.851  0.1941 -0.2417  0.0394
21286W        W39490   8.039  15.143   2.148 -0.2755 -0.0105 -0.3062
21287W        W39491   3.481  15.310   2.488  0.0452  0.2368 -0.0757
21288W        W39492   9.831   3.379  13.724  0.1076 -0.2293 -0.0376
21289W        W39493  11.615   6.718  10.543 -0.1689  0.3259 -0.0614
21290W        W39494  10.769  14.063  13.633  0.4075 -0.0701  0.0581
21291W        W39495  14.203   7.021   3.877  0.1056 -0.4957 -0.0541
21292W        W39496  15.204   9.810  13.015  0.1533  0.0303 -0.2118
21293W        W39497   9.045  10.324  11.956  0.0166  0.0304  0.3171
21294W        W39498  14.525   9.248  11.379  0.0417  0.0280 -0.0679
21295W        W39499   6.552   0.340  13.849  0.0978  0.0995  0.3335
21296W        W39500   5.672   7.249  13.497 -0.0205 -0.0919  0.3251
21297W        W39501  13.359   6.954   4.317 -0.3877  0.3981  0.1147
21298W        W39502   0.733  11.595   1.623 -0.3324 -0.2938 -0.0635
21299W        W39503   4.967  10.638  11.836  0.0091  0.0144  0.0714
21300W        W39504  12.875  10.847   2.365 -0.3177 -0.0555  0.1348
21301W        W39505  10.487   4.950   4.354 -0.0158  0.2036 -0.2603
21302W        W39506  15.463  11.910  13.373  0.0724 -0.0470  0.0578
21303W        W39507   6.184  11.930   5.463  0.2633 -0.1462  0.1615
21304W        W39508   7.066  16.853  11.929  0.1010  0.4166  0.1937
21305W        W39509  17.766   9.756  14.689  0.0558  0.0431  0.0324
21306W        W39510  11.014   1.215  13.657 -0.1429 -0.0306  0.1036
21307W        W39511   7.025  16.018  13.490  0.2627 -0.1241  0.0872
21308W        W39512   9.330   5.124   2.262 -0.0124  0.2119  0.2095
21309W        W39513   3.581   4.978   3.709 -0.2949  0.0924  0.1377
21310W        W39514  12.362   4.432   2.470 -0.0038  0.1546  0.3271
21311W        W39515  18.471   1.788  11.745  0.0765 -0.2139  0.4351
21312W        W39516  14.758   7.827  13.699 -0.0950 -0.1957  0.1154
21313W        W39517   8.479   7.078  11.550  0.1307 -0.0157  0.0669
21314W        W39518  14.726   1.581  10.915  0.1926  0.1846 -0.1035
21315W        W39519  14.744   5.875   5.394  0.0703  0.2049 -0.2162
21316W        W39520   0.308   3.808   0.196 -0.3317  0.1549 -0.1581
21317W        W39521   6.374   7.235   1.573  0.0880 -0.1869  0.2763
21318W        W39522  16.146  16.591   1.274  0.0043  0.0825  0.0735
21319W        W39523   5.849  18.068   4.114 -0.0821 -0.1371  0.2488
21320W        W39524  10.301   0.820   1.499  0.1575  0.1245 -0.0288
21321W        W39525   8.280   0.956  13.309  0.0170  0.0572  0.4577
21322W        W39526  18.197   3.263   2.457 -0.1828 -0.0219 -0.0746
21323W        W39527  18.144  17.698  14.524 -0.2411  0.0413  0.0477
21324W        W39528  13.065   9.541  11.340 -0.0185 -0.3786 -0.1362
21325W        W39529  18.355  13.942  14.621  0.1194  0.1597  0.0529
21326W        W39530  16.829  11.289   1.360  0.2278 -0.3893 -0.0949
21327W        W39531   7.171  11.490   4.495 -0.0370 -0.0640  0.0362
21328W        W39532   9.472   2.103  14.736 -0.0573 -0.0244  0.0794
21329W        W39533   1.275  10.083  12.415  0.1642 -0.3178 -0.0622
21330W        W39534  13.591  15.111  14.466  0.2970  0.0514 -0.0154
21331W        W39535  13.841   0.217   2.618 -0.0833  0.1959 -0.1571
21332W        W39536   7.248   2.562  13.385  0.0898  0.1085  0.0165
21333W        W39537  18.306  10.461  12.902  0.0112  0.0820  0.0552
21334W        W39538  15.088   1.429   1.514  0.0458  0.0077 -0.1487
21335W        W39539  17.749  14.180  12.969  0.0475  0.4417  0.0120
21336W        W39540  13.255   9.314  11.779 -0.0417 -0.0831 -0.0640
21337W        W39541  17.624   9.349   1.445 -0.1486 -0.1109 -0.1178
21338W        W39542   3.414   6.839   2.546  0.0255  0.2050  0.0154
21339W        W39543   0.182   7.181  10.894 -0.1258  0.0430 -0.1291
21340W        W39544   0.380  16.419   0.738 -0.1423 -0.0774  0.0529
21341W        W39545  13.104   4.567  12.980  0.1692 -0.2066  0.2610
21342W        W39546   4.050  10.938   1.628 -0.0756 -0.0674  0.0926
21343W        W39547   2.640   6.128   0.953  0.3204  0.0113  0.1235
21344W        W39548  15.815  16.047   1.531 -0.0157  0.0460 -0.2734
21345W        W39549  11.620   8.318   2.526 -0.1383 -0.5266  0.0059
21346W        W39550   4.748   2.218   3.428 -0.0060 -0.1803 -0.0724
21347W        W39551   8.221  16.558   1.553 -0.4679  0.1025 -0.1657
21348W        W39552   9.361  13.152  11.743 -0.1160  0.2741  0.1099
21349W        W39553  16.196  12.435  14.028  0.1610  0.1345 -0.1731
21350W        W39554   9.955   7.452  11.102 -0.0567 -0.1531 -0.1099
21351W        W39555  12.982   2.629  11.959 -0.2495  0.0198  0.1393
21352W        W39556   6.121   7.136   4.306 -0.4058  0.1976 -0.0351
21353W        W39557   0.304   8.843   2.420  0.2825 -0.1150  0.2578
21354W        W39558  16.176  10.023  12.117  0.3207 -0.1418  0.2149
21355W        W39559  18.867   6.482   1.334  0.2129  0.0605 -0.0341
21356W        W39560   6.292   3.604   1.778 -0.0922  0.2955  0.2277
21357W        W39561   4.185   8.680   3.551  0.0772 -0.0274  0.0085
21358W        W39562  17.126  16.378   0.990 -0.1200  0.0249  0.1697
21359W        W39563   8.555   3.693  12.469 -0.0342  0.0610 -0.1778
21360W        W39564  12.934  15.580   3.324  0.4475 -0.0287 -0.1806
21361W        W39565   3.442   6.920   1.813 -0.1122 -0.2044  0.4828
21362W        W39566   1.521  14.303   1.019  0.0902  0.0676 -0.3170
21363W        W39567   8.093  16.329   2.861  0.0496 -0.0944  0.1434
21364W        W39568  16.971  18.787   2.749 -0.1322  0.1232 -0.3289
21365W        W39569  18.736  14.556   1.089  0.1287 -0.3039 -0.0848
21366W        W39570  14.991   8.222  12.828 -0.1619  0.2842  0.2207
21367W        W39571   4.384   3.542  13.033  0.0225 -0.2677  0.2876
21368W        W39572   5.271   9.302  13.493 -0.1162  0.2852  0.1306
21369W        W39573  14.206  10.365   2.657  0.1809 -0.5785 -0.2231
21370W        W39574   7.670   0.674   3.394 -0.0958  0.0911  0.1872
21371W        W39575  14.443   0.876  11.653 -0.2160 -0.1924  0.0305
21372W        W39576   9.392  13.692   1.875  0.1233  0.1336  0.6453
21373W        W39577   1.375   0.610   1.635  0.0280  0.3303 -0.1881
21374W        W39578  10.057  11.638  13.188  0.0609 -0.1044 -0.2221
21375W        W39579   0.275   0.590   4.123 -0.1147  0.0151 -0.1539
21376W        W39580  10.511   4.961  10.135  0.1942 -0.1854 -0.0990
21377W        W39581   2.808   1.933  11.161  0.0049  0.2906 -0.2180
21378W        W39582  16.333  18.307  12.060 -0.0173 -0.0537  0.1006
21379W        W39583   8.435   7.881   3.455  0.6490  0.0896  0.3817
21380W        W39584   7.425   9.436   1.262  0.0643 -0.1831 -0.0755
21381W        W39585   1.212  10.396   3.738  0.0287  0.0832 -0.1662
21382W        W39586   8.817   0.938   1.631  0.0910 -0.3039  0.2550
21383W        W39587   4.718   1.224   2.892  0.1478  0.0804 -0.2065
21384W        W39588   6.668  13.379   0.798  0.1402 -0.0407  0.0100
21385W        W39589  13.649   2.111   4.134 -0.2445 -0.1505  0.1058
21386W        W39590  11.162  15.737   3.927  0.1469  0.5639 -0.1405
21387W        W39591   8.633  17.220   1.143 -0.0781  0.1157  0.2866
21388W        W39592  18.104  11.945   2.844  0.0441 -0.0605  0.4360
21389W        W39593   2.287   9.349   2.199  0.5448  0.2064  0.1316
21390W        W39594  13.090   9.886  10.939  0.1367  0.2358  0.3781
21391W        W39595  18.787  16.150   0.697 -0.1975  0.0376  0.0221
21392W        W39596   1.429  14.262   0.218 -0.2175 -0.0269  0.1337
21393W        W39597  17.757   2.511   0.214  0.0707 -0.0311 -0.1809
21394W        W39598  18.403   4.802  13.710  0.2692 -0.0121 -0.2157
21395W        W39599  11.688   2.911  14.937  0.1093  0.4147 -0.2707
21396W        W39600   9.580  13.213   4.226 -0.2084  0.1184  0.0153
21397W        W39601   9.799   7.623  11.635 -0.0672 -0.1900 -0.1456
21398W        W39602   5.534   2.392   0.788 -0.1943 -0.2933  0.1542
21399W        W39603   3.852   5.503  14.044 -0.2170  0.2540  0.2279
21400W        W39604   3.841  16.893   1.181 -0.0134  0.0094  0.1705
21401W        W39605  17.929   7.731   0.131 -0.2965  0.0850  0.3664
21402W        W39606   1.952   9.042  12.816  0.0559 -0.1899  0.0217
21403W        W39607  11.611  18.577   1.234 -0.0153  0.2110 -0.2297
21404W        W39608   3.944   1.286  11.730 -0.2182 -0.1146  0.5125
21405W        W39609  18.613  11.393   0.406  0.1432 -0.1399 -0.1892
21406W        W39610   5.820   0.698   4.374 -0.0201  0.2048  0.2820
21407W        W39611  10.009   1.850  12.441  0.0098 -0.1540  0.0183
21408W        W39612  18.441   0.047  12.357 -0.0597  0.1394  0.0788
21409W        W39613  18.864   7.941   1.702 -0.0540 -0.0057  0.0546
21410W        W39614  15.789  11.394   3.805  0.1074 -0.2536 -0.1380
21411W        W39615  18.614   9.381   4.595 -0.1994 -0.1109  0.0505
21412W        W39616   2.070   9.182   4.397  0.0366 -0.1347 -0.2642
21413W        W39617   8.459   3.730  14.564  0.2109 -0.0533  0.1631
21414W        W39618  10.083   3.408   2.512  0.0834 -0.0239 -0.2220
21415W        W39619   0.394  12.032  10.858  0.1114 -0.0352  0.0955
21416W        W39620  14.076   1.915   1.702  0.3049  0.2673  0.1034
21417W        W39621  10.074   2.088   3.972 -0.1968 -0.0844  0.0371
21418W        W39622   9.801  13.156  10.117  0.1465  0.0537 -0.0796
21419W        W39623  18.578   5.836   4.351  0.0293 -0.1752 -0.4684
21420W        W39624   6.487   4.253  14.223  0.0721 -0.2110  0.3311
21421W        W39625  16.406  18.666  13.669  0.2083  0.1337  0.0789
21422W        W39626   4.771  18.359   2.246  0.3785  0.1240  0.0951
21423W        W39627   7.014  15.385  11.827  0.1122 -0.1350  0.0585
21424W        W39628   5.557   5.362   0.158  0.2350 -0.1029 -0.0858
21425W        W39629  16.727  17.168  12.407  0.0507 -0.0520 -0.1932
21426W        W39630  13.502   5.977   0.804  0.2453 -0.1126  0.1995
21427W        W39631   0.297  15.459   2.712 -0.1740  0.0604  0.0475
21428W        W39632   5.058  11.577  12.077  0.0384 -0.1178  0.0609
21429W        W39633   2.199  18.658   2.111 -0.0503 -0.0813  0.1742
21430W        W39634   6.687   4.241   1.057 -0.0290 -0.3157 -0.0084
21431W        W39635   4.002  15.117  13.478 -0.3055 -0.1589  0.1569
21432W        W39636  10.111   3.742  13.961  0.2470  0.1927  0.0739
21433W        W39637   7.155   9.147  10.643  0.0756  0.1279  0.1197
21434W        W39638   3.120   7.978   5.582 -0.1451  0.1951  0.1415
21435W        W39639  10.806  10.540  10.612 -0.2240  0.1694 -0.0520
21436W        W39640   9.785   8.461   3.974  0.2816 -0.0245 -0.1590
21437W        W39641   8.418  17.263   2.305  0.0981  0.2145 -0.0363
21438W        W39642  11.249  16.345  12.276 -0.0757  0.0167  0.0555
21439W        W39643  10.105  10.197   1.371 -0.2495 -0.1068  0.0200
21440W        W39644  15.264   4.581  14.365  0.0033 -0.0131  0.2473
21441W        W39645  10.961   1.227   0.739 -0.0219  0.0281 -0.2046
21442W        W39646   3.102  17.485   1.798  0.0534  0.1664  0.0825
21443W        W39647  12.515  14.537  11.107 -0.2939  0.0752  0.4217
21444W        W39648   8.904  18.371  10.955  0.0872 -0.1634  0.0325
21445W        W39649  18.314  13.373  10.873  0.1454  0.2479  0.1592
21446W        W39650  16.729  12.386   3.118  0.1966 -0.1933 -0.0780
21447W        W39651   3.326  13.954   1.398  0.1305 -0.0527 -0.0235
21448W        W39652   1.899  17.784  12.523 -0.1055 -0.0038 -0.3590
21449W        W39653   9.086  14.995  11.941  0.0078  0.1882 -0.3796
21450W        W39654  11.232  15.352  12.049 -0.1480 -0.0679  0.3592
21451W        W39655   6.639   5.437  10.971  0.0601 -0.3371 -0.0063
21452W        W39656  17.283   4.453  12.985 -0.1688 -0.0717  0.0171
21453W        W39657   4.632  13.756   5.395  0.2311 -0.0100 -0.2302
21454W        W39658  13.476   9.439   1.940  0.2907 -0.1096  0.0564
21455W        W39659  10.229  11.377   0.256 -0.0356 -0.0396 -0.0917
21456W        W39660   4.773  17.276   2.516  0.0719  0.0442  0.0307
21457W        W39661   9.367   7.919   4.952  0.0441 -0.2377 -0.0256
21458W        W39662   8.986   9.218  12.103  0.3420 -0.1916 -0.0491
21459W        W39663   1.772   9.332  13.243  0.3465 -0.3108  0.0737
21460W        W39664  13.443  11.139  11.422 -0.0399  0.2640 -0.2398
21461W        W39665  18.471   3.866  11.844  0.4262 -0.4617  0.4951
21462W        W39666   9.623   2.101   2.149 -0.0242  0.1257 -0.2893
21463W        W39667  15.664  11.870   3.436  0.1721 -0.1132 -0.3309
21464W        W39668   7.293   0.387   3.657  0.0947 -0.1705 -0.3134
21465W        W39669   7.120   8.067   1.313 -0.0901  0.1869 -0.1220
21466W        W39670  15.095  11.086   4.612 -0.0843 -0.1653 -0.2418
21467W        W39671   8.227   5.911   2.794  0.0751 -0.2624 -0.0396
21468W        W39672  18.257  17.408   0.489 -0.1238 -0.0909 -0.1606
21469W        W39673  15.605   7.872  12.833 -0.3532  0.2215 -0.3843
21470W        W39674  16.128   5.045  10.846 -0.1802  0.0185  0.0438
21471W        W39675   9.044   3.649  14.259  0.3115  0.1710 -0.1809
21472W        W39676   0.122   8.131  14.013 -0.2694 -0.0270  0.1269
21473W        W39677   6.658  11.529  10.560 -0.2365  0.1299 -0.2427
21474W        W39678  11.335  11.836   2.015 -0.1647 -0.0595 -0.2474
21475W        W39679  18.257   6.483  12.979 -0.0062 -0.3547 -0.2082
21476W        W39680   4.860  14.590   2.019 -0.1728  0.0249 -0.1722
21477W        W39681  13.501  14.729  11.146  0.1976  0.2143  0.1066
21478W        W39682   3.813   6.628   1.977 -0.1700  0.0208  0.4604
21479W        W39683   2.142   3.908   0.767 -0.1455  0.0168 -0.0252
21480W        W39684  12.346  15.606   0.337  0.3211 -0.3328  0.0029
21481W        W39685   8.471  14.230  11.930  0.1264 -0.2158  0.1052
21482W        W39686  18.602   2.189   9.677 -0.1791  0.5204 -0.1672
21483W        W39687   2.072   5.204   4.094 -0.2301 -0.0892 -0.1250
21484W        W39688  15.398  13.603  11.235  0.1930  0.1338 -0.3071
21485W        W39689  16.232   5.820  13.588 -0.0434  0.1008 -0.0711
21486W        W39690   5.296  18.678   0.049  0.1163  0.1487 -0.2483
21487W        W39691   2.303  15.156   3.915 -0.0060  0.0227  0.1269
21488W        W39692  10.388  17.552  13.341 -0.1804 -0.2147  0.0811
21489W        W39693  11.709  16.806   4.616  0.2186 -0.5664 -0.0414
21490W        W39694  14.478  12.953  10.554  0.1593 -0.1179  0.1365
21491W        W39695  13.689   7.671   3.964 -0.4689  0.0991 -0.4102
21492W        W39696   1.142   7.818  14.279 -0.1446 -0.1488  0.2818
21493W        W39697   5.983  16.024   2.149  0.0774 -0.0794  0.1975
21494W        W39698   3.056   0.843   2.128  0.1685 -0.2629 -0.0337
21495W        W39699   3.940   1.444   1.710  0.2910 -0.1117  0.0706
21496W        W39700   0.533  18.614  11.604  0.0802 -0.0859 -0.1633
21497W        W39701  18.493   0.750   0.746  0.2487 -0.1420 -0.0691
21498W        W39702   4.325   9.512   3.920  0.1202 -0.3465  0.1087
21499W        W39703  11.847  12.836   1.132 -0.3667  0.2743 -0.0141
21500W        W39704  17.215   8.664   3.114  0.0518 -0.0460  0.0281
21501W        W39705  16.379  14.985  11.441 -0.1162  0.0130 -0.0430
21502W        W39706   6.851   9.499  10.905 -0.2789 -0.2431 -0.1151
21503W        W39707   5.362   1.953   2.983  0.0050 -0.1313 -0.2736
21504W        W39708   7.640   1.262  14.166  0.3788 -0.3313  0.0123
21505W        W39709  12.372   1.453   1.735 -0.1301 -0.0728  0.3595
21506W        W39710   1.877  11.659   1.658 -0.0774 -0.0656  0.2558
21507W        W39711  13.026  14.007   4.401  0.2744 -0.1405  0.0450
21508W        W39712   1.179   1.994  11.210 -0.0091  0.1286 -0.2777
21509W        W39713   0.346  12.537   5.250  0.1883  0.0557  0.1261
21510W        W39714  14.280  14.905   5.164  0.0465  0.1291  0.1325
21511W        W39715   7.954  14.510   2.971  0.0703  0.2777  0.2002
21512W        W39716   3.421  13.455  14.186 -0.1382  0.4846 -0.2029
21513W        W39717   6.273   8.557   2.005 -0.2256 -0.0563  0.0361
21514W        W39718   7.241   7.047   0.373  0.1421  0.2356 -0.2553
21515W        W39719   0.686   5.403   0.951  0.0323  0.1322  0.3776
21516W        W39720   5.740   1.984  11.475  0.1414  0.1904  0.0701
21517W        W39721  13.680  13.616  14.430 -0.2938  0.0464 -0.1341
21518W        W39722  18.343   6.884   3.917 -0.0088 -0.0363  0.4327
21519W        W39723   2.015  18.586   3.818 -0.1303 -0.1090 -0.0665
21520W        W39724   7.420  13.611   0.008 -0.0555  0.4508 -0.1643
21521W        W39725  10.019   8.542  10.892  0.0766 -0.2211  0.2528
21522W        W39726  17.069   9.493  12.578  0.0247 -0.0154  0.0720
21523W        W39727  12.479  11.280   2.289  0.2392  0.2312 -0.1157
21524W        W39728   9.348   9.697   1.916 -0.0881  0.0663  0.3068
21525W        W39729   7.366   6.897  13.948  0.0294  0.2143 -0.1573
21526W        W39730  13.979   9.856  13.947 -0.1756  0.1658 -0.1661
21527W        W39731   2.752  17.701  14.200 -0.1278  0.0066 -0.1901
21528W        W39732   6.656  17.559  11.875  0.0834  0.0419  0.3128
21529W        W39733   0.368   3.866  11.446  0.3110 -0.0967 -0.0403
21530W        W39734   3.312   0.121  12.378 -0.0586  0.0289 -0.1149
21531W        W39735  17.759  14.089   0.687  0.1242  0.0941  0.1969
21532W        W39736  17.831   1.977   1.652  0.0728 -0.5337  0.0972
21533W        W39737   1.389   7.151   3.700 -0.0722  0.1610 -0.1264
21534W        W39738   4.447   2.782  13.956 -0.1330  0.2389 -0.4086
21535W        W39739   4.199   2.209  12.337 -0.1507  0.0466  0.1407
21536W        W39740  18.075  18.283   4.794  0.1370 -0.0961  0.1585
21537W        W39741   0.651  11.268  10.199 -0.2525 -0.1172 -0.0519
21538W        W39742   6.265  17.011  14.104  0.0605 -0.0082  0.1175
21539W        W39743  14.226   7.843  12.292  0.0864  0.1143 -0.0125
21540W        W39744  13.805  13.606  13.833 -0.0413 -0.0342 -0.0446
21541W        W39745  14.983  15.154   3.864 -0.0257 -0.3077 -0.1333
21542W        W39746   5.284   1.524   3.560 -0.3898 -0.3439  0.0197
21543W        W39747  17.385   6.002  13.006  0.2286  0.2144 -0.0418
21544W        W39748  13.228   3.125   4.400  0.1514  0.0681  0.0866
21545W        W39749   5.064   0.665  11.005 -0.2429  0.1420 -0.1344
21546W        W39750  18.604   3.384   1.407  0.1308 -0.1657 -0.2850
21547W        W39751  15.993  17.418   1.355  0.0786  0.3429 -0.2323
21548W        W39752   8.098  13.291  13.178 -0.0411 -0.2116 -0.3518
21549W        W39753   5.593   9.436   1.515  0.0311 -0.0353 -0.0567
21550W        W39754   6.248  18.568   0.938 -0.0443 -0.1649 -0.0153
21551W        W39755  11.585  12.472  13.764 -0.1299  0.1032  0.5932
21552W        W39756   5.118  18.744  10.569  0.0718 -0.0391 -0.0042
21553W        W39757   7.570  18.083   3.284  0.0558 -0.1532  0.2449
21554W        W39758   7.054  16.922  12.409  0.1504 -0.5390 -0.1259
21555W        W39759  16.716  11.725  13.692 -0.3046 -0.0033 -0.3253
21556W        W39760  11.743   6.306  13.717 -0.2635 -0.1494  0.0212
21557W        W39761  10.713   3.682   1.207  0.2203  0.0881  0.0892
21558W        W39762  16.279   9.526   2.486  0.0664 -0.0493  0.3958
21559W        W39763   1.346  17.019  14.397  0.0209 -0.0337 -0.1968
21560W        W39764   6.335  18.351  12.183 -0.0928 -0.1188 -0.0194
21561W        W39765  17.373   4.078   1.679 -0.1624 -0.2595 -0.2444
21562W        W39766  13.531   7.432   3.059  0.0494 -0.0632  0.2615
21563W        W39767   8.918   0.983   3.552  0.2600 -0.0431 -0.0017
21564W        W39768  14.064  14.003  11.567  0.0706 -0.0326 -0.0174
21565W        W39769  11.455  13.311   3.351  0.0179  0.2719 -0.1550
21566W        W39770   0.147  16.518  11.440 -0.3294  0.0595 -0.1959
21567W        W39771   0.989   7.815   0.977  0.0754  0.1093 -0.0513
21568W        W39772  15.273  16.155  11.875 -0.0896 -0.1192 -0.0530
21569W        W39773  11.912   1.485   0.874  0.2445  0.1178  0.0870
21570W        W39774   0.590   6.244   4.168 -0.0082  0.2003 -0.0478
21571W        W39775  14.794   6.276  10.997 -0.1597 -0.1936  0.0510
21572W        W39776   8.340  15.441   0.850  0.1611 -0.0646  0.0070
21573W        W39777   8.728  12.922   1.418 -0.0344  0.1094  0.1248
21574W        W39778  17.625   3.976  12.416  0.3077  0.1971 -0.0616
21575W        W39779   1.101   3.304  10.164 -0.0291  0.0074  0.0803
21576W        W39780  14.605   3.185   1.368 -0.1053 -0.0494 -0.1831
21577W        W39781   4.867  10.364   2.321 -0.2855  0.3186 -0.3318
21578W        W39782   8.632   7.425  12.464 -0.4232  0.0858 -0.0939
21579W        W39783   8.906   4.005   0.378 -0.1789  0.0894 -0.0676
21580W        W39784  14.970  13.172  12.529 -0.1688 -0.2195 -0.1142
21581W        W39785  18.136   5.209  14.624  0.0617 -0.1721 -0.1495
21582W        W39786   9.561  16.545  14.516  0.1316  0.0728  0.0561
21583W        W39787  15.894   8.876  10.890  0.2664  0.2450 -0.1818
21584W        W39788   2.338   3.037  12.885  0.2991  0.0474 -0.0638
21585W        W39789  15.785   5.870  13.813  0.0677  0.2448  0.5458
21586W        W39790   3.361   3.252  13.363 -0.2196  0.0510 -0.0276
21587W        W39791   4.436   0.964   1.019 -0.2714  0.0484 -0.1853
21588W        W39792  12.346  13.933   1.758 -0.1004 -0.0715  0.4002
21589W        W39793   1.091  17.034  14.901 -0.1241  0.1475  0.1538
21590W        W39794  16.758  15.497   0.025  0.0355  0.2278  0.1452
21591W        W39795   2.565   3.354   1.665  0.2628  0.2025  0.2458
21592W        W39796  10.447   1.235   1.895 -0.0438  0.2290  0.0869
21593W        W39797   3.424   8.755   3.124  0.0849  0.1348  0.0643
21594W        W39798  18.744  10.167  14.713  0.1945  0.1635 -0.0729
21595W        W39799  15.232   7.954   1.068  0.0430  0.0110 -0.0229
21596W        W39800   6.134  12.760   4.396 -0.0776 -0.1817 -0.4133
21597W        W39801  18.465   8.783   3.813 -0.2494  0.2537 -0.1653
21598W        W39802  10.753  18.049   3.862 -0.0833 -0.0091  0.0784
21599W        W39803   1.004  10.982  12.757 -0.1411  0.0980  0.0943
21600W        W39804   9.458   4.028  10.521  0.3240  0.0255  0.0665
21601W        W39805  18.285  13.055   1.482 -0.0636  0.2338  0.2024
21602W        W39806   1.703   9.725  13.642 -0.0314 -0.2685 -0.1889
21603W        W39807   7.680  10.681  13.801 -0.2526  0.1177  0.2025
21604W        W39808   7.317  15.326  13.304 -0.2607  0.1049 -0.1021
21605W        W39809   1.239   1.960  11.700  0.0674  0.1037 -0.1662
21606W        W39810  13.286  15.761   1.562 -0.2330 -0.0879 -0.2421
21607W        W39811  18.304   4.939  12.881 -0.0118 -0.4070 -0.4992
21608W        W39812   9.251  17.561   1.927  0.1398 -0.3051 -0.0642
21609W        W39813  17.880   4.092   1.673 -0.0991 -0.1156 -0.1195
21610W        W39814   0.346   1.740   5.159  0.1385  0.0369  0.0325
21611W        W39815   7.499   9.997   1.429  0.1965  0.2101 -0.1629
21612W        W39816  10.367   1.507  13.656 -0.2687 -0.1150  0.1298
21613W        W39817  11.146   5.393  14.808 -0.3843  0.1387  0.0526
21614W        W39818  14.778  15.467  12.074 -0.0118 -0.0663  0.0290
21615W        W39819   3.663  17.824  14.362 -0.1989 -0.1676 -0.1290
21616W        W39820  17.619   3.035   3.205  0.0863 -0.0404 -0.0953
21617W        W39821   4.611   7.707  13.817  0.0876 -0.5844  0.0666
21618W        W39822  13.583   4.928  11.036 -0.2407 -0.3165  0.1533
21619W        W39823  18.950  11.144   3.464  0.0831 -0.2428  0.1319
21620W        W39824   3.864  12.131   2.553  0.0224 -0.2189 -0.0623
21621W        W39825   8.512  16.337   0.426  0.0279  0.0511  0.3608
21622W        W39826   1.149   8.617   1.162 -0.0725 -0.0917  0.1408
21623W        W39827   8.013   5.200   3.270 -0.0419  0.0505  0.0181
21624W        W39828   9.511   0.589   2.315  0.4207  0.4981 -0.0004
21625W        W39829   9.877   2.830  10.870 -0.1292 -0.2139 -0.2026
21626W        W39830   8.022  11.116  11.727  0.0828  0.0382 -0.0194
21627W        W39831   4.603   3.777   4.485 -0.2912 -0.0581  0.0149
21628W        W39832  11.700  14.606   2.556 -0.4567 -0.0036  0.0890
21629W        W39833  18.935  18.716   0.792 -0.1209 -0.2458 -0.4538
21630W        W39834  15.779   8.937   0.885 -0.3168  0.0633 -0.0098
21631W        W39835  15.400  12.712   0.037  0.0222  0.2038  0.0085
21632W        W39836   7.614  14.251   4.125  0.0238 -0.1544  0.2085
21633W        W39837  14.395  16.029  13.947  0.0209 -0.1322 -0.1676
21634W        W39838  14.445   6.908   3.312 -0.0738  0.1311  0.0947
21635W        W39839   6.194   2.912  10.620  0.1331  0.3228 -0.3259
21636W        W39840  11.446   2.864   3.809  0.1271 -0.0057 -0.1079
21637W        W39841  16.512   2.056  13.727 -0.1902  0.2104  0.1473
21638W        W39842  13.019  17.600  12.758 -0.1730 -0.0125  0.0603
21639W        W39843  11.507   6.590  10.061 -0.3419 -0.1888 -0.0369
21640W        W39844   6.631  10.157  14.342  0.2224 -0.4127  0.2274
21641W        W39845   7.453  12.765   0.958 -0.2194  0.2163 -0.1470
21642W        W39846   6.520   0.620  14.722 -0.0265  0.3427  0.2103
21643W        W39847  14.791   3.502   0.414 -0.2964  0.0349 -0.0299
21644W        W39848   7.108  16.375  13.119  0.0723  0.0000  0.2795
21645W        W39849   8.033  18.184   0.287  0.0160  0.0231  0.2593
21646W        W39850   0.432  14.011   3.453  0.1466 -0.0856 -0.2467
21647W        W39851   0.841   9.684   4.630 -0.2530  0.1054 -0.0060
21648W        W39852   5.394   3.312   0.249  0.2046 -0.0712  0.0490
21649W        W39853  16.475   3.195  14.855  0.1558  0.4082 -0.2045
21650W        W39854   7.450  15.348   2.360  0.1779 -0.2099 -0.1337
21651W        W39855   6.100  15.712   4.705  0.0008  0.1084 -0.0547
21652W        W39856  10.148  10.758   2.911 -0.4346 -0.1246 -0.1644
21653W        W39857   6.967   4.296  13.930  0.3291  0.0700  0.2984
21654W        W39858   3.163  13.420   0.041  0.0098 -0.2016  0.1528
21655W        W39859  14.609   6.799   1.700  0.0459  0.2714  0.1078
21656W        W39860   1.404   5.012   3.223  0.1664  0.2125  0.1496
21657W        W39861   7.906   0.328  12.685 -0.1517  0.1428  0.0001
21658W        W39862  17.196   7.011  12.951 -0.0087 -0.0210 -0.2228
21659W        W39863   4.204  15.283   3.048 -0.0515  0.0529 -0.0697
21660W        W39864  15.565  11.012  13.812 -0.0505  0.0401 -0.0190
21661W        W39865   5.182  15.827  10.964 -0.1143  0.0936  0.0006
21662W        W39866   2.554   1.499   4.633 -0.3066 -0.3668  0.2742
21663W        W39867   2.857   0.144  11.689  0.1737  0.1594  0.1648
21664W        W39868  14.083   8.218   3.234 -0.1397  0.2615  0.0557
21665W        W39869   5.886  15.061  14.940  0.3312 -0.2538 -0.0400
21666W        W39870   1.733  13.109   4.679 -0.2036  0.0012  0.0754
21667W        W39871   3.512  12.287   2.900 -0.1422 -0.1630 -0.1666
21668W        W39872  14.485  18.245  13.859  0.0391  0.1066  0.0714
21669W        W39873  17.678  10.203   1.135 -0.0402 -0.1302  0.1849
21670W        W39874  10.066  15.509   3.834  0.2400  0.0681 -0.0490
21671W        W39875   4.716  17.499   3.399 -0.0080  0.0149 -0.1574
21672W        W39876   3.628   8.990   3.509  0.2235  0.0477  0.1605
21673W        W39877  11.789  14.892  13.163  0.0575 -0.1193  0.0252
21674W        W39878  12.037   7.752   3.266  0.0350 -0.0645  0.1615
21675W        W39879  16.644  10.019  11.962  0.3310  0.0074 -0.0693
21676W        W39880  11.013  16.030   3.021 -0.1262  0.0089 -0.1374
21677W        W39881  12.627  17.640  14.619 -0.1790 -0.1637  0.2565
21678W        W39882  11.594   6.704  13.988  0.3289  0.1001 -0.0558
21679W        W39883   6.595   4.553  11.205 -0.0388 -0.1478  0.0409
21680W        W39884  16.844  16.721  12.546  0.2200  0.0564 -0.1392
21681W        W39885   8.799  16.874   3.863  0.0992 -0.4386 -0.0128
21682W        W39886   0.323   5.212   0.562  0.1490  0.0421 -0.1326
21683W        W39887  10.512  10.495   2.604  0.5979 -0.1047 -0.2421
21684W        W39888   0.912   2.610   1.741 -0.2321  0.1073  0.4815
21685W        W39889  17.376   1.692   4.246 -0.0247 -0.0860  0.1371
21686W        W39890  13.876   6.401   9.649  0.0140  0.1026 -0.0194
21687W        W39891  12.790   7.835   3.024  0.0018  0.0662 -0.1228
21688W        W39892  14.075  14.901  12.480  0.2456 -0.2129  0.0627
21689W        W39893   2.249  12.167  11.247 -0.3014  0.1097  0.1008
21690W        W39894   3.013  14.811   0.074  0.0697  0.0007  0.2768
21691W        W39895   8.499   1.588   2.715  0.3130 -0.1435 -0.0089
21692W        W39896  16.024  16.568   2.599 -0.1772  0.1754 -0.0640
21693W        W39897  14.468   3.151   4.271  0.4127  0.2081  0.0343
21694W        W39898  10.307  18.233   3.620  0.1467 -0.0121  0.1605
21695W        W39899   6.302  15.364   1.448  0.1452 -0.0747  0.0354
21696W        W39900  13.912  18.234   0.990  0.0446 -0.1917 -0.3011
21697W        W39901  17.728   3.869   3.683  0.1480 -0.0172  0.0989
21698W        W39902  16.401   6.950  11.717 -0.2177 -0.1453 -0.1923
21699W        W39903   4.605   2.030   2.973  0.0963 -0.0309 -0.0220
21700W        W39904  16.340   5.777   1.359  0.1367  0.3199 -0.0983
21701W        W39905  14.902   5.511  12.956 -0.1241 -0.0020  0.1474
21702W        W39906   7.172   7.210  12.607 -0.2533  0.1616 -0.2054
21703W        W39907  12.498   2.147  14.973  0.0909 -0.0530 -0.2056
21704W        W39908   0.484   1.651   4.653 -0.2755  0.1968  0.1958
21705W        W39909   5.740   9.563  14.077 -0.2301 -0.0784 -0.0311
21706W        W39910  14.924  15.715   0.415 -0.0837  0.0106  0.2029
21707W        W39911  10.516   4.950   2.252 -0.0431  0.1071 -0.2148
21708W        W39912   9.413   4.216   4.040  0.2438 -0.1588 -0.1457
21709W        W39913   7.663   9.011  14.774 -0.0641  0.0803 -0.1872
21710W        W39914   1.311   5.019  14.195  0.2667  0.1163 -0.1297
21711W        W39915   3.657  15.993   1.105  0.1760 -0.0023  0.1468
21712W        W39916  14.300   2.289  10.456  0.4700 -0.0319  0.1387
21713W        W39917   1.557  12.930   1.448 -0.1107 -0.0157  0.0339
21714W        W39918   1.007  18.859   4.417  0.1035  0.1652  0.1024
21715W        W39919   6.986  17.815   2.483 -0.0166 -0.1268 -0.0106
21716W        W39920  10.999  12.008   4.758 -0.0391  0.0439 -0.1397
21717W        W39921   5.410  17.502  12.261  0.0924 -0.0318 -0.0058
21718W        W39922   4.083  18.936  14.175  0.1006 -0.1696 -0.2112
21719W        W39923  14.765  12.717   9.735  0.3121  0.2393  0.0538
21720W        W39924   9.528  17.873  13.907  0.0061 -0.3488 -0.1735
21721W        W39925  18.714  15.655  10.152  0.3059  0.2115  0.0146
21722W        W39926   9.551  17.586   2.393 -0.1662 -0.0569  0.1275
21723W        W39927  17.561   4.829  10.674 -0.3493  0.0272 -0.1268
21724W        W39928  12.431  11.606   0.530  0.0984 -0.0676  0.1650
21725W        W39929  17.142   5.574   0.982  0.3003  0.1870 -0.0413
21726W        W39930   0.934  11.392  14.349 -0.0398  0.0704 -0.0712
21727W        W39931   9.921   9.350   4.051 -0.2126 -0.5141 -0.1534
21728W        W39932   9.997  10.761  12.240  0.0087 -0.1955 -0.2449
21729W        W39933   4.457  11.889   2.383  0.0706 -0.2627  0.0637
21730W        W39934   4.309   9.087   2.355 -0.0888  0.1934  0.0386
21731W        W39935   0.256   3.337  14.517 -0.3875  0.1569 -0.1262
21732W        W39936   1.356   9.754  14.176  0.2564  0.1271  0.1409
21733W        W39937  13.380   6.525  15.012 -0.0569  0.0053 -0.0902
21734W        W39938  10.270   9.642   4.821  0.2928  0.0164 -0.1118
21735W        W39939   1.617   3.651  14.194  0.0661 -0.0037 -0.3379
21736W        W39940   5.019   9.930   2.672 -0.1597  0.2861 -0.1863
21737W        W39941   6.048  12.430   2.905 -0.1087  0.0176  0.0058
21738W        W39942   3.201   7.853   3.981 -0.2417  0.0591 -0.0183
21739W        W39943   4.178   3.016   3.796  0.1105 -0.1526 -0.0192
21740W        W39944  15.957  16.651  13.797  0.3684  0.0399 -0.1391
21741W        W39945  17.714  17.698  14.910  0.2231 -0.0986 -0.0519
21742W        W39946   7.878  16.049   4.059  0.1374  0.2566  0.1067
21743W        W39947   0.471  14.692   0.992  0.0459  0.2336  0.1908
21744W        W39948  14.485   0.330  10.916  0.0632  0.2210 -0.0333
21745W        W39949   3.759   1.774  11.813 -0.5540  0.1756 -0.0682
21746W        W39950  14.494   0.902   2.853 -0.2457  0.2046 -0.0629
21747W        W39951   2.773   2.708   3.047 -0.0881  0.2742  0.3042
21748W        W39952  11.815  10.393   4.233 -0.2569 -0.1202 -0.2499
21749W        W39953   6.038  10.434  12.095 -0.1973 -0.1761 -0.0516
21750W        W39954   7.954  11.225   1.087  0.1349 -0.2128 -0.1652
21751W        W39955   3.645  10.049  14.856 -0.0186  0.1492 -0.1277
21752W        W39956   5.932  13.259  14.983 -0.0252 -0.0758  0.0563
21753W        W39957   8.769   6.729   1.035 -0.1752 -0.0384  0.1491
21754W        W39958  16.416   9.760  14.795  0.2426 -0.0769  0.0949
21755W        W39959  17.468   0.180  11.273  0.2486  0.1245 -0.1942
21756W        W39960  13.067  16.893   1.307  0.0278  0.2555 -0.2263
21757W        W39961  15.453  10.948   0.091 -0.0251  0.2818 -0.2074
21758W        W39962   7.579   4.904  12.332  0.2094  0.0535  0.3564
21759W        W39963   1.903  14.236  14.655 -0.3090 -0.0572  0.0419
21760W        W39964  14.489   6.999  13.686 -0.0002 -0.2216 -0.3350
21761W        W39965  17.280  10.047  12.820 -0.0304 -0.6060 -0.0450
21762W        W39966  18.362   0.230  14.193 -0.1210  0.0641  0.4748
21763W        W39967  10.269  11.808   3.405 -0.0794 -0.3210 -0.0785
21764W        W39968  11.955  12.038   4.909  0.0817  0.1950 -0.4403
21765W        W39969   8.190  18.141   4.014 -0.1375  0.0012 -0.1840
21766W        W39970   6.993  14.425   4.814  0.2370 -0.1214  0.1470
21767W        W39971   5.832   9.101   4.540  0.0927  0.0438  0.0441
21768W        W39972   9.902   2.851  14.609  0.0183 -0.1141  0.1384
21769W        W39973   0.252  17.396   0.449 -0.2159  0.0309  0.1023
21770W        W39974   6.409  15.877   3.900 -0.1586 -0.1650 -0.2599
21771W        W39975   4.082   4.129   0.729  0.0115  0.1176 -0.0070
21772W        W39976   9.928   2.754  12.663 -0.2010 -0.0159  0.0771
21773W        W39977   9.991   9.652  14.781  0.0249 -0.2118 -0.3177
21774W        W39978  13.874   2.492   3.898  0.0567  0.3400  0.2883
21775W        W39979  12.791  18.354  11.668  0.3572  0.0157 -0.0384
21776W        W39980   4.325   4.912   1.505 -0.1054 -0.2433  0.0462
21777W        W39981  14.711   2.205  12.957  0.2258 -0.0307 -0.0221
21778W        W39982  11.145   9.893   3.305  0.0446  0.2482 -0.0955
21779W        W39983   1.326  13.984   2.999 -0.2487 -0.0406  0.0771
21780W        W39984  12.582  10.927  12.367  0.1899 -0.0808  0.0485
21781W        W39985   4.623   8.022  12.680 -0.2095  0.2673 -0.4165
21782W        W39986  16.442   6.526   2.570 -0.1012  0.0309  0.2137
21783W        W39987  18.839   4.293   3.506 -0.1360  0.0191  0.3002
21784W        W39988   3.834   4.309  10.886 -0.1053  0.0045 -0.1817
21785W        W39989   9.545   4.299  14.462 -0.0503 -0.0220 -0.1171
21786W        W39990   7.600  18.086  14.549  0.0675 -0.1666 -0.2411
21787W        W39991   2.541   1.664   1.943 -0.0554 -0.0170  0.1139
21788W        W39992  17.634   3.870   4.773 -0.0841 -0.0656  0.1283
21789W        W39993   1.433   0.171   1.426 -0.0282 -0.1092  0.0089
21790W        W39994   2.335  16.073   4.314 -0.0828  0.4924  0.0223
21791W        W39995  12.000  18.254  12.015 -0.3754 -0.2917  0.0964
21792W        W39996  11.456  13.523  14.460  0.0941 -0.0941 -0.0566
21793W        W39997  14.143  18.179   0.068  0.0709  0.0406  0.0095
21794W        W39998   0.140  11.297   4.438  0.0447 -0.0308 -0.3127
21795W        W39999  12.726   0.579   3.982 -0.1302 -0.1503  0.0665
21796W        W40000  16.318   4.425  13.364  0.2815  0.2645 -0.2307
21797W        W40001   5.439   5.594  14.573 -0.1331 -0.2212 -0.0877
21798W        W40002   3.452  13.582   0.850 -0.1856  0.2557  0.0582
21799W        W40003  15.399  17.710   9.437 -0.0381 -0.0944  0.1588
21800W        W40004   3.474   2.854  14.032 -0.0622  0.0186 -0.0287
21801W        W40005   1.689  12.099  14.775  0.1560  0.1619  0.0143
21802W        W40006   8.165   4.843  11.536 -0.0465  0.1834 -0.5017
21803W        W40007  17.615   0.818   2.745 -0.0406 -0.0854 -0.0893
21804W        W40008   8.283  13.857   0.213 -0.0969 -0.1297  0.3942
21805W        W40009  11.128  17.060  10.356 -0.1909 -0.3541  0.0810
21806W        W40010  15.235   3.677   4.079 -0.2045 -0.0512 -0.3313
21807W        W40011  17.084  11.215  11.652 -0.1501  0.1492 -0.2232
21808W        W40012  14.891   4.812   0.731  0.1845 -0.0959 -0.1474
21809W        W40013   7.160  12.865  11.550  0.0169 -0.2171  0.1066
21810W        W40014  10.415   2.073  13.776 -0.1806  0.1499  0.0746
21811W        W40015   6.705   5.147  14.459 -0.2340 -0.2026 -0.0078
21812W        W40016   0.845  17.255  10.640 -0.1318 -0.0552  0.1161
21813W        W40017  14.574   8.484  10.690  0.2164  0.2594 -0.2382
21814W        W40018   9.341   0.766  10.759  0.0187 -0.1549  0.1302
21815W        W40019   6.943   6.611  14.132 -0.0762  0.2437 -0.0773
21816W        W40020  13.679  16.187   1.530  0.1290 -0.0622 -0.0614
21817W        W40021   4.788  17.636   3.984  0.3901  0.0189  0.4970
21818W        W40022   4.224  18.696   0.776  0.0830  0.0072 -0.2412
21819W        W40023   9.512   6.794  12.624 -0.0368  0.3047  0.0066
21820W        W40024  17.955  11.330  14.723 -0.0557  0.4369  0.2486
21821W        W40025   0.830   7.670   1.416  0.3240 -0.0781 -0.0799
21822W        W40026  15.226   6.174   0.011  0.1205 -0.2154  0.0063
21823W        W40027  13.748   6.325   2.276 -0.0619 -0.1193  0.2509
21824W        W40028   0.863   4.220   1.761 -0.0195  0.0094 -0.0909
21825W        W40029  18.331  12.409   2.075  0.2734  0.1880 -0.3423
21826W        W40030   8.576  14.427   3.922  0.2920  0.1658  0.0127
21827W        W40031   0.015  14.206  13.164 -0.3614  0.4188 -0.1928
21828W        W40032   3.384   5.542   4.315  0.2464  0.1124 -0.2020
21829W        W40033   3.873   5.501   2.909 -0.2000  0.0747  0.0996
21830W        W40034   9.213  10.652   5.396  0.1253 -0.0994 -0.0051
21831W        W40035  14.453  17.793   4.147  0.0103 -0.3594 -0.0181
21832W        W40036   2.228   5.779  14.764 -0.5007  0.1048 -0.1483
21833W        W40037   4.330  15.955   0.439  0.2177 -0.1588  0.3310
21834W        W40038   8.462   9.312  11.921 -0.3330 -0.0154 -0.0919
21835W        W40039  10.115  10.459  14.168  0.0998  0.0065 -0.1696
21836W        W40040  12.710   3.470   2.790  0.1775 -0.0530 -0.1296
21837W        W40041  12.529   9.022  11.379 -0.0505 -0.0529 -0.0592
21838W        W40042  10.607  18.539   3.941 -0.0372 -0.0125  0.3751
21839W        W40043   7.983   9.705  14.997  0.0504  0.2217 -0.2019
21840W        W40044  11.759  10.148  14.524  0.1013  0.2597  0.1263
21841W        W40045   4.005  10.525   3.319  0.0391 -0.0682 -0.1869
21842W        W40046   4.326   9.595   3.194 -0.1810 -0.0167  0.1308
21843W        W40047  13.031  16.425  13.454  0.0423  0.0356 -0.4715
21844W        W40048  15.237   2.201   3.164  0.2069  0.0874 -0.0520
21845W        W40049   9.014   9.875  12.440 -0.0921 -0.1955  0.0625
21846W        W40050  16.816   4.480   0.061  0.1316 -0.1089 -0.1270
21847W        W40051  15.196  12.300  14.197  0.1807  0.1889  0.1058
21848W        W40052   0.480   1.537  12.277 -0.3214  0.0301  0.2559
21849W        W40053  13.945   5.929  13.749 -0.1485 -0.3407  0.0331
21850W        W40054   6.125  14.067  13.542 -0.2538 -0.1377 -0.0260
21851W        W40055  16.407  17.082   4.116  0.1353  0.0144 -0.0059
21852W        W40056  11.190  17.695  14.382  0.2984  0.1384  0.0495
21853W        W40057   8.503  18.560  12.564 -0.0567  0.0573  0.0495
21854W        W40058  14.630  12.981   2.098 -0.1133 -0.0965  0.1569
21855W        W40059  18.227  18.186   5.336 -0.1833  0.1860  0.0351
21856W        W40060   2.888  14.721  10.310  0.3165 -0.0052 -0.1097
21857W        W40061  11.721   2.759   4.628  0.1323 -0.4004 -0.1134
21858W        W40062  15.358  13.564   3.316  0.2768 -0.2071  0.2548
21859W        W40063   9.850   9.442   2.024 -0.3276 -0.3469  0.0707
21860W        W40064   4.235  17.435   3.273  0.0783 -0.0543  0.0842
21861W        W40065   6.099   0.052   2.619 -0.1970 -0.3439  0.1384
21862W        W40066  17.305   5.325  11.077 -0.0796 -0.1233 -0.2320
21863W        W40067  12.321   8.034   2.058 -0.2388  0.1031  0.1866
21864W        W40068  14.703   6.737  10.682 -0.2944 -0.0098  0.0023
21865W        W40069   2.225   2.988  11.494 -0.1012 -0.4681  0.0072
21866W        W40070   1.581   4.452   4.540 -0.0784  0.0625  0.1122
21867W        W40071   1.138  18.683   0.642 -0.0655  0.1648  0.2268
21868W        W40072  16.687  11.105   0.947 -0.1051  0.2870 -0.0664
21869W        W40073   4.316   0.115   9.906  0.0281  0.0141  0.3535
21870W        W40074  13.435  17.264  12.749 -0.1091 -0.0381  0.1406
21871W        W40075   7.301   9.119  13.980  0.0378 -0.1316 -0.2588
21872W        W40076   3.216   2.333   4.395  0.0439  0.3279  0.2847
21873W        W40077   6.806   2.664  11.955 -0.1043 -0.0333 -0.0041
21874W        W40078   9.410  13.994   0.784  0.0361  0.1149 -0.1359
21875W        W40079   1.425   6.967   4.681 -0.0737  0.1750  0.1343
21876W        W40080   1.551   3.817   3.840 -0.1433  0.0384 -0.1466
21877W        W40081   5.182   7.588  12.640  0.1375 -0.2043  0.2842
21878W        W40082  12.483   7.545   3.297  0.0597 -0.1544  0.2673
21879W        W40083   9.112  16.873  10.697  0.0673  0.0396  0.3409
21880W        W40084   1.961   2.453   1.732  0.0406 -0.0105 -0.2246
21881W        W40085  16.557   3.007  12.352  0.0039  0.0373  0.4948
21882W        W40086  16.325  16.805  12.487 -0.0167 -0.1423 -0.0638
21883W        W40087   5.485   2.600  13.161 -0.0594  0.0318  0.0193
21884W        W40088  13.065   3.133  13.410 -0.0175  0.3173  0.0851
21885W        W40089   3.503   0.801  11.485  0.0520 -0.1926  0.0761
21886W        W40090   5.588   4.571   5.627 -0.1816 -0.3134 -0.1518
21887W        W40091   1.945   0.032  14.395  0.0427 -0.1466  0.0133
21888W        W40092   9.810   5.253   1.565  0.1521 -0.0574 -0.1276
21889W        W40093  18.200  14.553   2.952  0.1655  0.0553 -0.2356
21890W        W40094   1.431   4.528  10.826 -0.1243  0.0202 -0.1703
21891W        W40095  18.505   3.373   5.471  0.0175 -0.0287 -0.1742
21892W        W40096  16.059   8.600   0.069 -0.3113  0.0327  0.0454
21893W        W40097  12.072  13.133  13.287  0.1625  0.0686 -0.1399
21894W        W40098  14.013  15.782   4.141 -0.4063  0.0468 -0.3637
21895W        W40099  14.336  12.393  11.393  0.3050  0.1754  0.0858
21896W        W40100  11.818  13.612   3.940 -0.2252 -0.3040 -0.1399
21897W        W40101   2.325   6.829   1.002  0.1511 -0.1808  0.2015
21898W        W40102  16.636  11.794   0.383  0.0732 -0.1616 -0.2967
21899W        W40103  16.799   9.520   0.113 -0.0791  0.3021  0.3250
21900W        W40104  14.102   2.764   0.848  0.0102 -0.4764  0.1295
21901W        W40105   3.119   9.865  12.996  0.2697  0.1528 -0.2066
21902W        W40106   3.151   7.897  12.906 -0.1298  0.0652 -0.1893
21903W        W40107   6.704   6.653   3.332  0.3706  0.2716  0.0340
21904W        W40108   6.186   6.276  11.069  0.2648  0.0021 -0.1355
21905W        W40109   4.942   3.874  11.769 -0.0028 -0.2517 -0.1204
21906W        W40110  17.646  10.595   1.687  0.1400 -0.3408 -0.2668
21907W        W40111  12.353  10.411  13.140  0.0606 -0.3093 -0.2739
21908W        W40112  15.741   3.813  13.730 -0.1528  0.2915  0.2359
21909W        W40113  15.189   1.982  13.176 -0.0010 -0.1267  0.0280
21910W        W40114   2.421  15.013  11.397  0.0123 -0.1506  0.0550
21911W        W40115   2.736   5.822  13.222  0.0122 -0.2207 -0.0381
21912W        W40116   4.111   1.012   1.429 -0.0483 -0.1924 -0.1029
21913W        W40117  13.915   5.604   1.376  0.1250  0.0673 -0.4146
21914W        W40118   1.621   9.204  11.471 -0.4175  0.1010 -0.0597
21915W        W40119   5.060  14.238   4.311  0.0608  0.1106 -0.1166
21916W        W40120   0.153  15.240   3.879  0.1911 -0.1673  0.2400
21917W        W40121  14.666   3.796  14.149  0.2548  0.2003 -0.0576
21918W        W40122  17.627  14.874   9.800 -0.0301  0.0610 -0.2305
21919W        W40123   4.062   6.462   1.260  0.1816 -0.1189 -0.3570
21920W        W40124   8.656  10.581   0.464 -0.1102  0.3696  0.1878
21921W        W40125   7.985  11.728   4.590 -0.2509 -0.0863 -0.4119
21922W        W40126   0.980  15.973   1.407  0.0386 -0.1733 -0.3967
21923W        W40127   2.635   4.538  14.154  0.1220  0.0876  0.0273
21924W        W40128  12.645   5.185  11.353 -0.2327  0.0956 -0.0309
21925W        W40129   8.119   9.193  13.909  0.0279  0.3127 -0.0392
21926W        W40130   5.635   0.570  11.652  0.1168 -0.0234 -0.1471
21927W        W40131   7.980   7.173   1.016  0.0923 -0.1393  0.5168
21928W        W40132  16.780   5.151   2.370  0.1549 -0.1867 -0.0186
21929W        W40133   6.697  14.998  11.291  0.3008  0.1494  0.0777
21930W        W40134   7.486   5.966   0.488  0.0042 -0.1843 -0.2535
21931W        W40135  18.885   4.288   1.644  0.1688  0.0110  0.1736
21932W        W40136   4.875   1.862   3.736  0.0231  0.3047 -0.1071
21933W        W40137   2.326   9.133  14.036 -0.1429 -0.1310 -0.2019
21934W        W40138   4.973   5.372   0.965  0.1453  0.0158 -0.0574
21935W        W40139   8.076  14.806   2.567 -0.0260  0.0270 -0.0580
21936W        W40140   3.576   6.186   1.871 -0.0691  0.1197  0.0850
21937W        W40141   4.294  13.891   4.947 -0.1054  0.0298 -0.0140
21938W        W40142  17.490   8.944  14.775 -0.0332  0.1295 -0.0084
21939W        W40143  13.831   8.558   2.452  0.0166 -0.1166 -0.2234
21940W        W40144   4.441   0.262  14.657 -0.1203 -0.0260 -0.1181
21941W        W40145  16.665  18.530   1.383 -0.0394  0.0255  0.2237
21942W        W40146  17.981   9.046   1.822  0.2826 -0.0181 -0.0366
21943W        W40147   2.938   9.745  13.455  0.0915 -0.0238 -0.2132
21944W        W40148  15.131   1.006   0.535 -0.0009 -0.0136 -0.1338
21945W        W40149   8.974  18.039   4.363  0.0737  0.1031 -0.0753
21946W        W40150  11.338  13.144  11.686 -0.2877 -0.1771 -0.3584
21947W        W40151  15.155   5.071  11.404 -0.2425  0.2317  0.1463
21948W        W40152   3.721   6.278  14.022 -0.3596  0.0726 -0.2733
21949W        W40153  18.736   1.760   3.677 -0.0323  0.1147  0.2219
21950W        W40154  15.455   3.355  13.008  0.1280 -0.1461 -0.0585
21951W        W40155   6.604   1.005   2.700  0.2184  0.0058 -0.1461
21952W        W40156  14.934  11.996  14.497 -0.2738 -0.0023  0.0172
21953W        W40157   7.409  18.495   3.051  0.1091  0.0918 -0.2089
21954W        W40158   8.151  11.916  14.966  0.0567 -0.1129 -0.0220
21955W        W40159  15.653  11.370  14.662  0.1145 -0.3438  0.1302
21956W        W40160  12.015  12.722  13.782  0.0065  0.0423  0.0695
21957W        W40161   9.726  18.018   4.344 -0.3001  0.0746 -0.0104
21958W        W40162   5.674   0.365  13.705 -0.0696  0.0632  0.1914
21959W        W40163   7.436   6.198  11.854  0.4486 -0.0399 -0.0719
21960W        W40164  17.625  18.856  13.604 -0.0851 -0.2273 -0.3349
21961W        W40165  16.072   1.106  11.265 -0.0191  0.0097 -0.1265
21962W        W40166   1.241  12.236   4.740  0.3996  0.4957  0.0577
21963W        W40167  15.553   8.172  12.043  0.2723 -0.2264  0.4229
21964W        W40168  18.437   6.166  13.387 -0.5800  0.2889 -0.1181
21965W        W40169   2.358  13.868  12.716  0.1264 -0.0117  0.2061
21966W        W40170   4.812   0.964  12.113  0.2753 -0.2220  0.3130
21967W        W40171  14.788  17.256  11.278  0.1547 -0.2519  0.1828
21968W        W40172   7.067  16.857   2.785 -0.1961  0.3343  0.4158
21969W        W40173   6.804  18.727   4.055 -0.1231 -0.3138  0.1254
21970W        W40174   8.420   3.075   4.499  0.2567  0.2278 -0.1860
21971W        W40175   1.705   5.649   0.858  0.0977 -0.4117 -0.2001
21972W        W40176   6.396  15.270  14.993 -0.0049 -0.4469 -0.3218
21973W        W40177  13.608  13.186  13.796 -0.0611 -0.1895 -0.0198
21974W        W40178  11.069  18.363  10.563 -0.0578  0.1411  0.2113
21975W        W40179  15.768   0.866   2.982 -0.0254  0.1906 -0.0172
21976W        W40180   2.697  15.229   3.170  0.1349 -0.0462 -0.1083
21977W        W40181   1.335  17.923  12.563  0.2001 -0.0973 -0.0610
21978W        W40182  14.489   4.751  12.552 -0.0486 -0.2924  0.1578
21979W        W40183   0.762   0.389  13.596 -0.0706 -0.0869 -0.4051
21980W        W40184  13.074   1.584  10.643 -0.1324  0.0882  0.1631
21981W        W40185   0.824  14.851  11.190 -0.0633  0.2676  0.1922
21982W        W40186   3.271  13.609   3.814 -0.4038  0.2257 -0.0594
21983W        W40187   9.090   5.058   1.355 -0.0464  0.0127 -0.2051
21984W        W40188  13.426   8.758   1.187  0.3609 -0.1671  0.0992
21985W        W40189  12.141   0.881  11.765  0.3238  0.2991 -0.0975
21986W        W40190  12.657  18.781   0.965 -0.0062  0.0209  0.0479
21987W        W40191   6.976   4.387  14.876 -0.3431 -0.1444  0.1089
21988W        W40192   6.230  10.991  12.819 -0.0135 -0.1318  0.1769
21989W        W40193   1.800   0.439   3.319 -0.3122  0.3113  0.0339
21990W        W40194   0.973  14.884  10.331 -0.0923  0.2976 -0.3950
21991W        W40195   6.585  12.193   0.790  0.0014 -0.0751 -0.1750
21992W        W40196  15.024  10.215  13.855  0.0406  0.0952 -0.1704
21993W        W40197  14.777  12.328   1.439 -0.0710 -0.0544 -0.1660
21994W        W40198  13.556  17.659  14.105  0.4340  0.0427  0.1957
21995W        W40199   5.838   9.467   2.659  0.0078 -0.0205  0.1079
21996W        W40200  16.795   8.352  12.965 -0.2826 -0.1984 -0.0199
21997W        W40201   5.635  15.552   4.497  0.0389 -0.0271 -0.0890
21998W        W40202  13.266   2.234  12.773  0.0658  0.0714 -0.1054
21999W        W40203  17.490  11.477  13.212  0.0933 -0.2307 -0.0991
22000W        W40204  11.094  12.477   5.400 -0.0988 -0.1117 -0.0238
22001W        W40205  18.178  11.443   0.786  0.1351  0.1911 -0.0383
22002W        W40206  14.651  18.755   1.342  0.0537 -0.1413  0.0198
22003W        W40207  16.931  11.038   3.173  0.0428  0.2150 -0.0426
22004W        W40208   4.561   5.430   2.170  0.0426  0.2273  0.1179
22005W        W40209   2.942  14.664  14.591  0.2383 -0.0676  0.1683
22006W        W40210   3.912  12.267   4.447  0.0082  0.3061 -0.0084
22007W        W40211   3.989  12.424  13.566 -0.1631  0.0091 -0.1350
22008W        W40212  14.327  17.353   4.821  0.4058  0.0292 -0.1797
22009W        W40213  15.953   0.798  12.793 -0.0419 -0.4062  0.0224
22010W        W40214  14.123   3.952   0.959  0.1275 -0.1423 -0.0597
22011W        W40215   8.373   1.027   2.713 -0.0564 -0.0520  0.0753
22012W        W40216   6.147   5.946  11.613  0.0544  0.1373  0.2732
22013W        W40217   1.125  10.971  14.100  0.0251 -0.1549  0.0969
22014W        W40218   5.447  17.410  13.855 -0.0833 -0.1345  0.0078
22015W        W40219  14.509  13.111   3.669  0.1936  0.0895 -0.2942
22016W        W40220  17.480  18.350   2.093  0.0177  0.2918 -0.0191
22017W        W40221  12.247  15.283  10.727  0.5724 -0.2193 -0.1058
22018W        W40222  15.198   1.010   2.260 -0.1750  0.0125  0.0092
22019W        W40223   1.908   4.713   4.155 -0.1216  0.2563  0.2511
22020W        W40224   6.030  15.853   1.342  0.1764  0.0396  0.1016
22021W        W40225  16.677   2.866   2.242 -0.2210  0.1228 -0.0472
22022W        W40226  10.805  14.385   2.468  0.1717 -0.1346 -0.0682
22023W        W40227  18.309   5.763   2.116  0.0070  0.1621 -0.1626
22024W        W40228  12.817   8.854   0.497  0.1863 -0.2436 -0.2608
22025W        W40229   1.745   4.746   0.181 -0.2046 -0.1539  0.1406
22026W        W40230  16.147   1.086   2.696  0.1788 -0.1111 -0.3431
22027W        W40231   4.729  15.606   2.867 -0.0829 -0.0945 -0.2501
22028W        W40232  11.994   1.534  10.173  0.2511  0.2037  0.0078
22029W        W40233  15.137  11.836   4.209  0.3099  0.2030  0.2529
22030W        W40234   6.171   2.584   4.759 -0.3340  0.0020 -0.1111
22031W        W40235  11.698  12.442   3.252  0.2488  0.0871 -0.4974
22032W        W40236   6.473   9.885   2.079  0.1756  0.1070 -0.2596
22033W        W40237  14.078   7.299   3.197 -0.1722  0.0802  0.0788
22034W        W40238   1.050   0.632  11.096 -0.1614 -0.3348  0.0777
22035W        W40239   7.686   2.589   0.228  0.2840 -0.0904  0.1351
22036W        W40240   4.860   1.662   3.210 -0.3282 -0.3040  0.3476
22037W        W40241   8.441  11.828   2.070  0.2571 -0.1593 -0.1441
22038W        W40242  14.968  11.885  10.500 -0.2125  0.0278  0.2854
22039W        W40243  14.723   5.747   1.149 -0.0611 -0.0512  0.0928
22040W        W40244  15.865   4.336   1.172  0.1700  0.0196  0.0742
22041W        W40245   3.877   3.577   4.483 -0.2069 -0.0739 -0.0812
22042W        W40246   6.507  18.297   4.214 -0.2366  0.1021 -0.2510
22043W        W40247   1.273  10.448   0.087  0.3141  0.1089  0.1497
22044W        W40248   7.387   9.142   1.747 -0.2299  0.0678 -0.1680
22045W        W40249   4.785   4.202  13.930  0.3074 -0.3444 -0.0436
22046W        W40250  14.170  14.772  14.236  0.0054  0.0464  0.0249
22047W        W40251  14.858  13.865   2.357  0.2146 -0.0992 -0.0526
22048W        W40252  11.411  15.380   2.350  0.1520 -0.1954 -0.0942
22049W        W40253   8.516  10.954  11.923 -0.1159 -0.1696 -0.1016
22050W        W40254   5.521  17.659   2.123  0.0082  0.1021  0.2664
22051W        W40255   7.171   4.453   4.003 -0.1347 -0.0231  0.0381
22052W        W40256   6.179   9.468  13.839  0.1085  0.2980  0.1505
22053W        W40257   7.847   2.151  12.734 -0.3922 -0.0151 -0.3019
22054W        W40258   0.366   1.983   1.256  0.0256 -0.1173  0.0091
22055W        W40259   7.282  12.940  10.562  0.0196  0.0478  0.2340
22056W        W40260   8.880   6.947   2.724 -0.4863  0.0445  0.2038
22057W        W40261  10.799  11.186   0.340  0.0361 -0.1426 -0.0232
22058W        W40262   1.825  18.399   9.849 -0.1170  0.0704 -0.1901
22059W        W40263   4.348   2.042   0.502 -0.3734 -0.1537  0.0098
22060W        W40264  16.541  11.833  12.351 -0.0790 -0.2197  0.1711
22061W        W40265  16.834  14.283  12.089 -0.1700 -0.3855 -0.2322
22062W        W40266  14.720  17.476  10.446 -0.0112 -0.1847  0.0753
22063W        W40267   7.982   9.520   0.529 -0.1679  0.0203  0.2622
22064W        W40268   5.115   3.324  11.374  0.0498 -0.0536  0.0300
22065W        W40269   5.960  16.215   1.677  0.2245  0.1060 -0.1388
22066W        W40270  10.460  17.536   0.142 -0.0148 -0.1001 -0.1145
22067W        W40271   7.054   1.078   2.851  0.2484 -0.0819 -0.1898
22068W        W40272  17.764   9.642  12.036  0.3276 -0.1028 -0.2092
22069W        W40273  15.275  13.029  11.233  0.0461 -0.0089 -0.2008
22070W        W40274  15.526   9.590  14.241  0.0740 -0.1975  0.2683
22071W        W40275  16.974   0.926  14.358 -0.0540 -0.3391 -0.1242
22072W        W40276   9.001   1.484  12.113 -0.0059 -0.1026 -0.0618
22073W        W40277  11.309   0.654  11.065  0.1109  0.4377  0.0251
22074W        W40278  18.164   2.629  11.378 -0.2829 -0.2374  0.1797
22075W        W40279   4.122   8.037   3.144 -0.0526  0.0926 -0.0381
22076W        W40280   0.827  17.294  11.212 -0.0180 -0.6383 -0.0226
22077W        W40281   4.901  12.935  10.448  0.0836  0.3310 -0.4340
22078W        W40282   0.215   9.866  14.809  0.3169 -0.2031 -0.2670
22079W        W40283  10.018  18.193   1.384  0.1236 -0.2789 -0.0353
22080W        W40284  10.446  11.994   0.845  0.0199 -0.0614 -0.0633
22081W        W40285   4.541  12.078   1.856 -0.1421  0.0730 -0.0856
22082W        W40286  11.129  11.798   4.348  0.1865  0.1216  0.1562
22083W        W40287   7.250  16.497  13.642 -0.0389  0.1065  0.1164
22084W        W40288  15.134   0.621  10.400  0.1016 -0.0938 -0.0156
22085W        W40289   9.436   5.855   2.923 -0.1283 -0.0249  0.0242
22086W        W40290  16.242  14.118  11.919 -0.0243 -0.0171 -0.2020
22087W        W40291   2.247  15.008   3.032 -0.2002 -0.0288  0.2207
22088W        W40292   3.166  10.341   2.417  0.0248 -0.0556 -0.1523
22089W        W40293   1.147  15.644  14.262  0.2181  0.0497  0.1042
22090W        W40294   6.457   5.406   1.292  0.0475  0.2327 -0.2038
22091W        W40295  14.118   7.324  13.371  0.0115 -0.1656 -0.1475
22092W        W40296  11.960  16.970   1.214 -0.0309  0.0566  0.0366
22093W        W40297  16.138  15.510   4.343  0.0187  0.1326  0.2547
22094W        W40298  16.596  17.135   2.577  0.1999 -0.0274 -0.2122
22095W        W40299  10.416  12.954   1.732  0.1421  0.0169  0.3665
22096W        W40300  14.668  16.354  12.995 -0.0035  0.0598 -0.0564
22097W        W40301  18.227  14.756   0.114  0.1082 -0.3271 -0.1717
22098W        W40302   2.923   4.621  11.225 -0.2622 -0.3728 -0.2076
22099W        W40303   2.965   2.549   0.894  0.2223 -0.1242  0.0525
22100W        W40304   3.725   6.871  13.321 -0.0958  0.1600  0.0045
22101W        W40305   1.656  11.112   2.741 -0.2448  0.0744 -0.2333
22102W        W40306   5.370   1.388  13.703  0.3082 -0.1441 -0.0628
22103W        W40307  16.347   0.932   2.106  0.0591 -0.0131  0.2090
22104W        W40308   2.524   6.212   3.133  0.0727  0.1089  0.0199
22105W        W40309   7.567   9.805  14.221 -0.1408  0.1849 -0.0329
22106W        W40310   3.477  18.805  13.060  0.4378  0.1673  0.0188
22107W        W40311   4.255   1.049   4.677 -0.0627  0.2044  0.2181
22108W        W40312  16.990  13.400   0.544  0.1299  0.0781  0.0917
22109W        W40313   1.648   9.495   2.461 -0.1379 -0.0515  0.0527
22110W        W40314   7.838   1.524   2.315  0.0317  0.2245  0.1214
22111W        W40315  12.714  13.877   2.121  0.0525 -0.1085 -0.2152
22112W        W40316  10.880   7.251  14.032 -0.0710  0.1667 -0.2028
22113W        W40317   1.324   7.300  11.405 -0.5007  0.2069 -0.0495
22114W        W40318   0.117   9.013  13.541  0.3123  0.0745 -0.0603
22115W        W40319  14.196   9.566   4.593 -0.1452 -0.1286  0.0448
22116W        W40320  12.692   5.456  10.941 -0.3071 -0.2744 -0.2728
22117W        W40321   6.930   8.503  11.371  0.2071 -0.0138 -0.0690
22118W        W40322  17.526  10.121  12.298 -0.2214 -0.4219  0.0841
22119W        W40323   5.864   0.261   4.013  0.1219 -0.0523 -0.1837
22120W        W40324  16.102  11.633  14.492 -0.1134 -0.3795 -0.0567
22121W        W40325   4.567   0.380  13.439 -0.1743  0.0451 -0.3382
22122W        W40326   1.371  12.943  11.445 -0.0170 -0.3321 -0.0618
22123W        W40327   4.616  16.846   0.822  0.0891  0.3493 -0.1830
22124W        W40328  11.066  13.472  11.017  0.0622 -0.1459 -0.1298
22125W        W40329  16.270   2.812   0.875 -0.1459 -0.0875  0.2193
22126W        W40330   2.338  18.139   5.056  0.1407 -0.0864 -0.3399
22127W        W40331  10.665  15.735   2.184 -0.0559  0.2068  0.3573
22128W        W40332  17.414   1.235   1.374 -0.1172  0.2039  0.0540
22129W        W40333  12.654   9.639  14.361 -0.2008  0.3677  0.1035
22130W        W40334  11.717  15.071  14.013  0.1450  0.0010  0.2170
22131W        W40335   7.682  12.933   0.462 -0.2739  0.0619 -0.1553
22132W        W40336   2.541  14.330  11.237 -0.1180  0.1979  0.3469
22133W        W40337  18.393  14.311  10.644 -0.1768 -0.1673  0.2472
22134W        W40338   1.346  17.789   1.041 -0.1028  0.0806  0.3698
22135W        W40339   3.003   9.217  14.557  0.0417  0.0154  0.2389
22136W        W40340   7.170   1.436  14.058 -0.2485 -0.2329  0.1059
22137W        W40341   8.149   0.171  10.874 -0.0510  0.0470  0.1078
22138W        W40342   8.672   7.159   0.389  0.0731 -0.4233 -0.1850
22139W        W40343   2.256  17.632  11.621 -0.1048  0.1083  0.1179
22140W        W40344   0.436   4.299   0.327  0.2499  0.0866  0.1153
22141W        W40345   4.414   0.745  11.696 -0.1787  0.0460  0.4931
22142W        W40346   0.925  17.967   1.386 -0.2069  0.1661  0.0326
22143W        W40347   8.593   3.460   5.244  0.4201  0.0345 -0.2561
22144W        W40348   4.460  12.447   0.271  0.0397 -0.1540  0.1138
22145W        W40349   0.419   9.005   3.917 -0.2027  0.2484  0.2536
22146W        W40350  16.150  11.830   4.578 -0.2261 -0.1601 -0.1328
22147W        W40351   7.679   5.321  13.929 -0.1166 -0.1015 -0.0843
22148W        W40352   6.323   5.937   5.544  0.0829  0.0587 -0.1738
22149W        W40353  11.813   7.050   1.718  0.2038 -0.0617 -0.1430
22150W        W40354   9.331   3.108  12.022  0.4011 -0.1265 -0.0723
22151W        W40355  14.483  15.953  11.279 -0.0681  0.0173  0.3892
22152W        W40356  17.787  13.543  10.773  0.2701  0.1916  0.2726
22153W        W40357  17.765   7.851  14.632  0.1552 -0.1027  0.0086
22154W        W40358   6.032   3.102   4.960  0.1738 -0.3757 -0.4139
22155W        W40359  12.734  14.892   4.726 -0.2392  0.1535  0.3459
22156W        W40360   8.891  10.414   0.860 -0.3759  0.4017 -0.0899
22157W        W40361   6.568   2.647   4.295  0.2300 -0.0098  0.0261
22158W        W40362   2.319   3.606  12.194 -0.2252 -0.1225  0.0526
22159W        W40363  12.907   4.186   1.609  0.1764 -0.1646  0.1431
22160W        W40364   8.846   5.646   4.467 -0.1284 -0.1297 -0.2479
22161W        W40365  18.859   2.017  13.720 -0.0619  0.0118 -0.0949
22162W        W40366  13.208  13.361  13.552 -0.1191  0.2607  0.1277
22163W        W40367  15.224   5.148  14.957 -0.2507 -0.1756 -0.0210
22164W        W40368   6.698  13.242   9.706 -0.0959  0.0774  0.1993
22165W        W40369   8.952  12.195  11.328 -0.3003  0.0766 -0.0805
22166W        W40370  10.286   2.656  11.114  0.1668 -0.1396 -0.0334
22167W        W40371  15.281   9.867   0.932  0.0313  0.0658 -0.3228
22168W        W40372  17.015   1.976   2.414  0.1723  0.1287 -0.1937
22169W        W40373  13.202   3.613   2.289  0.1615  0.1399  0.2029
22170W        W40374   3.918   9.421  11.300  0.1522  0.3558 -0.0588
22171W        W40375   7.612   4.600  12.798  0.1352  0.1347 -0.1899
22172W        W40376  12.702  18.701  12.832 -0.2130  0.0187 -0.1673
22173W        W40377   6.171   3.732   0.457  0.3108 -0.0903  0.0628
22174W        W40378   1.515   3.560   4.379 -0.0584  0.2105  0.1316
22175W        W40379  17.107  15.985   0.198  0.0469  0.1957 -0.2382
22176W        W40380  15.661   0.457   3.773 -0.0844 -0.2141  0.0631
22177W        W40381   3.385  10.911  13.143  0.3332  0.1031  0.0710
22178W        W40382  16.190  12.177  13.160 -0.0313 -0.1871  0.0493
22179W        W40383   6.719  11.470   1.881  0.2995 -0.0270  0.2191
22180W        W40384   8.568  15.517  13.301  0.2111 -0.1083  0.2822
22181W        W40385   6.018   8.417   2.971 -0.1864  0.0359 -0.2056
22182W        W40386   6.497   6.476   5.481 -0.2009  0.0198 -0.0641
22183W        W40387   1.404  17.301  13.405  0.2820  0.0694 -0.0192
22184W        W40388  11.518   6.450   2.344  0.1604  0.2341  0.2648
22185W        W40389  10.672   0.148   1.352 -0.1041  0.3322  0.0173
22186W        W40390  12.735   8.251   1.243  0.1034  0.3102  0.2225
22187W        W40391   2.572  14.596   2.308  0.4271 -0.0902 -0.1457
22188W        W40392   4.287   1.907  14.352  0.2165 -0.1809  0.4452
22189W        W40393   7.488   9.354   0.668 -0.1887 -0.0620  0.2565
22190W        W40394  18.790  11.316   1.943  0.3328  0.2365 -0.0828
22191W        W40395  12.305  13.852   0.412  0.0959 -0.0697 -0.2221
22192W        W40396  17.387   6.398  13.519 -0.1286  0.1553 -0.0292
22193W        W40397   5.491   8.102   0.894 -0.2622  0.1086 -0.1926
22194W        W40398  14.918   5.884   0.229 -0.0495 -0.1825 -0.1534
22195W        W40399  14.661  13.867   0.603 -0.0393  0.1938 -0.0407
22196W        W40400  17.464   2.119  15.014  0.1485  0.0830 -0.0253
22197W        W40401   3.415  17.281   2.904 -0.0978  0.0970  0.1531
22198W        W40402  14.156   1.160  11.397  0.0973  0.2035  0.1797
22199W        W40403  13.490  15.574  10.716  0.4044 -0.0675  0.1435
22200W        W40404   4.436   1.597   2.750  0.0949  0.0540  0.0544
22201W        W40405  15.694   9.306  11.260 -0.0656 -0.0150  0.1375
22202W        W40406   1.949  10.601  10.997 -0.1010  0.2522 -0.1271
22203W        W40407   5.682  16.450  12.114 -0.2950 -0.0467  0.1339
22204W        W40408  10.327  15.109  12.533 -0.0885 -0.0765 -0.1266
22205W        W40409   0.098   1.913  14.182 -0.1089 -0.2200  0.2996
22206W        W40410  10.473  13.001   4.188  0.3148  0.1247 -0.2978
22207W        W40411   6.698   3.471  11.175  0.1823 -0.2490 -0.0643
22208W        W40412   3.655  16.467  11.357  0.3867 -0.0377 -0.3004
22209W        W40413   5.652   4.570  14.615  0.0904  0.1662 -0.0211
22210W        W40414   3.225   8.393  14.126 -0.0038  0.0808  0.3700
22211W        W40415  11.475   7.426   4.088 -0.3285  0.3498 -0.0156
22212W        W40416  11.038  17.023   2.334 -0.0760 -0.0822  0.0829
22213W        W40417  16.740   8.179   4.916 -0.2385  0.3427 -0.2686
22214W        W40418  10.145  14.802   4.214  0.0408 -0.2677  0.2195
22215W        W40419  17.328  18.631  10.903 -0.1992 -0.0114  0.0765
22216W        W40420   0.677  15.814   0.878  0.3589  0.1675  0.0650
22217W        W40421   8.345   8.274  11.949  0.1101  0.0822  0.1408
22218W        W40422  11.296   7.951   2.786  0.0460  0.1590 -0.0342
22219W        W40423  11.215  14.880   2.527  0.1838  0.0565  0.0737
22220W        W40424   3.724  13.128  14.425 -0.3158  0.2717  0.0764
22221W        W40425  16.408  15.275  11.968 -0.2001 -0.1331 -0.0392
22222W        W40426  11.914  18.579  10.772 -0.2008  0.0893 -0.1132
22223W        W40427  13.291   0.899  10.216  0.2061 -0.1846 -0.0506
22224W        W40428   9.159  10.908  14.032  0.3628  0.0994  0.1409
22225W        W40429  15.876   5.571   2.218  0.2014  0.1484  0.1951
22226W        W40430   5.990  14.203  12.918  0.0248  0.2088 -0.3178
22227W        W40431  15.603   1.700   0.856 -0.3463 -0.0768  0.0353
22228W        W40432  14.480   4.932   1.007 -0.0600 -0.1790  0.1333
22229W        W40433   3.313   6.289  11.871 -0.0894  0.0738 -0.0286
22230W        W40434   5.612   3.527  11.359 -0.0865  0.1105 -0.2386
22231W        W40435   2.406   9.660   1.031 -0.0783  0.0450 -0.1424
22232W        W40436   4.838   9.512   2.969  0.2360 -0.0929 -0.0420
22233W        W40437   4.059  16.071   9.895 -0.0446 -0.2952 -0.0525
22234W        W40438   6.028   0.891  14.550 -0.0250  0.0772  0.0871
22235W        W40439  15.124  11.510   5.531  0.3414 -0.0881 -0.0534
22236W        W40440  18.011   8.746  13.699  0.3667  0.0932  0.0172
22237W        W40441   4.735  15.109  10.401 -0.0120 -0.4354 -0.1446
22238W        W40442  16.734   9.315   4.199  0.0392  0.0182  0.0184
22239W        W40443   6.207   0.237   4.449  0.1794 -0.1847  0.0104
22240W        W40444   4.344  15.470   1.962 -0.0223  0.2631 -0.1545
22241W        W40445  13.289  17.393   2.682  0.0862 -0.1411 -0.0721
22242W        W40446   9.108   7.201   0.049  0.2503  0.4864  0.1177
22243W        W40447  10.302  11.609  12.100  0.1049 -0.0893  0.3599
22244W        W40448  13.162  16.830   4.399 -0.0447  0.0754  0.1668
22245W        W40449  17.628  12.163   1.327 -0.0837  0.1431  0.2063
22246W        W40450  16.189   7.985   0.820  0.5251 -0.1200 -0.1147
22247W        W40451  15.504  12.709  12.979  0.1877  0.1660 -0.3322
22248W        W40452  17.298   5.891   1.453 -0.0356  0.0342  0.1703
22249W        W40453  10.429   7.123  12.127  0.0021 -0.1514  0.2270
22250W        W40454   7.339  15.185  14.614 -0.3858  0.2421 -0.0584
22251W        W40455   0.509   9.956   1.240 -0.1091 -0.0657 -0.0790
22252W        W40456   2.080   2.538   4.030  0.1075  0.0846 -0.1512
22253W        W40457   4.940   3.850  14.764 -0.1706  0.2608  0.0579
22254W        W40458  14.798   4.651   2.777  0.1839 -0.2829  0.4564
22255W        W40459  14.092   5.207   3.012  0.0641 -0.3235 -0.1609
22256W        W40460  18.779  16.698   0.743  0.1368  0.2256 -0.1524
22257W        W40461  13.353  17.076  14.694 -0.0911  0.1580  0.2501
22258W        W40462   5.562   3.345   3.052  0.1992 -0.1993 -0.3992
22259W        W40463   8.143   9.532   1.942  0.1900  0.0452  0.1050
22260W        W40464   0.572   5.855   3.785 -0.0172 -0.1337  0.0267
22261W        W40465   7.708   3.052   4.275 -0.0185 -0.0759 -0.2399
22262W        W40466   0.434  13.194   1.867 -0.0843  0.2537 -0.0517
22263W        W40467   7.931  16.202  13.259 -0.1833 -0.2464 -0.0284
22264W        W40468  15.711   7.398   2.610 -0.1530 -0.2552  0.0119
22265W        W40469   7.028  16.508   1.207 -0.0350 -0.1205  0.3275
22266W        W40470   0.682   5.853  10.059 -0.0899  0.1853 -0.0858
22267W        W40471  15.863  15.782  12.354 -0.4945 -0.2053  0.1257
22268W        W40472   8.784   3.041   2.372  0.2020 -0.0664 -0.1409
22269W        W40473  17.475   0.262   1.636  0.1215  0.2227 -0.0578
22270W        W40474  16.885  13.723   3.945 -0.1252 -0.2104  0.1856
22271W        W40475   4.155  12.350   3.608  0.5158 -0.0025  0.1428
22272W        W40476   6.934  18.634  14.380 -0.3242  0.2652 -0.1150
22273W        W40477  12.229  12.754  14.292 -0.0781 -0.2595 -0.1286
22274W        W40478  11.494   4.195   4.036 -0.1367  0.0171 -0.0382
22275W        W40479  10.109  14.986  12.097  0.0702 -0.1112 -0.2681
22276W        W40480   1.981  10.522   4.370  0.0467 -0.0588 -0.1018
22277W        W40481   8.957   1.280  12.643 -0.0425 -0.2422  0.0602
22278W        W40482   7.306  11.565  12.587  0.1614 -0.0174 -0.1698
22279W        W40483  14.347   5.602  10.596 -0.1476  0.0882 -0.0642
22280W        W40484   9.585  17.833  11.269 -0.2041  0.0102  0.0937
22281W        W40485  11.672   8.829   3.980 -0.2173  0.0418  0.1825
22282W        W40486  14.921  11.083  12.373 -0.1947  0.1591  0.1092
22283W        W40487  17.484   6.775  14.291 -0.1121 -0.0251  0.1694
22284W        W40488   9.419  13.848   4.094  0.0431  0.0512  0.6039
22285W        W40489   9.135  17.744   3.950 -0.0532 -0.2803 -0.2896
22286W        W40490   5.923  11.562  11.562 -0.3179 -0.0666  0.0866
22287W        W40491   0.279  10.824   3.150 -0.3034  0.2028 -0.0528
22288W        W40492  18.658  15.072  14.374  0.2059 -0.1412 -0.0111
22289W        W40493   8.134   8.017   0.065 -0.0638  0.0315 -0.0595
22290W        W40494   4.064   1.032   1.912 -0.2109  0.1186  0.3271
22291W        W40495   7.118   2.200   3.772  0.1808 -0.0074 -0.1302
22292W        W40496   6.026  16.831   2.525  0.1146 -0.0164 -0.1291
22293W        W40497   2.583   3.794   4.724  0.0091 -0.2267  0.0955
22294W        W40498  10.565   9.115  13.196 -0.1061  0.0366  0.0098
22295W        W40499   0.174   8.056  11.584 -0.2942 -0.0935  0.1694
22296W        W40500  18.546   9.801   3.733  0.0958 -0.0207 -0.0373
22297W        W40501  13.041  15.949   3.007 -0.1081 -0.0357  0.4868
22298W        W40502  18.395  15.848   9.760  0.3857 -0.1294  0.0543
22299W        W40503  11.259  12.362   0.752  0.2398 -0.1930  0.0263
22300W        W40504   3.781  16.447  10.763 -0.2072 -0.1678  0.1327
22301W        W40505  15.207   2.495   9.478 -0.0839  0.1780 -0.0498
22302W        W40506   8.798  10.985   5.469 -0.0757  0.1536  0.2334
22303W        W40507   4.298  10.033  12.023  0.2235 -0.1122 -0.4415
22304W        W40508   5.623  13.267   0.833 -0.0458  0.1320  0.2282
22305W        W40509   4.362   5.552   2.771 -0.0359 -0.3275 -0.3320
22306W        W40510   9.711   8.813   0.285 -0.0246  0.0498  0.0919
22307W        W40511   9.682   4.642  12.793  0.0602 -0.0132 -0.0012
22308W        W40512  11.662   8.436   3.679  0.2700  0.1591  0.0515
22309W        W40513   9.904  13.994   3.882  0.0718 -0.1006 -0.0937
22310W        W40514  18.205  14.084  14.057  0.2270  0.2959 -0.0124
22311W        W40515  18.395   5.930  12.165  0.4646  0.0047 -0.0518
22312W        W40516   9.691   9.183  11.890  0.0875  0.0164 -0.1763
22313W        W40517   2.604   8.325   1.181 -0.3773 -0.0160  0.3324
22314W        W40518   4.742  17.983   3.234  0.0493  0.1146  0.2636
22315W        W40519  16.122   8.800   1.232 -0.1823 -0.3443  0.2684
22316W        W40520  18.673   7.513   3.012  0.1222 -0.2154 -0.4210
22317W        W40521  16.532   4.845  11.979 -0.2817 -0.1180  0.1678
22318W        W40522   0.812   3.111   4.886  0.1333  0.1762  0.2595
22319W        W40523  18.019  15.800   0.428 -0.0754  0.1766 -0.0540
22320W        W40524  10.565  18.824  13.195 -0.3137  0.0505 -0.0415
22321W        W40525   3.174  12.044  10.504  0.2653 -0.0410  0.0862
22322W        W40526   6.899  15.147   3.506  0.0784  0.4680  0.1004
22323W        W40527  10.158   3.541  10.285 -0.1697  0.1674 -0.3558
22324W        W40528   1.297   1.131  11.355  0.1693 -0.1886  0.0062
22325W        W40529  17.628  17.076   2.720 -0.1186 -0.1107  0.0580
22326W        W40530   5.648   8.399   3.361  0.2438  0.0964  0.2781
22327W        W40531   1.159  12.654  11.772 -0.0372 -0.0703  0.2136
22328W        W40532  13.783   6.981   2.886  0.2168  0.1031  0.2239
22329W        W40533   2.175   8.400   0.448 -0.0297  0.0515 -0.2055
22330W        W40534   1.838  14.534  13.546 -0.2869 -0.1562 -0.2651
22331W        W40535  13.538   5.377   1.752 -0.0229  0.2261 -0.0494
22332W        W40536  18.428   7.758   1.478 -0.1392 -0.0235  0.0469
22333W        W40537  17.381   5.349  13.648 -0.2666  0.2022  0.2127
22334W        W40538   7.173  12.708   1.372  0.3316 -0.1198  0.0267
22335W        W40539  14.693  12.510   2.293 -0.3666  0.3693  0.0154
22336W        W40540  12.597  11.864   2.775  0.0723  0.3151 -0.0174
22337W        W40541   3.362  16.425   3.292 -0.3991 -0.0557 -0.0087
22338W        W40542   7.224   5.166  14.282  0.0456  0.0872  0.0031
22339W        W40543   7.437   7.419  14.949  0.2164  0.3552 -0.3865
22340W        W40544   6.400   2.928  11.850 -0.1029  0.0117 -0.1667
22341W        W40545  15.331  11.377  13.372 -0.0276  0.0404 -0.1746
22342W        W40546   0.840   2.233   0.693  0.2403 -0.0947  0.1134
22343W        W40547  16.553   6.451  13.462  0.0004  0.0958  0.1729
22344W        W40548  15.832  12.910  11.138 -0.2478 -0.0365 -0.3296
22345W        W40549   5.875   3.336  11.759 -0.0586 -0.1287  0.2741
22346W        W40550   9.421   4.936  13.128 -0.0121 -0.2800 -0.0907
22347W        W40551   5.732   1.516   2.921 -0.0119 -0.0390  0.0764
22348W        W40552   4.513   1.416   4.423 -0.1093 -0.1295 -0.0910
22349W        W40553   9.066   5.360  14.178  0.2005 -0.3649 -0.0040
22350W        W40554  13.808   6.605  11.467  0.0670 -0.1998 -0.0972
22351W        W40555  10.579   0.750   4.112  0.1097 -0.1225 -0.1755
22352W        W40556  12.621   6.808   2.195 -0.2324  0.0511  0.0480
22353W        W40557  10.556   8.128   1.922 -0.1773 -0.1018 -0.3420
22354W        W40558   1.030  12.566  12.610  0.1939  0.0626 -0.0534
22355W        W40559  18.655  17.671  12.218  0.4132  0.1012 -0.6310
22356W        W40560   7.972   2.141   3.379  0.1932  0.0661  0.4028
22357W        W40561   1.649  15.365  13.367  0.1437 -0.1798 -0.0485
22358W        W40562   9.167   9.523  14.136 -0.0331 -0.1617 -0.1912
22359W        W40563  13.524   0.761   4.295  0.0483 -0.1581  0.0203
22360W        W40564  16.082   1.737   1.615  0.2036  0.1068 -0.0397
22361W        W40565  15.460  15.951   0.694 -0.1322 -0.1932  0.0667
22362W        W40566  11.883   4.083   5.288  0.0126  0.0806 -0.2709
22363W        W40567   1.631  17.393  12.858  0.1941  0.0599  0.0845
22364W        W40568   0.530   8.652   2.902  0.3632  0.1142 -0.2373
22365W        W40569   4.525   8.226   2.217  0.0747 -0.1505  0.3358
22366W        W40570  18.531  16.084  10.199 -0.1136  0.1358 -0.1956
22367W        W40571  17.426  15.069  13.591  0.0948 -0.2169  0.2030
22368W        W40572   5.034   2.236  14.234 -0.1329 -0.1329 -0.0194
22369W        W40573  17.290   2.681  15.012  0.0121 -0.2308  0.1962
22370W        W40574  13.553  16.530  11.488  0.2162  0.2625  0.2470
22371W        W40575   7.938  10.546   3.453  0.3591 -0.0348 -0.3993
22372W        W40576   5.465   2.940  10.189 -0.2429  0.0509 -0.2462
22373W        W40577   9.652  13.775  13.601 -0.0015  0.1522  0.0808
22374W        W40578   8.386  11.118   1.285 -0.0192 -0.1504  0.0692
22375W        W40579  11.777   0.647  12.043  0.0867  0.2056  0.2525
22376W        W40580   4.000  15.175   1.708 -0.0272  0.0814 -0.0002
22377W        W40581  15.354  18.671  11.683 -0.0288  0.2993 -0.3579
22378W        W40582   3.834  11.014   4.054 -0.3680  0.0116 -0.1321
22379W        W40583   5.965   0.030   5.391 -0.2145  0.2680 -0.2300
22380W        W40584   1.432  14.301  14.391  0.1891 -0.2783  0.1627
22381W        W40585  14.015   5.559   1.816 -0.0813  0.1086 -0.3743
22382W        W40586  11.622   3.559  14.976 -0.1014  0.1737  0.0624
22383W        W40587  18.278  14.398  14.628  0.0337  0.0713  0.1367
22384W        W40588   0.864  10.626   1.435  0.0904  0.0975 -0.1469
22385W        W40589  14.057   0.995   1.639  0.2107  0.2184 -0.1370
22386W        W40590   5.115  13.477   0.837 -0.1366  0.2830 -0.0663
22387W        W40591   2.911  14.798   0.664 -0.0624 -0.0733  0.2470
22388W        W40592   1.353  17.599   1.468  0.1072  0.2068 -0.0461
22389W        W40593   8.400  13.388  14.382  0.2577 -0.0369 -0.1482
22390W        W40594   2.674  16.704  10.043  0.1734  0.0881  0.1241
22391W        W40595   4.034   9.712  14.973  0.1335  0.1100  0.0802
22392W        W40596   2.279  14.566  14.896 -0.1088 -0.1069  0.2132
22393W        W40597   7.055  13.474  12.248  0.0302  0.0900  0.5725
22394W        W40598   0.723  13.693  14.811  0.4464 -0.1051 -0.3143
22395W        W40599   3.792  12.331  13.066 -0.3079  0.2554  0.0268
22396W        W40600   6.950   4.626   1.077 -0.0511  0.0921  0.0705
22397W        W40601  14.692   5.145  13.288 -0.1285 -0.0149  0.1247
22398W        W40602   2.499  18.267   1.230 -0.0534  0.0149  0.2194
22399W        W40603   5.338  18.302  13.576  0.1039 -0.0105 -0.0687
22400W        W40604  14.925  11.960   0.056  0.2773 -0.0822  0.1878
22401W        W40605  13.115  11.743  13.003 -0.2118  0.0689 -0.0430
22402W        W40606   7.698  17.627  13.591  0.0657 -0.1313  0.2175
22403W        W40607  14.329   7.950   1.713 -0.1908  0.1590 -0.3937
22404W        W40608   9.008   5.133  14.711 -0.0433 -0.1728  0.0115
22405W        W40609  13.543   3.585  12.929 -0.1069 -0.0762 -0.0950
22406W        W40610  12.233  12.417   1.008  0.2827 -0.0733  0.2540
22407W        W40611   3.982  10.267  13.208 -0.4811  0.0156 -0.0737
22408W        W40612   3.653   5.068   4.577  0.1200  0.1470 -0.1051
22409W        W40613   0.895  16.285  10.343  0.0877 -0.1385  0.0615
22410W        W40614  10.594  15.526  12.320  0.1237  0.0015 -0.3387
22411W        W40615   4.944   9.541   4.510 -0.1036 -0.0041  0.0255
22412W        W40616  17.845   4.978   3.622 -0.2298  0.1470  0.1308
22413W        W40617  13.882   6.690   3.966  0.1561 -0.2546 -0.2289
22414W        W40618  17.686  13.192   4.568  0.1171  0.0323  0.0913
22415W        W40619  10.273   5.191  11.755  0.2223  0.0359 -0.2086
22416W        W40620   3.038   3.691   1.047 -0.1955  0.1528 -0.1079
22417W        W40621   1.576  12.808  10.106  0.2075 -0.3388 -0.0191
22418W        W40622  12.656   4.772   2.802  0.2346 -0.0090 -0.0185
22419W        W40623   5.457   8.456  12.789  0.1766  0.0021  0.0836
22420W        W40624   4.783   3.643  13.939  0.1054 -0.2714  0.3025
22421W        W40625  17.456   5.046   3.153  0.0620 -0.3936 -0.1129
22422W        W40626  16.214  14.237  13.639  0.2916  0.4403  0.4973
22423W        W40627   0.645   0.445   2.780 -0.2538 -0.0458 -0.1535
22424W        W40628   9.275   8.712   4.777 -0.1983  0.0148  0.1426
22425W        W40629   6.573   3.124  13.847  0.1977 -0.3792 -0.1461
22426W        W40630   3.183   5.988   0.895 -0.1456 -0.4383  0.1845
22427W        W40631  13.357   0.223   0.107 -0.2278  0.0515 -0.0896
22428W        W40632  16.143   5.048   0.082 -0.0742 -0.0482 -0.2785
22429W        W40633   5.943   5.978   0.349  0.2073  0.0718 -0.1450
22430W        W40634   7.649  11.222   2.326  0.0352  0.1622 -0.2285
22431W        W40635   1.350  11.883  13.015 -0.2029  0.1034 -0.0283
22432W        W40636   8.913   3.655  12.836  0.0556  0.1454  0.2367
22433W        W40637  18.166  15.870   5.232 -0.2923 -0.0876  0.1997
22434W        W40638   5.250   2.642   2.373 -0.4799  0.1249 -0.0338
22435W        W40639   9.321   6.299   5.316  0.1002 -0.2018  0.0516
22436W        W40640   0.485  16.523  14.380  0.2321  0.1945 -0.1277
22437W        W40641   1.370  16.285   4.132  0.2370 -0.1064  0.1313
22438W        W40642   8.913   0.542  11.903 -0.1169  0.0468 -0.1981
22439W        W40643  18.833  10.627   2.852 -0.0797 -0.0728  0.0013
22440W        W40644   3.185   3.856  12.597  0.0263  0.2309  0.4394
22441W        W40645   8.865   2.697   3.174 -0.0550 -0.0187 -0.0681
22442W        W40646  15.604  17.176  14.428  0.0761 -0.1357 -0.2355
22443W        W40647   3.157  14.261   2.762 -0.0707  0.2020 -0.1642
22444W        W40648   9.748   0.098   1.123  0.1011  0.0169  0.3456
22445W        W40649  16.424  16.038  11.534  0.1193 -0.1066  0.1152
22446W        W40650  13.104  10.188   1.713 -0.0694  0.3414  0.0692
22447W        W40651   1.707   8.038  11.460  0.0229  0.1947  0.5933
22448W        W40652   6.080   7.545   2.701  0.0160 -0.0317  0.0040
22449W        W40653  11.739  14.776   1.527  0.2207 -0.0545 -0.7075
22450W        W40654   0.633   7.300   2.668 -0.2247  0.1529 -0.4056
22451W        W40655   1.001  18.941   3.934  0.0092  0.2282  0.2437
22452W        W40656   7.931  12.560   3.029 -0.1071 -0.0083 -0.1023
22453W        W40657  12.451   2.113  13.942 -0.2382 -0.0729  0.2240
22454W        W40658  10.105   7.753  14.350 -0.0863  0.1254  0.2569
22455W        W40659   3.664   8.492   5.813 -0.3687  0.0963  0.1597
22456W        W40660  15.318   9.256   3.636  0.4073  0.0122  0.2627
22457W        W40661  10.717  15.831  13.627  0.3885  0.1101  0.0042
22458W        W40662   1.726   0.568   3.874 -0.0936  0.0615  0.0973
22459W        W40663  16.193   6.939   4.405  0.0627  0.0120 -0.1789
22460W        W40664  13.552   9.543   2.450 -0.1316 -0.2886  0.1835
22461W        W40665  13.158   7.563  11.578  0.0183  0.1033 -0.0012
22462W        W40666  10.907  12.251  11.244 -0.0219  0.1259 -0.0972
22463W        W40667   1.201   6.618  13.461 -0.0399  0.2346 -0.1726
22464W        W40668   9.153   8.040   0.722  0.1212 -0.1756 -0.0807
22465W        W40669  17.088   5.179  12.322  0.0504 -0.0062 -0.1806
22466W        W40670   9.252  14.061  10.983  0.4854 -0.5735  0.3034
22467W        W40671   9.384   9.849   0.185  0.0679  0.0073 -0.2509
22468W        W40672   4.925   0.046  11.153 -0.3935 -0.0239 -0.0272
22469W        W40673   5.300  18.192  14.092 -0.4307  0.0196 -0.0082
22470W        W40674  17.612   9.301  14.450  0.0221 -0.2530 -0.0080
22471W        W40675   9.747  12.184   3.138  0.3487 -0.1340  0.0897
22472W        W40676  14.148  12.361  14.884  0.0257 -0.2406  0.2516
22473W        W40677  14.465   8.986  14.717  0.1454 -0.1909 -0.2279
22474W        W40678  18.830   7.758  13.752  0.1081 -0.0327 -0.1838
22475W        W40679   2.783  18.279   4.802  0.0576 -0.0047  0.0451
22476W        W40680  16.630   7.718   3.958 -0.0047 -0.2370 -0.0259
22477W        W40681  13.898  13.466  13.331 -0.1710  0.0194 -0.1636
22478W        W40682   3.617   2.808   1.059 -0.2830 -0.0109  0.0820
22479W        W40683  14.981  11.570  12.137  0.1390 -0.3501 -0.0944
22480W        W40684  18.269  12.316   3.324 -0.1593  0.2977  0.2929
22481W        W40685   8.913   7.845   1.097  0.2848 -0.2280 -0.2603
22482W        W40686   5.671  18.026  10.339 -0.0035 -0.0699 -0.0256
22483W        W40687   1.007   9.502  10.402  0.0643 -0.0324 -0.0555
22484W        W40688   2.714   4.972   3.958 -0.0187  0.3297 -0.0588
22485W        W40689   1.545   5.918   3.088  0.0774 -0.1996 -0.0060
22486W        W40690   0.161   2.340   0.023 -0.1026  0.1906 -0.0598
22487W        W40691  13.575  14.196  11.409 -0.0562  0.0891  0.0370
22488W        W40692   4.128   9.120   0.731  0.0343 -0.1297 -0.1493
22489W        W40693   0.341  12.366  12.822  0.2481 -0.3120 -0.0055
22490W        W40694  14.674   6.123   3.814  0.1381  0.1893 -0.0407
22491W        W40695  11.780   5.863   0.672  0.0512  0.3019  0.3779
22492W        W40696  16.172   6.779  13.575 -0.0786  0.0296  0.1450
22493W        W40697  14.421  11.329  13.396 -0.0255  0.1089  0.1689
22494W        W40698  10.184  14.261   4.186  0.1010  0.0158 -0.3722
22495W        W40699   8.823   1.680   9.975  0.4436  0.1238 -0.0897
22496W        W40700  13.047  13.104  13.001  0.0925 -0.3993  0.3072
22497W        W40701   9.056  15.578  11.035 -0.1383 -0.3498  0.2098
22498W        W40702   0.479  15.414   3.580 -0.1777  0.0073 -0.1027
22499W        W40703   5.635   9.520   3.620 -0.1785  0.0910  0.5736
22500W        W40704   3.079   8.353  10.943 -0.3412 -0.0306 -0.0541
22501W        W40705  16.922   8.791  12.922 -0.3003  0.0816 -0.0513
22502W        W40706   8.377  18.659   2.944  0.2299 -0.2345  0.0594
22503W        W40707  14.475  13.548  12.316 -0.3193 -0.0807 -0.0081
22504W        W40708   9.919  10.024  11.973 -0.1222  0.5693  0.2604
22505W        W40709  11.242   7.477  11.463  0.2822  0.0415 -0.1391
22506W        W40710  15.550  15.980  13.063  0.0441  0.1286 -0.1531
22507W        W40711  11.732   6.005   4.990 -0.2599  0.1590  0.3610
22508W        W40712   8.163  18.682   0.385 -0.1602 -0.2040 -0.1760
22509W        W40713  16.867  13.240  11.477  0.2653  0.1576 -0.1811
22510W        W40714   4.638  14.570   1.563  0.0527  0.0240  0.2959
22511W        W40715   4.576  10.004   0.034  0.1508 -0.0844 -0.0909
22512W        W40716  18.217  15.683  13.029  0.3550  0.0728  0.1004
22513W        W40717   3.519   2.346   3.967 -0.1398 -0.1102 -0.0943
22514W        W40718  13.167  13.175   4.369  0.0851 -0.0263  0.1562
22515W        W40719   2.307  18.183   5.567  0.2451 -0.1614  0.0221
22516W        W40720   8.793  11.871   5.091  0.2434 -0.1445  0.0109
22517W        W40721   3.201   8.753   1.910  0.1047  0.1775  0.0452
22518W        W40722   4.309   8.633  13.428  0.0310 -0.1270 -0.0863
22519W        W40723   8.843   0.213   0.242  0.0948  0.1705 -0.1611
22520W        W40724  15.206  13.452   2.434  0.2963  0.2348  0.1596
22521W        W40725  17.018   0.935   1.146  0.2926 -0.1412  0.2986
22522W        W40726   7.283   9.782  11.292 -0.0390  0.0169 -0.1426
22523W        W40727  13.050   2.606  14.542  0.0906  0.0875  0.0608
22524W        W40728   5.891   5.805   1.920 -0.2532  0.0816 -0.1802
22525W        W40729   6.987   2.234  11.847  0.0331 -0.0307 -0.0402
22526W        W40730   5.968  14.027   1.882 -0.1707 -0.0431 -0.0306
22527W        W40731  16.273   0.459   3.941 -0.0004  0.3823 -0.1496
22528W        W40732  13.415   5.286   1.219 -0.1357  0.1724  0.2828
22529W        W40733   8.832  17.202  11.114 -0.2945  0.1098 -0.1689
22530W        W40734   4.312   9.437  14.553  0.0618  0.0255  0.1260
22531W        W40735   7.018  18.565  10.900  0.2606 -0.1144 -0.0439
22532W        W40736   5.072   8.019  12.922  0.0578 -0.3193  0.2081
22533W        W40737  12.402   5.253   2.437  0.0397 -0.0934  0.0142
22534W        W40738   9.827   0.689   1.926 -0.1957 -0.2624 -0.1171
22535W        W40739   5.261  18.449   4.273  0.1697  0.1632  0.2527
22536W        W40740  12.643  13.361   2.369 -0.2750  0.2528  0.1257
22537W        W40741  10.511  15.810   1.334  0.0331 -0.2376 -0.0999
22538W        W40742   3.570   0.131  14.933  0.2011 -0.0807  0.1886
22539W        W40743   8.085  12.175  10.941  0.1358  0.0853 -0.2283
22540W        W40744   6.367  18.106   0.207  0.1224 -0.3264  0.0969
22541W        W40745   3.241  15.028   1.052  0.1419 -0.0559 -0.0826
22542W        W40746  10.636   6.459   0.252  0.2595  0.2206  0.0958
22543W        W40747  17.373   7.455   4.488  0.1347 -0.2990 -0.2129
22544W        W40748   6.295   5.687  11.211  0.0515  0.0168 -0.2044
22545W        W40749  12.584   2.982   2.525 -0.1610 -0.1947  0.0256
22546W        W40750   3.795  11.089  12.236 -0.0503 -0.0598  0.2737
22547W        W40751  15.371   3.232   2.030 -0.0565  0.2032 -0.4321
22548W        W40752   9.809  16.131   3.296  0.3332  0.0904 -0.0992
22549W        W40753   0.893   9.483   3.668  0.0781 -0.0821  0.0297
22550W        W40754   2.480   5.442  11.816 -0.0388  0.2322  0.0985
22551W        W40755  13.085  12.522   3.735 -0.1459  0.4449 -0.0380
22552W        W40756  13.707   4.136  11.929  0.2110 -0.0930  0.0584
22553W        W40757  10.043  12.329   0.748 -0.1776 -0.0019 -0.1246
22554W        W40758   1.937   2.877   3.557 -0.0529 -0.0709  0.5192
22555W        W40759   8.014   5.440  12.749  0.3719  0.0312 -0.0321
22556W        W40760   0.789   8.689   4.250 -0.0258 -0.0227  0.0654
22557W        W40761   4.308  10.861  12.283  0.0702 -0.1494  0.2797
22558W        W40762  16.755  18.195   4.737 -0.0390  0.0324  0.0047
22559W        W40763   4.865   2.414  11.879  0.1097  0.1860 -0.0372
22560W        W40764  17.624   6.192   2.021  0.0281  0.1553  0.1692
22561W        W40765   0.433   5.791   1.140 -0.0936  0.0497  0.4835
22562W        W40766   8.770   4.114   4.509  0.1202  0.1588  0.1120
22563W        W40767   6.934  11.746  11.831  0.0726 -0.1103 -0.1979
22564W        W40768   2.122  14.830  11.854 -0.0965  0.1240  0.0338
22565W        W40769   4.564  17.127   0.298 -0.0396  0.1572  0.2108
22566W        W40770   4.957   0.630   2.325 -0.3037  0.3155 -0.2402
22567W        W40771  11.939  13.968  11.495 -0.1650 -0.1028 -0.0327
22568W        W40772   5.543  14.223  12.256  0.1845 -0.1933 -0.1970
22569W        W40773  10.138   7.660   3.117  0.0750  0.2701 -0.0519
22570W        W40774   9.304   1.848   0.586 -0.1450 -0.3308  0.0030
22571W        W40775   0.007  12.196   0.734 -0.2614  0.0156  0.0909
22572W        W40776   1.731  11.679   0.024  0.0245 -0.2464  0.0695
22573W        W40777  10.186  11.235  12.464 -0.0393  0.0614  0.2395
22574W        W40778   3.822  13.531   2.902 -0.0279 -0.0825  0.3394
22575W        W40779  17.406   5.886  14.400  0.2675  0.1231  0.0690
22576W        W40780  18.595  18.419  10.435 -0.0005 -0.0352 -0.0513
22577W        W40781   4.165  11.811  10.889 -0.1750 -0.0674 -0.3516
22578W        W40782  16.289  12.226   2.883 -0.0707 -0.3128  0.2186
22579W        W40783   1.227   1.373  14.451  0.2458  0.0155  0.0595
22580W        W40784   3.002  17.278  11.304 -0.1743 -0.3181 -0.3060
22581W        W40785  17.747   7.153  14.035 -0.1639  0.0665 -0.1728
22582W        W40786   3.057   6.206  13.253  0.0681  0.4305 -0.0902
22583W        W40787   9.516   5.311  13.987 -0.0482  0.0041 -0.2068
22584W        W40788   3.653   4.643  12.461 -0.1421 -0.1420 -0.1654
22585W        W40789   8.914  11.503  13.934 -0.0635  0.1769  0.0510
22586W        W40790   6.772   5.891  14.664  0.1237  0.0131  0.3347
22587W        W40791  18.503   4.436  11.520 -0.0201  0.0350  0.1433
22588W        W40792   3.422  13.955  10.909 -0.2937  0.0389  0.0077
22589W        W40793   2.895   8.282   4.211  0.3231 -0.0781  0.0509
22590W        W40794  17.663  13.128   0.629 -0.0307 -0.4041  0.2024
22591W        W40795  14.223   7.025  14.770 -0.1277 -0.0336  0.1910
22592W        W40796  17.594  10.645  12.163 -0.1688  0.1883  0.1300
22593W        W40797   8.474   6.329   1.964 -0.0537  0.0819  0.0861
22594W        W40798  17.833   6.287   0.108  0.0327  0.0587 -0.1453
22595W        W40799  13.377  12.685   3.378  0.6478  0.3135  0.2441
22596W        W40800   7.046  10.654   0.339 -0.0721  0.0062  0.2476
22597W        W40801  14.550  18.821  11.243  0.0582 -0.0323  0.0540
22598W        W40802  16.396  15.827  14.842 -0.4897  0.2431  0.1589
22599W        W40803  10.392   4.926   3.302  0.0345 -0.1352 -0.0878
22600W        W40804   8.808   3.695   3.683  0.0714 -0.0387  0.1045
22601W        W40805   3.971  18.589  10.552 -0.1970  0.1362  0.2713
22602W        W40806   4.790  15.677   2.188 -0.2786 -0.0257  0.0269
22603W        W40807   1.666   2.136   0.388 -0.1157  0.0363 -0.3365
22604W        W40808   2.587  13.540   2.558  0.0308 -0.2888 -0.0226
22605W        W40809   8.760  15.906   0.399 -0.0446  0.0244 -0.0995
22606W        W40810   8.756  18.502  13.019 -0.2523  0.0382 -0.0128
22607W        W40811   9.541  13.722  12.656  0.2154 -0.0400  0.2692
22608W        W40812   8.168  15.565   1.888  0.0713 -0.0051  0.2605
22609W        W40813  17.017  18.267  13.175  0.1825 -0.0923  0.0110
22610W        W40814   9.423   5.930   9.911  0.4086  0.1965 -0.2780
22611W        W40815   6.329   1.681   0.742 -0.1329 -0.2389  0.5047
22612W        W40816  10.811   0.875   1.670  0.2159 -0.1677 -0.0784
22613W        W40817  12.992  12.551   0.088  0.1630 -0.1743 -0.1199
22614W        W40818   0.022   7.368   0.080  0.1399 -0.1659 -0.0173
22615W        W40819   0.453   4.221   3.868 -0.1710 -0.1098  0.0651
22616W        W40820   5.508  16.075   1.504  0.1447 -0.1288  0.0258
22617W        W40821  12.624  17.737  13.068  0.0873 -0.2206  0.2123
22618W        W40822  17.912   9.667  13.587 -0.2369 -0.0850 -0.1713
22619W        W40823   0.589  13.381   0.922  0.0239 -0.1427  0.1311
22620W        W40824   5.987   5.050   0.033 -0.1342 -0.1174  0.1521
22621W        W40825   4.769   8.538  11.280  0.0100 -0.3514  0.1236
22622W        W40826   4.847   0.333   3.347 -0.0433 -0.1012  0.1655
22623W        W40827  18.423  18.105  14.387  0.1677  0.3844  0.1066
22624W        W40828  14.617  10.107   1.630  0.1432  0.2326  0.0229
22625W        W40829   2.225  12.835  13.658  0.1341  0.1300 -0.1099
22626W        W40830  13.186   5.725   1.661  0.0680 -0.0870  0.0333
22627W        W40831  12.851  11.752   4.581 -0.0367 -0.2273  0.2017
22628W        W40832   7.883  11.140  10.751 -0.0883 -0.4065 -0.0331
22629W        W40833   5.937  12.124  14.702 -0.0235 -0.0860  0.3527
22630W        W40834  11.300   5.125  11.149 -0.0175 -0.2052 -0.0539
22631W        W40835   0.589   4.869  11.089 -0.2998 -0.0890  0.0797
22632W        W40836   6.464  13.147   3.422  0.1400 -0.0903 -0.0867
22633W        W40837   3.046   9.272  13.653 -0.4303  0.1249  0.1367
22634W        W40838   2.811   6.654  12.566 -0.1465  0.2007  0.0417
22635W        W40839   1.222  14.012  11.125 -0.0357  0.1079 -0.3220
22636W        W40840  17.210  12.505   3.326 -0.1588 -0.1100  0.0822
22637W        W40841   0.935  11.930  14.501  0.1795  0.0797  0.1318
22638W        W40842   6.726   9.379  13.170  0.2318  0.0896  0.4145
22639W        W40843   6.402  18.070   2.928  0.1642  0.6212  0.0923
22640W        W40844  12.044   7.198  10.689  0.0511  0.1037 -0.2162
22641W        W40845   3.551  13.181  13.796 -0.0772  0.3584  0.2265
22642W        W40846  14.326  12.224   0.276 -0.0558  0.1474 -0.0957
22643W        W40847   7.197   3.513  13.280 -0.0558  0.2505 -0.1964
22644W        W40848   7.234  11.435  12.041 -0.0662  0.0980 -0.2446
22645W        W40849  15.361   5.619   2.028  0.0031  0.0105 -0.0569
22646W        W40850  16.795   4.362   1.659 -0.0347  0.0565 -0.0352
22647W        W40851   0.959   1.905  13.367 -0.1034  0.0280  0.0518
22648W        W40852  14.534  16.449  11.215  0.2396 -0.1889  0.0228
22649W        W40853  14.359   1.364   3.571  0.4393  0.0204 -0.3865
22650W        W40854   1.320   1.996   9.714  0.1610  0.0013  0.1898
22651W        W40855  14.757   9.176   0.524  0.0936 -0.1621 -0.2338
22652W        W40856   0.495  15.643  11.756 -0.0059 -0.1868  0.3510
22653W        W40857  17.343  17.755  13.628  0.1288 -0.1834  0.2031
22654W        W40858   3.638  16.985   0.669  0.0958 -0.2874  0.0016
22655W        W40859   8.708  16.630  14.432  0.0746 -0.1431 -0.0147
22656W        W40860  18.624  18.924   4.137 -0.1992 -0.1820  0.1254
22657W        W40861  14.093   0.522  10.373 -0.1130  0.0942 -0.3224
22658W        W40862  16.584  18.305   1.965 -0.0629  0.0297 -0.0563
22659W        W40863   4.324   7.729   5.939  0.0464 -0.2995  0.0424
22660W        W40864  11.244  17.169  12.964  0.0202 -0.0370 -0.1545
22661W        W40865  11.640   0.749  13.008  0.3089  0.0025 -0.1093
22662W        W40866   1.278   5.782   0.523  0.1465 -0.0458  0.2272
22663W        W40867  10.957  15.130  12.380 -0.1931  0.0632 -0.1090
22664W        W40868  17.339  15.733   3.358 -0.0243  0.0243 -0.1806
22665W        W40869   7.696  13.781   3.165 -0.2784 -0.1743 -0.2107
22666W        W40870   0.455   8.293  13.577  0.0317  0.5552 -0.0945
22667W        W40871   1.792   6.015   4.445 -0.1662 -0.1087 -0.1839
22668W        W40872  10.109   4.634  10.692  0.0651 -0.3661 -0.1110
22669W        W40873  12.102   9.020   1.021 -0.3832  0.2388 -0.1640
22670W        W40874   6.664   6.145   0.461  0.1430 -0.2166 -0.1744
22671W        W40875  12.815   3.951  12.446  0.1689 -0.2543  0.0930
22672W        W40876   9.893  12.279   4.074 -0.0297  0.0112  0.3152
22673W        W40877  10.867  15.860   1.695  0.4227 -0.3252 -0.1309
22674W        W40878   2.606  11.370  11.520 -0.0075  0.2237 -0.0502
22675W        W40879   1.961  15.131  12.615 -0.0676  0.2061 -0.0789
22676W        W40880   1.590   0.362   2.051 -0.0529  0.1200  0.2475
22677W        W40881  14.959  13.854  10.514 -0.2239  0.2721  0.0714
22678W        W40882   4.395  18.244  13.363  0.1899  0.1355 -0.1806
22679W        W40883   3.441  17.051  12.380 -0.1304  0.1451  0.1721
22680W        W40884  16.537   8.596   2.259 -0.0179  0.1792  0.1341
22681W        W40885  16.538  15.937  14.302 -0.1688 -0.1985 -0.2026
22682W        W40886   9.146  14.455   4.259 -0.1990 -0.0669 -0.2398
22683W        W40887   9.558   3.655   0.856 -0.1936 -0.1440 -0.3524
22684W        W40888  14.007  14.960   4.747 -0.1882  0.0836  0.1026
22685W        W40889  12.521   9.113   1.447 -0.1174 -0.4831  0.1571
22686W        W40890   9.360   8.446   2.235 -0.0484  0.0704 -0.0605
22687W        W40891   2.471   5.264   0.881 -0.4426 -0.0254 -0.3345
22688W        W40892   7.713   7.527  14.481  0.0269 -0.0983 -0.0553
22689W        W40893   0.271  12.872   1.319  0.1456  0.0214 -0.1908
22690W        W40894   1.877   6.119  11.300 -0.1966 -0.0026  0.0225
22691W        W40895   1.992   9.891   3.644  0.2380 -0.1529 -0.1645
22692W        W40896   3.946  11.534  12.038 -0.1020  0.1917 -0.3403
22693W        W40897  17.912  12.290   1.807 -0.0588  0.1206  0.2084
22694W        W40898  11.155   4.851   2.061  0.6402 -0.1947 -0.0417
22695W        W40899  15.553   1.981  13.529 -0.3063  0.1407 -0.1527
22696W        W40900   0.175  16.218   3.773 -0.1229  0.1556 -0.0765
22697W        W40901  17.328   2.562  10.817 -0.0130 -0.1834  0.0159
22698W        W40902   8.330  17.387  10.901  0.0674  0.1812  0.2758
22699W        W40903  13.689  14.673   0.798 -0.1775 -0.0471 -0.0040
22700W        W40904   6.475  15.419  13.926 -0.2328  0.0501  0.0846
22701W        W40905   9.894   3.155   3.963 -0.0929 -0.0525 -0.0509
22702W        W40906  15.606   6.341  13.920 -0.1558  0.3477  0.0779
22703W        W40907  11.844   4.110  10.505 -0.2760  0.0704  0.0609
22704W        W40908  18.617   6.559   0.572  0.1850 -0.1468  0.0669
22705W        W40909   2.619   8.457   2.570 -0.1477  0.1853 -0.2028
22706W        W40910   5.353   7.640  14.166 -0.2272 -0.0630 -0.1144
22707W        W40911   4.964  18.321   2.731  0.0064  0.2439  0.0162
22708W        W40912  14.549   5.158   2.862  0.0810 -0.0196 -0.1217
22709W        W40913   6.890  16.965   0.516  0.2669 -0.0007  0.4666
22710W        W40914  17.182   2.370  14.614  0.2877  0.1005 -0.1482
22711W        W40915   3.853  11.197   0.062 -0.0056  0.2180 -0.0023
22712W        W40916   3.066   0.027   2.413 -0.3037 -0.0897 -0.0503
22713W        W40917   0.917   6.798   1.541 -0.1068 -0.0587 -0.1346
22714W        W40918   3.499  17.624   3.234 -0.1651 -0.2190  0.1145
22715W        W40919  11.911  11.080  13.482  0.0337 -0.2409 -0.1254
22716W        W40920   0.911  15.379  13.881 -0.2340  0.1295 -0.2989
22717W        W40921   1.182   4.179   2.215 -0.2075 -0.0262  0.0590
22718W        W40922  13.692   5.056  12.287  0.0296 -0.0284 -0.0594
22719W        W40923   0.177   0.674  10.594 -0.1584 -0.0251 -0.1035
22720W        W40924  10.919  11.737  14.439 -0.2569 -0.0058  0.0907
22721W        W40925  13.948   7.648  14.271  0.0061 -0.2920 -0.1608
22722W        W40926   6.171   4.727   2.179  0.0163  0.0687  0.4126
22723W        W40927  15.353   7.965  13.820  0.4707 -0.0799 -0.0811
22724W        W40928  16.857  17.271   0.215  0.0340 -0.1391  0.0062
22725W        W40929  11.705   0.511   3.182 -0.1551 -0.2006  0.0559
22726W        W40930   4.819  17.234  11.477  0.2455  0.3087 -0.3388
22727W        W40931   7.330  16.075  14.035 -0.0077  0.3100 -0.2649
22728W        W40932   1.276  15.491   3.966 -0.0181 -0.0540 -0.1173
22729W        W40933  15.617   7.653   1.236 -0.1645 -0.1474  0.1315
22730W        W40934   1.179  10.475  13.529 -0.0614 -0.1684  0.0546
22731W        W40935   2.110  14.514  11.365 -0.0245  0.2224 -0.0557
22732W        W40936  14.761   0.562  11.342 -0.2984  0.0776 -0.1923
22733W        W40937   9.931   8.504   2.380 -0.4820  0.1261  0.2554
22734W        W40938  13.440   2.516  14.869 -0.0428 -0.1692  0.2026
22735W        W40939  13.594  18.354   3.056 -0.0427  0.0003  0.0181
22736W        W40940   2.957  17.591  14.943 -0.0030  0.1017  0.2939
22737W        W40941   3.586  12.706  11.945  0.0293  0.3087 -0.1913
22738W        W40942  10.964   0.045  14.763  0.1515  0.0751  0.1271
22739W        W40943   2.648  17.924   0.781 -0.0646 -0.1995  0.0475
22740W        W40944   7.672   4.079  12.704 -0.3579 -0.1838  0.1689
22741W        W40945   3.887  15.058   4.729  0.1665  0.2745  0.0278
22742W        W40946  14.752   4.360  11.124 -0.0395  0.1637 -0.1073
22743W        W40947  16.598   9.022  13.831 -0.0296  0.2709 -0.2583
22744W        W40948  10.970   1.676  12.406 -0.2175  0.0028  0.1438
22745W        W40949   8.747   4.579  12.922  0.0367 -0.2407 -0.2516
22746W        W40950   6.711   7.496   3.662  0.0531  0.3111 -0.0625
22747W        W40951  14.306   4.287   2.441 -0.5147 -0.0306  0.1277
22748W        W40952   0.805   3.039  11.186 -0.0548  0.1418  0.1176
22749W        W40953  12.288  17.251  13.489  0.1027 -0.0097 -0.1344
22750W        W40954  15.563  18.473   3.438 -0.1571 -0.0837  0.1752
22751W        W40955  10.343  13.376  12.169 -0.2076  0.1005  0.0100
22752W        W40956   1.328   0.287   3.274 -0.2533 -0.0276  0.1575
22753W        W40957   2.862  14.722   1.926 -0.3621 -0.1866  0.1059
22754W        W40958   2.516  16.361   2.447  0.0127  0.2396  0.0770
22755W        W40959   5.644  15.142  11.864  0.1666  0.0817  0.0318
22756W        W40960  18.467   1.473  13.423  0.1279 -0.3577 -0.0077
22757W        W40961  18.188  16.533  12.476  0.0627  0.1424 -0.3104
22758W        W40962   8.391   1.606  12.338  0.0531 -0.0629  0.2225
22759W        W40963   0.450   8.172  13.078 -0.0204  0.0955 -0.0791
22760W        W40964  17.215   1.684   2.818  0.0748  0.2781  0.0986
22761W        W40965  16.285   7.192   5.622 -0.1247 -0.0068  0.2305
22762W        W40966  10.905   2.069  13.349 -0.0430 -0.1070  0.1407
22763W        W40967   7.595  11.984   0.230 -0.1747  0.2631 -0.2864
22764W        W40968   9.669   6.747   1.095  0.0642  0.2582  0.0959
22765W        W40969   3.498  17.147   1.502 -0.2173 -0.0675 -0.2326
22766W        W40970   8.857   1.068   1.179 -0.1675  0.1841 -0.0775
22767W        W40971  16.787   6.641  11.614 -0.0154  0.0362 -0.1688
22768W        W40972  10.724  13.619   0.664 -0.0468 -0.0180  0.0533
22769W        W40973  15.185   9.521   4.132 -0.2573 -0.0616 -0.0093
22770W        W40974   8.186   7.832   1.850 -0.0811  0.2480 -0.1439
22771W        W40975  13.945   2.941  13.492  0.1793 -0.0064 -0.2536
22772W        W40976  16.865   6.927  12.482  0.1616  0.0353 -0.0469
22773W        W40977   0.853  18.451   2.407 -0.0729 -0.2827  0.0559
22774W        W40978  15.957  14.615  10.394 -0.1647  0.2649  0.0347
22775W        W40979  17.520  11.485  12.343 -0.0124  0.3089  0.5271
22776W        W40980  16.068  17.157   2.765  0.2115  0.2372 -0.1597
22777W        W40981  10.544   7.385   1.554  0.1374 -0.1816 -0.0903
22778W        W40982  14.454   2.904  12.060 -0.1003 -0.2528  0.1389
22779W        W40983   9.441   9.054  12.414 -0.0521  0.0070  0.1812
22780W        W40984  14.747  12.625  13.600  0.0604  0.1096  0.2414
22781W        W40985  10.274   5.804  12.487  0.2171  0.1001  0.2097
22782W        W40986  17.720  17.881  10.726  0.1615  0.2885  0.0102
22783W        W40987  14.381  17.341  10.764 -0.0348  0.0555 -0.2215
22784W        W40988   0.182  18.163   0.795 -0.0077  0.0137  0.1020
22785W        W40989  14.553  13.947  13.466 -0.1779 -0.0115 -0.0268
22786W        W40990  17.603   0.192  10.253  0.1080  0.0476 -0.0288
22787W        W40991   9.922  16.130  14.336 -0.1718  0.0814 -0.1066
22788W        W40992   1.810   1.254   2.006 -0.0854  0.1883  0.4688
22789W        W40993  10.661  10.863  12.969 -0.3769  0.0813  0.2521
22790W        W40994   5.730  18.216   4.556  0.4739  0.0689 -0.1790
22791W        W40995  15.922  10.741   1.179 -0.4954  0.1301  0.1401
22792W        W40996  15.011   0.320  14.175  0.0990 -0.4044  0.2788
22793W        W40997   5.489   0.011   1.538  0.0311 -0.1498 -0.1655
22794W        W40998   1.265  11.078  11.978 -0.1379  0.0927 -0.0906
22795W        W40999   9.107   1.948  14.372  0.2456 -0.4330 -0.1225
22796W        W41000   2.291   9.740  14.066  0.0616 -0.1105 -0.5456
22797W        W41001   0.326   4.937  14.220 -0.0823 -0.3355  0.2464
22798W        W41002   5.669  15.154   4.153  0.1112 -0.0912 -0.2667
22799W        W41003  16.945   6.777   0.296 -0.0406  0.1435 -0.2523
22800W        W41004  14.335   7.507  14.761 -0.0013 -0.0407 -0.1300
22801W        W41005  13.861   5.958   0.001 -0.3838  0.1988  0.2275
22802W        W41006  11.428  13.111  14.156  0.1282  0.0949  0.1648
22803W        W41007   5.016  10.817   4.564  0.1596  0.0002 -0.1336
22804W        W41008   4.248   6.341   2.218 -0.2579 -0.2333  0.3559
22805W        W41009   5.698   4.802   1.047 -0.1075 -0.1037  0.3987
22806W        W41010  12.272  17.565   2.304  0.0344  0.0930  0.1481
22807W        W41011  11.618   3.766   4.422  0.2252 -0.0967 -0.0482
22808W        W41012  16.466  10.514  13.488 -0.1074  0.0368 -0.2499
22809W        W41013   7.217   9.662   1.775  0.0646  0.2214  0.4574
22810W        W41014  18.190   2.795  11.915  0.0275  0.1061  0.1341
22811W        W41015   9.802  13.520  14.363 -0.0218 -0.0693  0.0923
22812W        W41016  17.918  14.083  10.747  0.1413  0.3006 -0.2648
22813W        W41017   6.237  11.782  12.621  0.1092 -0.1165  0.4303
22814W        W41018   0.720   0.221  14.098 -0.1752 -0.0483 -0.3484
22815W        W41019  18.446  14.036   1.642 -0.1075  0.2939  0.2256
22816W        W41020   7.274   4.600  14.108 -0.4211 -0.2007  0.3739
22817W        W41021   7.803   6.753   1.037 -0.1763  0.0697  0.0426
22818W        W41022  14.685   6.860  12.365  0.1290  0.2437  0.4612
22819W        W41023   6.350   2.710   3.363 -0.0163 -0.2340 -0.1239
22820W        W41024  14.140  15.587   2.524  0.0097  0.1462  0.0739
22821W        W41025   7.921   9.691   1.416 -0.2278 -0.0255 -0.0041
22822W        W41026   0.588  10.053  15.019  0.1334  0.0796  0.2289
22823W        W41027   2.864  11.595   3.474  0.2159  0.4254  0.1294
22824W        W41028   4.213  11.878   1.569  0.1664 -0.0495  0.0776
22825W        W41029  17.684  10.503  10.721 -0.1317  0.3956  0.0385
22826W        W41030  14.055  17.202  11.998  0.0051  0.1649 -0.0436
22827W        W41031  11.291   0.069  13.801 -0.4106 -0.1861 -0.4215
22828W        W41032  12.542  16.574  11.966 -0.1138  0.0431  0.1744
22829W        W41033  18.204   6.041  11.291  0.2182 -0.1159  0.0288
22830W        W41034  17.053  18.133  14.910  0.0419 -0.1323 -0.2217
22831W        W41035  12.551  15.617   3.797 -0.1019 -0.1137  0.2477
22832W        W41036  11.576   8.478  11.645  0.1574  0.1077 -0.0041
22833W        W41037  10.676   3.333  14.612 -0.3288  0.0513 -0.0619
22834W        W41038  11.895   9.198   3.338  0.4006  0.0025  0.0297
22835W        W41039  16.571  13.494   2.282 -0.3536 -0.3326 -0.1854
22836W        W41040  13.671  12.825  10.768 -0.2016  0.0218 -0.0585
22837W        W41041   8.760   4.002  12.094  0.3142  0.1072  0.2941
22838W        W41042  14.354   9.345  10.120  0.2071  0.0037  0.0681
22839W        W41043   2.746  17.877   2.836  0.1171  0.0928  0.0412
22840W        W41044   4.017   6.435   4.666  0.1352 -0.2026 -0.1197
22841W        W41045  12.538  12.494   2.223  0.1092  0.2288  0.0530
22842W        W41046   2.356   4.087   4.377  0.1381  0.1997 -0.3027
22843W        W41047   1.518  16.617   0.563  0.2690 -0.4227  0.0139
22844W        W41048   6.219  12.420   1.074 -0.2088 -0.0645 -0.0495
22845W        W41049   6.067  15.697  14.124 -0.0278  0.2431 -0.2559
22846W        W41050   9.113  11.295   1.982 -0.2279 -0.0293  0.1063
22847W        W41051  14.425  12.240  12.776 -0.0916  0.0743 -0.2689
22848W        W41052  17.816  12.893  11.408 -0.0608 -0.3153  0.1201
22849W        W41053   1.107  12.416   4.261 -0.1475  0.0006 -0.1271
22850W        W41054   6.854   4.910  13.981  0.3505  0.2226  0.0378
22851W        W41055   9.177  10.624   2.600 -0.2049 -0.0515  0.1697
22852W        W41056   6.439   7.982  14.948  0.0297 -0.0649 -0.2530
22853W        W41057   4.736  13.704   1.919 -0.0539  0.2222  0.2068
22854W        W41058  18.280   4.630  11.971 -0.1026  0.2396 -0.0515
22855W        W41059  15.638  17.816   0.282  0.3203  0.0355 -0.1697
22856W        W41060   7.587   5.415   4.341  0.0910  0.0147 -0.1297
22857W        W41061   9.431   0.058  12.787 -0.2362  0.2440 -0.3692
22858W        W41062   5.928  12.434  14.218  0.0167  0.1950 -0.0953
22859W        W41063  13.793  14.440  14.948  0.1247 -0.4622 -0.0943
22860W        W41064  12.297   3.557  14.519 -0.2937  0.0643  0.1378
22861W        W41065  10.824   1.196  12.382 -0.2605  0.1153  0.3695
22862W        W41066   7.681   9.326   0.175  0.0620  0.2146  0.1488
22863W        W41067   0.243  18.077  13.269  0.1607  0.2328  0.1217
22864W        W41068   1.089   7.138   4.276 -0.2003  0.0562 -0.1467
22865W        W41069  16.538  16.351  14.924 -0.1439  0.2280  0.3003
22866W        W41070   5.468   6.677   0.687 -0.1190 -0.0743  0.0485
22867W        W41071   0.048  13.910  13.572  0.0941  0.4645  0.2589
22868W        W41072  16.754  12.691  14.021 -0.0673 -0.1126 -0.1657
22869W        W41073  15.513   2.411  12.525  0.0150  0.1986  0.1788
22870W        W41074  14.451   8.475  14.292  0.0494  0.3623  0.3363
22871W        W41075   6.001  14.658  14.659 -0.1777 -0.0061  0.1478
22872W        W41076   0.935  12.854   1.885 -0.0623  0.0036 -0.0637
22873W        W41077  13.260  12.993   1.666  0.0465  0.1912 -0.0146
22874W        W41078   0.219  11.941  12.569 -0.1282 -0.1728  0.0797
22875W        W41079  11.958  13.669  11.075  0.1120  0.0819  0.0624
22876W        W41080  10.669   8.327   3.364  0.1789  0.0766 -0.0528
22877W        W41081  13.800   6.710  12.419 -0.1099  0.0044  0.1923
22878W        W41082  10.962   9.555   2.969 -0.0114 -0.0627  0.2786
22879W        W41083  14.477   6.804  14.299 -0.2478  0.2722  0.1003
22880W        W41084   6.062  13.219   2.497  0.0069 -0.1515 -0.2624
22881W        W41085   4.277   5.515  13.128  0.2034 -0.2667 -0.0026
22882W        W41086   3.071  18.222  14.985  0.1696 -0.0634  0.1767
22883W        W41087  16.964  13.783  11.284  0.3337 -0.0708 -0.0594
22884W        W41088  15.035  17.321  12.267 -0.1139  0.1547  0.1055
22885W        W41089   2.789  16.437   1.926  0.0425  0.1830  0.0026
22886W        W41090  15.810  10.137   3.759  0.2877 -0.5173 -0.3907
22887W        W41091   3.891   1.174   0.948 -0.0818 -0.1104 -0.0122
22888W        W41092  17.012  11.507   3.014  0.0525  0.2385 -0.3013
22889W        W41093  10.950  12.993  14.917  0.0586 -0.1275 -0.4914
22890W        W41094  13.862  17.419   1.340 -0.1779  0.2181  0.3783
22891W        W41095   1.173   0.393  14.045 -0.0139 -0.2370 -0.2452
22892W        W41096   0.734  17.093   1.969 -0.0156 -0.0452  0.1509
22893W        W41097   5.693   9.938   1.250  0.2437 -0.0547 -0.0049
22894W        W41098   9.199   1.453  14.463  0.2803  0.2628  0.0268
22895W        W41099  15.038   4.592  11.479  0.0631 -0.3517 -0.1658
22896W        W41100   6.165  18.222   2.032  0.0466  0.0239  0.1981
22897W        W41101   2.746   9.065   3.735 -0.3209  0.2211  0.0816
22898W        W41102   6.304  15.039   2.809  0.2129  0.2276  0.2393
22899W        W41103  11.439  14.244   3.242 -0.1763  0.0693  0.0923
22900W        W41104  17.804  16.298  14.736  0.0331 -0.4572  0.3616
22901W        W41105   2.924  18.611  13.663 -0.1051 -0.1262 -0.1670
22902W        W41106   1.890   0.847  10.702  0.2100  0.0775 -0.0991
22903W        W41107   1.453  10.987  13.649  0.0999 -0.0596  0.1717
22904W        W41108   8.128   0.879   1.656 -0.3912 -0.0363 -0.1689
22905W        W41109  17.479  15.535  10.685  0.1425 -0.3652  0.1199
22906W        W41110  14.962  18.932   1.649  0.0251 -0.1879  0.1468
22907W        W41111   4.279   6.207  14.145  0.3173  0.2775 -0.1932
22908W        W41112  16.575  18.936   2.282 -0.1020  0.1022 -0.1078
22909W        W41113  15.327   5.203  10.403 -0.0157 -0.3049  0.0208
22910W        W41114  17.298   7.086   0.493 -0.2024 -0.2053  0.1222
22911W        W41115   2.543   1.280   0.620 -0.0551  0.0031  0.1285
22912W        W41116  11.162   9.789   4.741  0.2414  0.0272 -0.0132
22913W        W41117  15.656  15.771   3.633  0.1877  0.0166 -0.1166
22914W        W41118   6.605   4.569   3.199  0.0152 -0.2364 -0.1569
22915W        W41119   0.637   7.681  12.513  0.0210 -0.1256 -0.0151
22916W        W41120  15.895  14.500   1.229 -0.0620  0.0962  0.0388
22917W        W41121  13.663  18.879  10.985  0.1050  0.0259 -0.3616
22918W        W41122   2.638   2.651  11.564 -0.1866  0.2634 -0.0772
22919W        W41123  10.862   8.877   1.668 -0.1691 -0.3289  0.0052
22920W        W41124   7.658   4.068   1.382 -0.0472  0.1952  0.0748
22921W        W41125  17.199  16.969  14.268 -0.1024 -0.0265  0.1722
22922W        W41126   0.904   4.149  11.408  0.2884  0.2352  0.1049
22923W        W41127  11.878  13.056   3.008  0.1733  0.1423 -0.0279
22924W        W41128   6.344   2.498   3.863 -0.1958  0.0495  0.1272
22925W        W41129   4.500  14.835   3.088 -0.1311  0.0970  0.2043
22926W        W41130  13.708  17.244  13.177 -0.1299  0.3075 -0.2680
22927W        W41131  10.304   5.365  14.764  0.2100  0.1629 -0.0479
22928W        W41132  12.283   3.098   9.824  0.0868 -0.2269 -0.3501
22929W        W41133  12.189  11.910  11.212  0.0850 -0.3554  0.0411
22930W        W41134   5.585   5.249   1.240  0.3010  0.1332  0.0847
22931W        W41135  11.315  10.779   2.945 -0.1913 -0.2345 -0.1443
22932W        W41136   7.674  11.520  13.033  0.0598 -0.3993  0.1507
22933W        W41137   6.950  10.972  13.993 -0.0116  0.2030 -0.0216
22934W        W41138   8.311  16.728   5.212  0.0134 -0.1704  0.1831
22935W        W41139  17.468  14.331   2.559  0.2023  0.0862  0.1743
22936W        W41140  18.235   2.838  13.053 -0.2440 -0.0569  0.0923
22937W        W41141  16.414  14.810  10.085 -0.3439  0.0983  0.0386
22938W        W41142   4.666  13.203   3.580 -0.0785  0.3193  0.0715
22939W        W41143   8.786  15.386  11.832  0.3686  0.2172  0.1588
22940W        W41144   6.977  15.592   2.659  0.0935  0.0226  0.1971
22941W        W41145   4.704  14.157  11.528 -0.0309 -0.0008  0.2182
22942W        W41146  12.481  11.145  10.644 -0.1455  0.0555 -0.1869
22943W        W41147   8.244  12.449   0.029 -0.1657 -0.2460  0.0134
22944W        W41148  11.875   4.156   1.387 -0.2288  0.0139  0.3938
22945W        W41149   7.472   7.287  13.612  0.1906 -0.0936 -0.2821
22946W        W41150   4.994   3.899   1.690  0.1822 -0.1094  0.0448
22947W        W41151  12.960  17.393   1.007 -0.0159  0.1800  0.1593
22948W        W41152   1.151   5.538   2.416  0.0842 -0.0813 -0.0802
22949W        W41153  13.001   9.789   4.788 -0.0746 -0.0404 -0.0246
22950W        W41154  16.712  10.355  11.562  0.0336 -0.2035  0.1000
22951W        W41155  13.195  13.092  11.229 -0.3039  0.3456  0.0768
22952W        W41156  10.378  10.083  13.263  0.0422 -0.2398 -0.1018
22953W        W41157  16.650   2.486   3.204  0.0899  0.1222  0.2344
22954W        W41158   1.752  12.085   1.962 -0.2278  0.2507  0.2542
22955W        W41159  15.522   3.201   1.023 -0.1061 -0.2459 -0.3354
22956W        W41160   3.461  12.673  13.224 -0.1918  0.1198  0.2212
22957W        W41161   5.758   1.344  14.037  0.1404  0.2293 -0.0720
22958W        W41162  15.003   0.152  13.707 -0.0058  0.0719 -0.1641
22959W        W41163  14.306  10.462   4.823 -0.0809  0.1354  0.0218
22960W        W41164  11.184  10.283   4.712 -0.2101 -0.0461 -0.1523
22961W        W41165   1.586   2.320   5.052  0.2182 -0.0886 -0.4801
22962W        W41166  12.974  13.889   1.600 -0.1148 -0.2621 -0.2591
22963W        W41167   8.637   5.153   1.564 -0.1142 -0.0173 -0.2080
22964W        W41168  17.193  12.948  13.865  0.0757  0.1955 -0.1248
22965W        W41169   0.652  12.854  11.889 -0.0081 -0.0083 -0.0041
22966W        W41170  18.481   3.682  10.241  0.3008  0.4158 -0.0055
22967W        W41171  17.967  11.082   4.351  0.0686  0.3854 -0.1710
22968W        W41172   6.459  16.133   1.870 -0.0767 -0.0474  0.2584
22969W        W41173   1.300   3.391  11.477 -0.1211 -0.0988  0.0970
22970W        W41174  13.386   2.884   3.977 -0.1999  0.0103  0.3850
22971W        W41175   0.923   3.614   0.250 -0.4288  0.3356 -0.0586
22972W        W41176   7.020   1.396  14.914 -0.1453 -0.2676  0.1330
22973W        W41177  13.530   1.679  15.028 -0.3360  0.4791 -0.0214
22974W        W41178   5.262   0.256   4.684  0.0051 -0.1618 -0.1486
22975W        W41179  10.154   4.353   1.337  0.4013 -0.1477  0.0872
22976W        W41180  17.718   2.296   1.238 -0.3594 -0.2868  0.2682
22977W        W41181   1.908   9.004  11.805 -0.2321 -0.1079 -0.0099
22978W        W41182  13.102  18.614  11.247 -0.1180  0.2116  0.0626
22979W        W41183  17.967  12.158  14.035  0.0673  0.0077 -0.1360
22980W        W41184   2.741   1.565   0.089 -0.1381 -0.0882 -0.2093
22981W        W41185  10.293   3.728   0.862 -0.2727 -0.0227 -0.0965
22982W        W41186   9.662   9.263   0.436 -0.0073  0.1901 -0.1869
22983W        W41187   9.829  17.367  14.626  0.1117 -0.1418 -0.0427
22984W        W41188   6.328   5.590  10.535 -0.0413 -0.1628 -0.0303
22985W        W41189  16.951   2.228  10.667 -0.0740  0.1624  0.0941
22986W        W41190  15.196   5.549   3.933  0.0227  0.1046 -0.0686
22987W        W41191   4.146  13.486   3.385  0.1685  0.1784 -0.0847
22988W        W41192  18.783   8.657   0.545 -0.2211  0.0155 -0.2394
22989W        W41193   2.446   8.560  14.729  0.0481 -0.2363  0.0822
22990W        W41194  15.705   4.194  12.644  0.1945 -0.4822 -0.2668
22991W        W41195  12.168  14.608  14.976  0.1436 -0.1070 -0.2204
22992W        W41196   7.602   3.535   4.233  0.1716  0.1354 -0.0980
22993W        W41197   5.992  16.727  13.380 -0.1013 -0.1889  0.0618
22994W        W41198   0.188   5.312  14.657 -0.1183 -0.0146  0.0741
22995W        W41199   1.445  17.507   2.054  0.0463  0.0385  0.2124
22996W        W41200   9.495   8.162   2.647 -0.1282  0.1703  0.1874
22997W        W41201  11.831   7.157  13.946 -0.2580 -0.1779  0.3417
22998W        W41202  18.904   7.877   0.078 -0.0101 -0.0291  0.1806
22999W        W41203  12.507  16.614   1.177 -0.1356  0.0381 -0.0539
23000W        W41204  17.765   6.842   1.233 -0.0800  0.0682  0.1242
23001W        W41205  17.676  14.994   3.851  0.0615 -0.0348  0.0101
23002W        W41206  11.762  17.373   2.300  0.0463  0.2291  0.1894
23003W        W41207   9.899   0.922  12.410 -0.0414 -0.1422 -0.0128
23004W        W41208  11.665  14.527   0.400  0.0364 -0.1736  0.3257
23005W        W41209   2.697  14.257  13.571 -0.0368  0.1878 -0.0383
23006W        W41210  16.272  13.115   4.673 -0.0880 -0.3767 -0.3543
23007W        W41211  13.167   0.102  10.364  0.0841  0.0120 -0.4449
23008W        W41212   4.311   3.407   0.876 -0.1442 -0.1369 -0.3190
23009W        W41213   0.954   5.671   4.204  0.0297 -0.1917 -0.2065
23010W        W41214  11.042   2.935  11.749 -0.1987 -0.1635  0.3659
23011W        W41215  14.175  10.946   1.298  0.1092 -0.0410  0.1418
23012W        W41216   8.958   1.300  14.925  0.1284  0.2312  0.3602
23013W        W41217  12.824  13.053  13.538  0.0206 -0.0930  0.3528
23014W        W41218  17.196  16.160   9.854  0.0714  0.1117 -0.2291
23015W        W41219  14.292  14.186  11.116 -0.0779 -0.0184 -0.4418
23016W        W41220   3.310   0.605  14.075 -0.1264 -0.1303  0.2441
23017W        W41221   9.837  12.409  15.020 -0.2361  0.2345  0.1052
23018W        W41222   5.340  16.649  11.697  0.1511  0.3438 -0.0440
23019W        W41223   1.620   3.281  12.809 -0.0674 -0.1363  0.0707
23020W        W41224   4.601   1.071   1.467  0.0255 -0.1244 -0.0250
23021W        W41225  13.957   0.541  10.910  0.2814  0.2326 -0.0667
23022W        W41226  12.243   2.025  10.426  0.1335 -0.0599 -0.0660
23023W        W41227   2.052   2.331   2.876 -0.1293  0.2305  0.1437
23024W        W41228  15.451   7.159  11.787  0.4027  0.0135  0.0806
23025W        W41229   9.197   5.441   3.727  0.0975  0.0499  0.2665
23026W        W41230   9.662  10.255  13.668 -0.1295 -0.4552 -0.0308
23027W        W41231   3.385  17.826   1.738  0.0195 -0.2087 -0.0128
23028W        W41232   0.605   3.468   1.807  0.2623 -0.1374 -0.1182
23029W        W41233  15.150  12.449   2.367  0.0299  0.0812  0.0439
23030W        W41234  11.350   8.355   0.135 -0.1031  0.1700 -0.0625
23031W        W41235  10.693   9.534  11.825 -0.4438  0.0248 -0.1142
23032W        W41236  14.948   2.397   1.949  0.1496 -0.0958  0.1388
23033W        W41237  15.337  16.137   2.325  0.0569 -0.2334  0.2053
23034W        W41238  14.501  14.859   0.386 -0.1736  0.1676  0.2732
23035W        W41239   8.277  14.741   3.680  0.2733  0.0693  0.2707
23036W        W41240   6.921   5.535  14.223  0.2790 -0.1609 -0.3902
23037W        W41241  13.548  10.899   0.540 -0.1738  0.4087  0.1800
23038W        W41242  14.454  15.889  12.956 -0.1266 -0.0279  0.1765
23039W        W41243   6.899   6.057  13.274 -0.0977  0.3781 -0.0050
23040W        W41244   6.965  17.305   5.330  0.1426  0.1221  0.3425
23041W        W41245   5.506   7.231   1.252  0.1561 -0.0579  0.2219
23042W        W41246   7.829   8.599   0.232  0.2661  0.0040 -0.0896
23043W        W41247   2.636  13.896   4.450 -0.1920 -0.0251  0.2245
23044W        W41248   3.577  18.948   2.571 -0.1483 -0.0138 -0.1936
23045W        W41249   8.229   4.862  14.492  0.0062  0.0681  0.3035
23046W        W41250  18.053  13.728   0.994  0.0132 -0.3538  0.2092
23047W        W41251   3.270   0.855   4.320  0.3067  0.0844 -0.1984
23048W        W41252  12.414  12.677   0.003  0.4482  0.2650  0.1500
23049W        W41253   4.369   1.914   1.439 -0.1000 -0.1500  0.2158
23050W        W41254   6.130  15.713   2.560 -0.0308 -0.1543  0.3437
23051W        W41255  15.177   3.608   1.709  0.3513  0.1531 -0.0905
23052W        W41256   1.451   1.140   5.260  0.0525  0.2111  0.1660
23053W        W41257   1.853   4.081  11.249 -0.0710 -0.1960 -0.1877
23054W        W41258   4.822   8.542   1.341 -0.3379 -0.1115 -0.3213
23055W        W41259  12.591   7.863   0.770  0.0032 -0.0222 -0.1947
23056W        W41260  14.188   8.137  10.859  0.0843  0.2018  0.1624
23057W        W41261   2.660  15.257  13.756  0.1621 -0.3711  0.3883
23058W        W41262  15.787  15.372   0.223  0.1755  0.1524 -0.1233
23059W        W41263  14.041  12.489   2.043  0.0439  0.2856  0.0793
23060W        W41264  17.237  12.261   3.917 -0.0592  0.2472  0.3336
23061W        W41265  11.111   1.407  12.823  0.1464 -0.1011  0.0330
23062W        W41266  12.383   2.278   0.540  0.0344 -0.3185  0.0435
23063W        W41267   1.194   1.616  13.656 -0.1373 -0.2946  0.2662
23064W        W41268  13.872   0.650  12.600  0.0500  0.0708  0.0128
23065W        W41269   2.951   4.644  14.633 -0.1186 -0.0347  0.0644
23066W        W41270  10.602   7.818   3.296  0.0209  0.0392 -0.0657
23067W        W41271  11.144  13.653  12.643 -0.0009 -0.0672  0.2062
23068W        W41272  10.508   0.263   4.246  0.1444 -0.1631 -0.2752
23069W        W41273  11.043   3.900   3.016  0.1284  0.1700  0.4338
23070W        W41274  14.461  18.306  11.365  0.1717 -0.2383  0.0541
23071W        W41275  10.783   5.186  14.374  0.0740  0.0545 -0.2986
23072W        W41276  16.911   0.018   3.571 -0.0680 -0.2113 -0.2501
23073W        W41277   7.851   8.327  12.170  0.1594  0.0953 -0.3817
23074W        W41278  10.605  14.444   4.384 -0.2666 -0.1821 -0.1811
23075W        W41279   7.291   8.129   0.783  0.3321  0.1712 -0.2420
23076W        W41280   1.068   8.617  14.962  0.0861 -0.2403 -0.0550
23077W        W41281  17.733  15.747  12.782 -0.2737  0.0460 -0.1425
23078W        W41282  18.912  18.545   4.501  0.0344  0.0823 -0.1641
23079W        W41283  17.755  16.761  12.269 -0.2269 -0.0550 -0.2750
23080W        W41284  12.732  15.675   1.276 -0.0342  0.0332  0.0031
23081W        W41285   8.343  15.817   4.218  0.2071  0.0911 -0.1385
23082W        W41286  18.543  10.616   3.739  0.1754  0.1469 -0.4634
23083W        W41287   8.595   5.170  14.219  0.2039  0.0057 -0.1190
23084W        W41288  13.634  12.310   3.639 -0.1282 -0.0850  0.2290
23085W        W41289   1.399  16.539   2.261  0.0856 -0.5191  0.1812
23086W        W41290   3.960  16.421   1.276  0.0713 -0.0482  0.1814
23087W        W41291  11.670  12.033  13.035  0.1028 -0.2564 -0.2395
23088W        W41292   1.612   2.690   0.905  0.2559  0.2440 -0.1991
23089W        W41293   3.647   0.182   3.458 -0.3233  0.1055 -0.0548
23090W        W41294  18.693   9.380   2.855 -0.1091  0.3093 -0.1089
23091W        W41295   4.380  17.018   5.472 -0.1762 -0.0436  0.2052
23092W        W41296   2.045  15.860   0.465 -0.0316  0.2755 -0.1219
23093W        W41297   0.623  11.611  11.088  0.0085 -0.0829 -0.1038
23094W        W41298  16.472  17.800  13.408  0.1168  0.2304  0.0595
23095W        W41299  12.754   8.159   3.903  0.0306 -0.0952  0.0327
23096W        W41300   2.092  13.879   4.151 -0.1123 -0.0508 -0.0014
23097W        W41301   1.967   8.138   0.808 -0.1232 -0.0390  0.1640
23098W        W41302  16.741   4.624   0.541 -0.0419  0.0183  0.1295
23099W        W41303   0.665  14.841  14.521 -0.0441 -0.1567  0.3891
23100W        W41304  14.536  16.493  13.891 -0.2420  0.2202  0.1988
23101W        W41305   4.354   7.147  12.356  0.0846 -0.2612 -0.1206
23102W        W41306  10.291   1.169  12.186 -0.0393 -0.2508 -0.0026
23103W        W41307  12.059  17.660  13.176  0.1357  0.1088 -0.4092
23104W        W41308  12.589   9.997   1.746 -0.1326  0.1680 -0.1391
23105W        W41309   1.508  10.807  14.884  0.0608  0.0262 -0.2452
23106W        W41310   3.096  11.158   3.707 -0.1293 -0.1004  0.1047
23107W        W41311   8.830  11.057  13.681  0.2752 -0.3648  0.0525
23108W        W41312  18.320   2.339  12.278 -0.0272  0.1112 -0.2735
23109W        W41313   7.006   9.969  13.655 -0.0187  0.4742 -0.1354
23110W        W41314   2.334   1.029  13.162 -0.1952 -0.0471 -0.1864
23111W        W41315  10.463   5.613   4.968 -0.0995 -0.0791  0.0460
23112W        W41316  12.511   6.020  11.577  0.1020 -0.0036 -0.0776
23113W        W41317   2.757  12.877   3.370 -0.1460  0.1756 -0.0162
23114W        W41318   4.802  16.625   0.296 -0.0005  0.1444  0.0920
23115W        W41319  14.553   4.960  14.760  0.0422  0.2711 -0.1071
23116W        W41320   9.318   1.784   1.813 -0.3870 -0.0456 -0.0980
23117W        W41321   0.793   5.098   1.689 -0.1098  0.2178 -0.0647
23118W        W41322  10.165  17.893  12.382 -0.1504 -0.0982 -0.0791
23119W        W41323  13.976   8.774  14.985 -0.0803 -0.1558 -0.2442
23120W        W41324   7.479  14.514   4.602  0.2322  0.0269 -0.1285
23121W        W41325  10.129   5.998  10.343 -0.0360  0.1222  0.2065
23122W        W41326  12.133  12.761   4.093  0.1178  0.0877  0.0618
23123W        W41327  11.175  18.200   4.118 -0.1220 -0.1241  0.0078
23124W        W41328   0.590   7.692  13.059  0.0953 -0.4075  0.0864
23125W        W41329   8.035   4.291   3.687 -0.2368 -0.0680 -0.0546
23126W        W41330  17.687  13.716  13.671  0.2261 -0.0603 -0.2008
23127W        W41331  10.536  14.575  14.895  0.0246 -0.2833 -0.3636
23128W        W41332  10.637   0.363  14.855 -0.3064  0.0431 -0.1783
23129W        W41333   6.838   7.709   4.309 -0.0514 -0.0979  0.0325
23130W        W41334   3.010   8.364   2.241  0.2513  0.0377 -0.0569
23131W        W41335  15.790  16.164  11.640 -0.3084 -0.3918  0.0702
23132W        W41336   4.007   3.477   1.599  0.2695  0.1409 -0.0065
23133W        W41337   4.188  16.184  10.870  0.0278  0.0114  0.2394
23134W        W41338  16.414  13.409   2.867  0.1339 -0.1553  0.2118
23135W        W41339   4.023   1.115  11.137 -0.1034  0.0130 -0.0626
23136W        W41340  17.833  14.572   0.279  0.2656  0.0384  0.1635
23137W        W41341   1.719  14.521   2.443  0.2294 -0.1324  0.0310
23138W        W41342   6.649   6.474   2.474  0.1068 -0.0351 -0.0402
23139W        W41343   2.248  14.861  10.945  0.1358 -0.0728  0.1529
23140W        W41344  11.426  10.440   0.667 -0.1276 -0.0921 -0.2046
23141W        W41345   1.514  17.827   0.572 -0.0002  0.0140  0.2000
23142W        W41346  11.042   1.797   4.240  0.1344 -0.0237 -0.0872
23143W        W41347   5.434   2.245  13.530 -0.2022 -0.2557 -0.0759
23144W        W41348   0.200  16.004   1.001 -0.0833  0.0748 -0.2560
23145W        W41349   4.208  11.053   5.035 -0.0312 -0.1352 -0.0299
23146W        W41350   1.445   1.417   4.041  0.2103 -0.0886  0.5268
23147W        W41351  10.749  10.146   3.495 -0.3433 -0.0199 -0.1986
23148W        W41352  16.994   6.273  13.194 -0.2397  0.0402 -0.1264
23149W        W41353   8.509   7.519  11.321  0.0182 -0.1978 -0.0441
23150W        W41354   1.135  12.457  11.316  0.5157  0.0987  0.1371
23151W        W41355   7.106  16.378  11.713 -0.1936 -0.2560 -0.1919
23152W        W41356  13.432  18.951  14.646 -0.3998 -0.0935 -0.0768
23153W        W41357  11.477  16.010  13.581  0.2143  0.1635 -0.2582
23154W        W41358   3.576  18.366   1.059 -0.1815  0.0997 -0.0150
23155W        W41359   1.618   9.617  12.736  0.2090  0.2925 -0.3460
23156W        W41360   6.536   8.611   4.028  0.1382  0.0406 -0.1227
23157W        W41361  15.758  12.065   2.754  0.0922  0.1160  0.1347
23158W        W41362   5.876   3.291   2.594  0.1331 -0.2481 -0.3616
23159W        W41363   4.478  16.678  14.046  0.0258  0.0893 -0.1275
23160W        W41364   6.040   1.591   1.587 -0.2266  0.2300  0.1810
23161W        W41365  12.665  15.061  13.407 -0.0945  0.2707  0.2170
23162W        W41366  17.949   9.829   1.254 -0.1322  0.4051 -0.2505
23163W        W41367  10.695   2.474   3.281  0.0875  0.0499 -0.1577
23164W        W41368   7.540   1.533  11.976 -0.1321 -0.1769 -0.1133
23165W        W41369  12.300   3.135   4.003 -0.2213  0.1805  0.1801
23166W        W41370   3.766   2.238   3.409 -0.0547  0.2221  0.3592
23167W        W41371   2.356  17.628   9.942  0.2865 -0.3214 -0.0345
23168W        W41372   4.481   2.395  14.276  0.1922  0.1100  0.0490
23169W        W41373   9.447   0.259  10.891  0.0400  0.3001  0.0661
23170W        W41374  11.404   9.310  10.103  0.0511 -0.0693 -0.1519
23171W        W41375  18.323   2.300  11.774 -0.0703 -0.0060 -0.0631
23172W        W41376  10.671   8.692   3.004 -0.2843 -0.1440 -0.0618
23173W        W41377  10.305  16.724  13.288 -0.3570 -0.3953  0.1365
23174W        W41378   0.903  18.739  12.080  0.0335 -0.0009 -0.1006
23175W        W41379   6.751   5.527   0.819  0.3117  0.1301  0.0207
23176W        W41380  17.305   8.731   0.639  0.0409 -0.1169 -0.2539
23177W        W41381  13.685  15.976  11.521 -0.1206 -0.1640 -0.0958
23178W        W41382   0.602   1.572   3.909  0.0294  0.2201  0.2584
23179W        W41383   7.840   3.472   3.753 -0.0512 -0.0329  0.0028
23180W        W41384  17.988   9.369   2.292  0.0768  0.1958 -0.0728
23181W        W41385  12.435   5.432  10.542  0.1960  0.2422  0.0700
23182W        W41386  11.104   4.573  12.019  0.0406 -0.3374 -0.0167
23183W        W41387  13.756   4.746   0.290 -0.1521  0.0874  0.0949
23184W        W41388   2.835   6.832   1.004  0.2410  0.1399 -0.0766
23185W        W41389   6.722   9.418   2.364  0.0341 -0.0277  0.0206
23186W        W41390   7.589  14.357  11.435 -0.1685 -0.0377  0.0629
23187W        W41391  16.632  12.252  12.896  0.1239 -0.1225  0.1052
23188W        W41392   7.930   1.309  12.400  0.2335 -0.0434 -0.0371
23189W        W41393   6.715  12.508   1.294  0.2424 -0.0522  0.2667
23190W        W41394  16.088  12.099  11.394  0.0629  0.0967  0.3828
23191W        W41395   0.699   2.865   3.835 -0.1959  0.2081 -0.0173
23192W        W41396   8.087   8.439   1.455 -0.0293 -0.4237 -0.3482
23193W        W41397  15.325  14.079  12.390  0.0637  0.0132 -0.4344
23194W        W41398  11.760  16.738  11.608  0.2232  0.2163  0.4473
23195W        W41399   6.670  18.105  11.882  0.2389  0.1669  0.0462
23196W        W41400  16.335  15.291   1.779  0.4017 -0.0141  0.0503
23197W        W41401   3.417  18.746  13.606 -0.1888  0.0946  0.0646
23198W        W41402   8.140   4.096  14.778  0.3267 -0.1710  0.0730
23199W        W41403  18.564  10.076  14.251  0.3314 -0.1401 -0.0793
23200W        W41404  17.087  18.177   1.249 -0.0445 -0.0326 -0.1070
23201W        W41405   2.962  11.488  11.882 -0.1445  0.0797 -0.0277
23202W        W41406  13.892  16.091  12.001 -0.1522 -0.5083 -0.2529
23203W        W41407  14.647  16.530  10.609 -0.0670 -0.0124 -0.0129
23204W        W41408  16.494   5.687   2.622 -0.0950  0.1021 -0.0306
23205W        W41409  11.782   3.530  14.532  0.1282 -0.1064 -0.1947
23206W        W41410  10.466  12.264  14.687 -0.1735  0.0843 -0.1784
23207W        W41411  14.858   7.198  10.669 -0.1060  0.3232  0.2115
23208W        W41412  10.626  17.914   1.837 -0.0213 -0.0019  0.1938
23209W        W41413  10.366   9.586   0.499  0.0703 -0.1026  0.0073
23210W        W41414  16.629   4.941   3.639 -0.0127 -0.0567  0.1568
23211W        W41415   5.879  12.444   0.076 -0.4202 -0.0747 -0.2025
23212W        W41416   7.678  15.500   1.880  0.2174 -0.1344  0.0249
23213W        W41417  15.882   4.394   0.719 -0.0368 -0.1123  0.1540
23214W        W41418  15.166  17.040   2.842 -0.2007 -0.1409 -0.1404
23215W        W41419   2.757  13.066  14.896 -0.2138  0.0700 -0.1590
23216W        W41420   8.014  15.951  12.033 -0.1084  0.0225  0.0955
23217W        W41421  15.117   0.598  12.901  0.0287 -0.1411  0.2065
23218W        W41422  18.654   1.584   2.637 -0.0113 -0.2454  0.0532
23219W        W41423  10.701   6.623  12.136  0.0145  0.2201  0.1808
23220W        W41424  10.474  17.436   0.649 -0.2233 -0.1178 -0.1125
23221W        W41425  10.550  17.984  14.961  0.0735 -0.0951 -0.0764
23222W        W41426   0.148   6.155   3.219 -0.2969  0.1600  0.0330
23223W        W41427   7.837   0.554   0.911  0.0552 -0.0179 -0.0115
23224W        W41428  15.860  15.209   4.036  0.0551  0.1147  0.0931
23225W        W41429  17.121  13.614   3.482 -0.0606 -0.0890  0.2367
23226W        W41430  10.615   8.259   5.153  0.2815 -0.0201 -0.0394
23227W        W41431   5.540  11.565   2.942 -0.1130 -0.0136  0.1324
23228W        W41432  13.490   8.274   0.708  0.0401  0.1660  0.0255
23229W        W41433  13.109   1.081  14.686  0.1399 -0.0221 -0.2060
23230W        W41434   6.828  16.271   0.236  0.0628  0.1986  0.1490
23231W        W41435  16.398  11.817   2.590  0.1734 -0.1812  0.1164
23232W        W41436   6.303   2.047   1.613 -0.0660 -0.1270  0.0138
23233W        W41437  12.667   9.197  10.341 -0.0468  0.1366 -0.2075
23234W        W41438   8.979  14.312   0.695 -0.1229 -0.1960 -0.2020
23235W        W41439   8.534  18.115   2.958  0.1861 -0.0870  0.3455
23236W        W41440  14.337  13.246  11.345 -0.0322 -0.1570 -0.2268
23237W        W41441   2.119  11.450   5.435 -0.3361  0.1725  0.3274
23238W        W41442   9.713   3.166   4.939  0.1894  0.0546 -0.2121
23239W        W41443   2.169   6.353  13.285 -0.1710 -0.1614 -0.2186
23240W        W41444  13.417   1.722  13.354 -0.1003 -0.0094  0.1065
23241W        W41445   8.740   5.318  10.756  0.1137 -0.3205 -0.2188
23242W        W41446   5.373   2.524  11.889  0.0729  0.3079  0.0955
23243W        W41447   9.505  12.366  12.857 -0.2277 -0.3151  0.0828
23244W        W41448  11.072  18.803   0.191  0.0298 -0.1501 -0.0030
23245W        W41449  13.582   7.811   1.935 -0.0298  0.0830  0.3077
23246W        W41450  11.712  14.844  12.660 -0.2687  0.0633 -0.1406
23247W        W41451   4.901  16.362   2.523  0.1476 -0.0089 -0.1909
23248W        W41452   9.893   2.628   2.154 -0.0622  0.0678 -0.0086
23249W        W41453   1.340   1.907   2.320 -0.3745 -0.4090  0.0650
23250W        W41454  14.808  11.893  11.017  0.0225  0.1434  0.3437
23251W        W41455   0.302   3.145   5.552  0.0885  0.1495 -0.3446
23252W        W41456  17.416   7.882  14.988  0.1196 -0.2654 -0.0365
23253W        W41457  12.344  10.281   0.805 -0.0958  0.2903  0.2110
23254W        W41458  10.337   6.576  13.435  0.2718 -0.1401 -0.1622
23255W        W41459  12.363  13.751  11.342 -0.0611  0.2822  0.1749
23256W        W41460   0.939   7.896  10.782 -0.4270 -0.0420  0.0764
23257W        W41461   2.924  14.783   1.371 -0.2517  0.0912  0.0971
23258W        W41462  17.582  13.646   0.444 -0.1861  0.4157  0.1596
23259W        W41463   5.356  13.886   4.057 -0.2879  0.0952  0.0076
23260W        W41464   4.747   9.564  14.312  0.3984 -0.4575  0.3376
23261W        W41465   7.075  10.451   3.390 -0.4824 -0.1204 -0.3265
23262W        W41466  11.819  15.547   0.369 -0.1611 -0.2190  0.2290
23263W        W41467   7.788   4.600  11.879  0.5511 -0.2203  0.0256
23264W        W41468  14.858   8.885   0.163  0.2129 -0.0680  0.0502
23265W        W41469   8.030  14.751  13.998 -0.1006 -0.1707 -0.0439
23266W        W41470   2.768   2.591   5.282  0.0633 -0.1656  0.1799
23267W        W41471   9.682   3.783   2.693 -0.2547 -0.2201  0.0935
23268W        W41472   3.969  14.881   0.086  0.1959 -0.1471  0.0700
23269W        W41473   0.523  18.453   3.204  0.2040  0.2784  0.2081
23270W        W41474  11.449   5.161  12.667  0.3505  0.1587 -0.0558
23271W        W41475   2.610  18.236  12.122 -0.1776 -0.2492  0.2164
23272W        W41476  16.289   5.834  13.051  0.0611 -0.0080  0.3853
23273W        W41477  12.233   1.096   9.111  0.0205 -0.0329  0.1417
23274W        W41478  11.242  13.777   2.000  0.0511 -0.1452  0.1852
23275W        W41479   0.831  18.570  14.628  0.3819 -0.0410 -0.1429
23276W        W41480  17.771   3.158   1.436 -0.1794  0.2086  0.1474
23277W        W41481   8.492  14.693  14.952 -0.2968  0.0178 -0.1067
23278W        W41482  11.351   1.607  11.076  0.1256 -0.1401 -0.1174
23279W        W41483   6.296   0.038   2.130 -0.3739  0.1639 -0.4107
23280W        W41484  12.855   1.454   1.601 -0.0547  0.5041  0.0180
23281W        W41485  15.532   4.862  11.709 -0.0056 -0.0298  0.1079
23282W        W41486   9.401  12.978   0.505 -0.0223  0.0035  0.2461
23283W        W41487   1.900   3.632   2.686 -0.1100 -0.0670 -0.0150
23284W        W41488   9.372  12.566   0.118  0.2384 -0.2018 -0.0396
23285W        W41489   8.810   6.756  14.997 -0.0048 -0.2830  0.1398
23286W        W41490  12.075   8.055  13.560  0.1528  0.2419  0.2242
23287W        W41491   3.261   5.115   4.073  0.3507  0.1457  0.0089
23288W        W41492  15.974   7.556  13.245 -0.0008  0.1123  0.0789
23289W        W41493   1.827  14.185   0.683  0.1068  0.0838 -0.4464
23290W        W41494  12.445  16.285   3.717  0.0540 -0.3388  0.2234
23291W        W41495  14.536   0.430  14.634 -0.1238  0.1642 -0.0759
23292W        W41496   5.809  10.521   3.675  0.0446  0.1175 -0.3358
23293W        W41497   3.161   6.834   4.403  0.0358 -0.0798 -0.1002
23294W        W41498  17.961   1.520  12.900  0.5649 -0.2721 -0.0489
23295W        W41499  17.536   8.417   1.716 -0.1237  0.0308 -0.0098
23296W        W41500   2.526   4.470   3.987  0.0882 -0.3204 -0.1509
23297W        W41501   1.695  12.619   3.649  0.2044 -0.2531  0.0746
23298W        W41502  13.718   2.427  11.388  0.2174 -0.0252  0.2822
23299W        W41503  15.646   1.822  12.404 -0.0776 -0.0490  0.0881
23300W        W41504  14.099   7.583   1.927  0.2207 -0.2360  0.1238
23301W        W41505  16.692   0.981  13.494 -0.4161  0.0285  0.0010
23302W        W41506   1.392   4.187  11.184  0.2514 -0.3537  0.1074
23303W        W41507   0.112   9.378   3.728  0.1384  0.2921 -0.2633
23304W        W41508  10.762   5.449  12.945 -0.0234 -0.0727  0.2180
23305W        W41509  12.354   6.917   5.049  0.4528  0.1561 -0.1816
23306W        W41510  11.639  12.857   1.985 -0.2996  0.2000  0.2140
23307W        W41511  14.991  11.866   5.994 -0.3518 -0.2599  0.0759
23308W        W41512   7.815   5.968   3.075  0.2635 -0.0773  0.0524
23309W        W41513   1.567  16.404   1.027  0.2707 -0.0355 -0.1305
23310W        W41514   0.011  16.316  14.502  0.0297 -0.0611 -0.0446
23311W        W41515  13.665   8.300   0.093 -0.1077 -0.2881  0.1219
23312W        W41516  12.244  12.954   2.206  0.1176  0.0598 -0.1011
23313W        W41517  18.781  16.187   2.016  0.0376 -0.0498 -0.1182
23314W        W41518   0.620  15.710  13.558  0.1805  0.1579 -0.2259
23315W        W41519   6.216   0.837  11.050  0.3013 -0.2936  0.2742
23316W        W41520   2.142  13.655   0.342 -0.3584  0.0018  0.0700
23317W        W41521   2.428   8.538  12.368 -0.3743  0.2740 -0.1859
23318W        W41522  17.727   1.902  14.626  0.2653 -0.1227  0.1033
23319W        W41523   7.180  11.106   2.585  0.2467 -0.0970 -0.0570
23320W        W41524   8.959   8.723   2.437  0.3277 -0.1066  0.1468
23321W        W41525   0.213   7.205   1.761  0.1144 -0.1265  0.0991
23322W        W41526   2.951  11.436  11.196 -0.0725  0.1497 -0.3593
23323W        W41527  16.397  13.355  13.642 -0.1181 -0.1653  0.0491
23324W        W41528  13.455  17.190   9.933 -0.2345 -0.0129 -0.2729
23325W        W41529  10.949  17.547  11.097  0.3056  0.1685 -0.2502
23326W        W41530  10.778  18.801   2.520 -0.1754  0.1879  0.0189
23327W        W41531  17.494   7.931   4.303 -0.0116 -0.0594 -0.1288
23328W        W41532  13.833   7.854   5.348  0.3958  0.1260 -0.0178
23329W        W41533   7.054   9.501   0.852  0.2086 -0.0514  0.0206
23330W        W41534  14.496   5.657  14.300  0.2307  0.1863 -0.1366
23331W        W41535  13.022  16.560   2.320 -0.1027 -0.3195 -0.1736
23332W        W41536  14.066  15.612   3.587  0.2289  0.2397 -0.4194
23333W        W41537  15.414  18.142   1.220 -0.0841 -0.1968  0.2398
23334W        W41538   5.727   4.998  10.944  0.1920 -0.1250  0.0757
23335W        W41539   0.462  16.828  10.723 -0.1689  0.0209  0.1828
23336W        W41540  14.764   5.896   9.475  0.0139  0.1583 -0.0008
23337W        W41541   7.964  13.610   1.420  0.0455  0.1390 -0.1926
23338W        W41542   1.033   7.760   1.845 -0.0036 -0.0695 -0.2301
23339W        W41543   9.480  15.916  12.771 -0.0984  0.0414 -0.1629
23340W        W41544  14.421   2.580   0.208  0.1425 -0.0770 -0.1780
23341W        W41545   6.447   4.138  12.401 -0.0558  0.0235  0.1541
23342W        W41546   6.677   2.392   5.735  0.0314  0.0209  0.0156
23343W        W41547   3.437   9.602  13.780  0.1340  0.0502  0.0037
23344W        W41548   9.099  16.307   1.590 -0.1152 -0.0572  0.0166
23345W        W41549  14.359   0.354   3.560 -0.0926  0.1810 -0.2720
23346W        W41550  10.585   4.065   4.616 -0.0964  0.0939  0.0340
23347W        W41551  11.285  13.188  12.597 -0.1497  0.1238 -0.2509
23348W        W41552   2.374  10.846   3.523 -0.1796 -0.0715 -0.1107
23349W        W41553  16.965  13.940  13.464  0.0409  0.2016  0.3353
23350W        W41554  10.171  15.831   3.467  0.0767  0.2099 -0.0339
23351W        W41555  11.956  11.324   4.137  0.2690 -0.1804 -0.0370
23352W        W41556   4.116  14.029  14.115 -0.1383 -0.4064  0.0914
23353W        W41557   0.863  16.076   2.987 -0.1748 -0.0362  0.0666
23354W        W41558  14.115   4.858   2.112 -0.0769 -0.1537 -0.1914
23355W        W41559   5.074   9.872  11.162 -0.0687 -0.2927  0.0365
23356W        W41560  15.819   9.630   0.363  0.1158 -0.2543  0.1850
23357W        W41561  13.703  12.870  11.284  0.1076 -0.0358  0.0986
23358W        W41562  18.483   8.344   1.838 -0.1861  0.2379  0.2002
23359W        W41563   0.564   7.426   0.114  0.0084  0.2111 -0.1137
23360W        W41564  14.229  16.628  12.042  0.0818  0.0248  0.3526
23361W        W41565  18.371   2.400   2.394  0.1032 -0.1858 -0.1365
23362W        W41566   5.749   1.942   3.356  0.3534  0.0189  0.3374
23363W        W41567   8.996  15.311   3.603  0.0507 -0.0347 -0.4355
23364W        W41568  16.267  16.099   1.165 -0.1029 -0.1036  0.3044
23365W        W41569   5.725  12.967   2.740 -0.0378  0.2261  0.3575
23366W        W41570   4.116   1.407   3.749  0.1652  0.2579 -0.1163
23367W        W41571  14.489   3.844  12.188 -0.0712 -0.0033 -0.2474
23368W        W41572  16.668  17.399  13.126 -0.2211 -0.0498 -0.2217
23369W        W41573  12.905   0.337   0.298 -0.0095  0.0074 -0.1470
23370W        W41574  16.918  10.375  12.848  0.3308  0.1069  0.0244
23371W        W41575   4.263  17.292  13.606  0.0435  0.0806  0.0035
23372W        W41576  16.030  15.249  13.641  0.3544 -0.2540 -0.0655
23373W        W41577   2.741  18.934  12.368  0.1145 -0.0386  0.0593
23374W        W41578  14.219  11.552   3.127 -0.1146 -0.0572 -0.1247
23375W        W41579  12.572  14.789   0.192  0.0853  0.0666  0.1441
23376W        W41580  10.786  14.648  14.224  0.1188  0.0474  0.2214
23377W        W41581  14.876   3.008   2.048 -0.0781  0.0773  0.0499
23378W        W41582   1.712   9.623   5.315 -0.3119 -0.1536 -0.0014
23379W        W41583  11.611  11.943   1.546 -0.0996  0.1766 -0.0410
23380W        W41584  15.938  17.710  13.505  0.1236  0.1608  0.1677
23381W        W41585   3.734  10.749  13.922  0.0993 -0.0613 -0.0171
23382W        W41586  13.940  11.612   0.699  0.2304  0.1764 -0.0288
23383W        W41587   8.392   2.383   0.861  0.1236 -0.0525  0.1646
23384W        W41588   0.255   3.069   4.114 -0.1867 -0.1035 -0.1192
23385W        W41589   5.142   6.211   0.566  0.1580  0.2965 -0.1941
23386W        W41590  16.548  12.467  11.934  0.2484 -0.3719  0.1289
23387W        W41591  14.417   1.461  12.189  0.2665 -0.2836 -0.1695
23388W        W41592  13.222  17.227  13.239 -0.0676 -0.2191  0.1476
23389W        W41593  10.641   3.539  12.100  0.1801  0.1249  0.2737
23390W        W41594   7.850  13.549  10.864  0.0850 -0.1452  0.2270
23391W        W41595  15.128  10.765  13.804 -0.0951 -0.0246 -0.0733
23392W        W41596   0.627   8.265   2.577 -0.1388 -0.1978 -0.1367
23393W        W41597  16.032  15.831  14.362  0.0654  0.0992 -0.1957
23394W        W41598  13.532   4.497  12.224  0.2229  0.1214  0.3216
23395W        W41599   0.244  14.665  14.877  0.0001  0.2113  0.0083
23396W        W41600   0.027  11.201   0.064  0.0203  0.1167  0.2246
23397W        W41601   8.251   1.978  13.701 -0.1650  0.2291 -0.2595
23398W        W41602   0.424   2.788   0.120  0.1380 -0.2776 -0.1366
23399W        W41603  11.478   1.211  14.411 -0.1714  0.0438  0.1024
23400W        W41604   6.738  18.501  11.394  0.3512 -0.1175  0.1624
23401W        W41605   3.164  14.891  11.872  0.0160 -0.2231  0.2916
23402W        W41606   6.761   3.554   2.239 -0.0759  0.1337 -0.0778
23403W        W41607   9.511   2.512  11.121  0.0343 -0.0115 -0.0267
23404W        W41608   0.619  11.987   1.976  0.2497  0.1418 -0.3790
23405W        W41609   2.625   4.093   3.639 -0.0429 -0.0872 -0.2530
23406W        W41610   2.252   6.219  14.297 -0.0854 -0.0048 -0.0006
23407W        W41611   6.384   6.689  13.518 -0.1796 -0.0455  0.1112
23408W        W41612  16.427  13.220   4.210 -0.3834  0.2003 -0.0925
23409W        W41613  11.083  16.011  11.490 -0.3445  0.0676 -0.0783
23410W        W41614  11.151  11.440  10.953 -0.0753 -0.3038 -0.1567
23411W        W41615  17.289  14.443   3.122 -0.0480  0.1274  0.5358
23412W        W41616   3.680   2.779   3.524  0.1466 -0.4520  0.1251
23413W        W41617  17.460   8.274  14.651 -0.2013 -0.0448 -0.2395
23414W        W41618   1.754  13.459   0.119  0.1188 -0.4205 -0.0040
23415W        W41619  15.650   5.264   1.819  0.3449  0.1559 -0.0767
23416W        W41620   9.282   5.813  10.371 -0.3659 -0.0753  0.0593
23417W        W41621  13.828  18.589   4.077  0.2320  0.0565  0.1298
23418W        W41622   3.087  11.560   2.792  0.0293  0.0787 -0.0882
23419W        W41623  12.785  13.938  10.281  0.0771 -0.2237 -0.2376
23420W        W41624   3.781  16.520   2.832  0.0387 -0.2619  0.3071
23421W        W41625   0.455  15.424  12.689 -0.0089  0.0359 -0.0213
23422W        W41626  10.385  11.815  14.930  0.0356  0.1503 -0.0324
23423W        W41627  17.437   0.005  14.064  0.1728  0.2532 -0.2374
23424W        W41628   0.691  14.505  13.878  0.0267  0.2848  0.0619
23425W        W41629   2.427  14.678   3.858  0.1863  0.1649  0.1423
23426W        W41630   7.632   0.437   4.957  0.0256  0.1036 -0.0803
23427W        W41631   5.812  15.653  12.774  0.1725 -0.0731  0.1043
23428W        W41632   8.354  12.662  12.912 -0.0986  0.1819 -0.1085
23429W        W41633  10.275   2.330   2.357  0.0517 -0.0178 -0.1708
23430W        W41634   3.677  10.746   0.542  0.0158  0.1503  0.0967
23431W        W41635  13.040   1.395  10.171 -0.0854  0.0573 -0.3283
23432W        W41636  15.755   9.204  12.163  0.1350  0.2535  0.2911
23433W        W41637   1.326  11.585   0.357 -0.0882  0.2058 -0.0656
23434W        W41638  12.026   3.892  14.807  0.0007  0.3692 -0.0388
23435W        W41639   9.279   8.667  14.188 -0.0265  0.2275  0.0762
23436W        W41640   4.580  17.810  13.606 -0.1564 -0.0260  0.0917
23437W        W41641  15.188  12.117   0.637  0.1256  0.1684  0.2232
23438W        W41642   3.086   7.554   1.577  0.1262  0.1959  0.0795
23439W        W41643   9.187  12.212   5.094  0.0758 -0.1587  0.0965
23440W        W41644   5.833  12.661   1.715  0.0247 -0.3793 -0.1635
23441W        W41645   0.657  18.312  11.025 -0.0699  0.0923  0.0513
23442W        W41646  17.816  17.568  13.815  0.0706  0.1784 -0.3542
23443W        W41647  12.172   6.658  10.728 -0.1084 -0.0938  0.1382
23444W        W41648  13.099   7.851   2.205  0.2019 -0.3055 -0.2743
23445W        W41649   2.506  11.107   2.063  0.2511  0.1217 -0.0982
23446W        W41650   1.088   1.410   0.008 -0.0021  0.0479 -0.0614
23447W        W41651  16.446  14.503   3.591  0.0650 -0.0299 -0.1034
23448W        W41652   9.088   6.328   3.862 -0.0657 -0.0589  0.1045
23449W        W41653   6.547   8.987  10.805  0.0536 -0.0893  0.0874
23450W        W41654  11.697   1.130  10.783 -0.1079  0.0128  0.1816
23451W        W41655   4.852  11.233   4.141  0.0362  0.0318  0.3949
23452W        W41656   8.696   8.873   2.017 -0.0546  0.1549  0.0666
23453W        W41657   0.293  14.030  14.594  0.0814  0.1080  0.0023
23454W        W41658   1.197   2.450  10.620 -0.0117  0.1615 -0.1861
23455W        W41659  18.353  16.393  14.565 -0.1970 -0.0702 -0.1414
23456W        W41660   5.361  12.072  10.942  0.2800  0.0191 -0.0791
23457W        W41661   0.518  10.425   4.345  0.0016  0.2042  0.0518
23458W        W41662  18.504   1.615   4.118  0.0971 -0.0834  0.1016
23459W        W41663  18.610   4.611   1.904  0.0966 -0.1238 -0.2361
23460W        W41664  18.719  10.702   1.166 -0.0716  0.2525 -0.0080
23461W        W41665   2.522   2.585  12.154 -0.2195 -0.2004  0.0856
23462W        W41666   9.810   1.237   4.110 -0.0567  0.3323 -0.1020
23463W        W41667  10.441  10.734  12.476 -0.4560  0.0461 -0.0882
23464W        W41668   9.796  11.718  11.398 -0.1617  0.0099 -0.2151
23465W        W41669  16.329   4.292  11.282  0.0140 -0.2384 -0.2254
23466W        W41670  16.145  15.399   4.828  0.4350 -0.1148  0.1228
23467W        W41671  16.485   4.349   2.589  0.0034  0.0705  0.2622
23468W        W41672  16.336   2.544   3.681  0.0164 -0.0658 -0.2757
23469W        W41673   7.776   6.786  13.237  0.2164 -0.2931  0.1115
23470W        W41674   8.585   7.504  11.815 -0.2743  0.3854  0.0188
23471W        W41675  18.115   4.500  12.710  0.2246 -0.1043 -0.0950
23472W        W41676  10.865   5.127  11.408 -0.1573  0.0398 -0.1011
23473W        W41677   1.694  16.685   4.109  0.0137  0.0666 -0.1804
23474W        W41678  15.589   4.382   0.224 -0.0346 -0.5603  0.0820
23475W        W41679   2.228   0.909  14.863 -0.0324 -0.0543 -0.4701
23476W        W41680  17.970  13.032   2.814  0.0792 -0.2308  0.0066
23477W        W41681  10.729  12.307  14.266 -0.3011  0.2797 -0.2710
23478W        W41682   3.479  17.718   0.244  0.2005 -0.2336  0.1373
23479W        W41683   5.612   6.296   2.593 -0.0935 -0.1426  0.1248
23480W        W41684   5.113  15.110  14.354  0.0640  0.0999  0.0198
23481W        W41685  16.370  18.671  13.045  0.0167 -0.0415 -0.2101
23482W        W41686  17.964  12.746  11.963  0.2493  0.0802  0.2430
23483W        W41687   1.452   3.539  13.719 -0.1391 -0.0078 -0.1597
23484W        W41688   7.049   3.289  14.067 -0.0920  0.0024 -0.0461
23485W        W41689   5.668   6.235  10.770 -0.1345 -0.0942  0.0163
23486W        W41690   9.990   8.496  11.635 -0.3826 -0.0300  0.0394
23487W        W41691   3.295   0.325  11.406  0.4984 -0.1930  0.0183
23488W        W41692  10.474   2.270  13.228  0.0593 -0.1002  0.1900
23489W        W41693  11.880   6.472   2.828  0.1551  0.3664  0.1561
23490W        W41694   5.916   6.958   3.378 -0.1394  0.0681 -0.3586
23491W        W41695  13.714   9.474  11.323  0.1006 -0.3391 -0.2267
23492W        W41696  16.007  11.680   1.083  0.1246  0.0421  0.0860
23493W        W41697  10.452  11.316   0.674  0.1153  0.1460 -0.0580
23494W        W41698  16.466  11.631   1.253 -0.2059  0.0623 -0.0098
23495W        W41699   7.437   4.358  11.620 -0.0531  0.1623  0.0695
23496W        W41700   3.995   3.793  14.832  0.0038  0.0090  0.2048
23497W        W41701   6.974  18.016   1.369  0.1927 -0.1006  0.0262
23498W        W41702   6.892   9.836  12.679 -0.0900 -0.1381 -0.1108
23499W        W41703   4.411   5.479   1.660  0.1364  0.2035  0.1869
23500W        W41704  15.483  15.419  12.738  0.1912  0.0338 -0.3443
23501W        W41705  17.985  10.514  13.260  0.0823  0.2506 -0.2419
23502W        W41706  11.537  16.054  14.712 -0.2398  0.4421  0.2601
23503W        W41707   7.488  13.281  14.658  0.0899 -0.0030 -0.0415
23504W        W41708   0.151  18.464   0.327 -0.2220 -0.2187 -0.3936
23505W        W41709  13.378  18.791  12.773  0.0118  0.2009  0.0038
23506W        W41710  11.174  13.359   9.829 -0.0223 -0.1325 -0.4492
23507W        W41711  13.937   5.909   4.512 -0.2675 -0.1290  0.3085
23508W        W41712   0.595  17.636  10.820 -0.0164  0.0123 -0.0747
23509W        W41713   7.362   7.689  13.334 -0.5039 -0.2148 -0.1311
23510W        W41714  16.622   7.771   5.151 -0.0958 -0.2471 -0.1859
23511W        W41715   2.327   5.899   4.564  0.0450 -0.0232  0.4508
23512W        W41716  17.232  13.036   4.686  0.0458  0.0264  0.0389
23513W        W41717  15.022   1.952   3.504  0.2353 -0.1976 -0.3678
23514W        W41718  18.532  16.678  10.237 -0.2170  0.1925 -0.1334
23515W        W41719   4.719  15.183  13.611  0.1783 -0.2503  0.0190
23516W        W41720   4.055  18.398   1.181  0.0211  0.0441  0.0485
23517W        W41721   4.751  10.740  11.405  0.1112 -0.2071  0.0454
23518W        W41722   5.309  16.304  11.241  0.2113  0.0309  0.1829
23519W        W41723   8.224   8.157  12.582  0.1279  0.0308  0.1016
23520W        W41724  16.023   1.800  10.523  0.2099  0.2980 -0.3045
23521W        W41725   4.260   6.368  12.359 -0.0687 -0.1043 -0.0423
23522W        W41726   7.261   1.082   0.223  0.1467 -0.0494 -0.1006
23523W        W41727   3.185   6.737   5.408 -0.1779 -0.3285  0.3047
23524W        W41728   9.914   3.474   1.156  0.0426  0.1554  0.2097
23525W        W41729   1.520   4.490  12.190 -0.0647  0.1043  0.1023
23526W        W41730  16.755   0.827  12.462 -0.0281  0.2974  0.0878
23527W        W41731  15.341   7.083  12.259 -0.3726 -0.2115  0.0652
23528W        W41732  13.797  16.115   3.807  0.0269  0.1229 -0.3464
23529W        W41733   8.509   5.222  11.814 -0.0525 -0.0300 -0.1015
23530W        W41734  13.657  18.843  10.484  0.1714  0.1595 -0.1839
23531W        W41735  18.816   6.179   2.159 -0.1042  0.0709  0.1482
23532W        W41736   5.529  14.258  12.768  0.1973  0.1443 -0.3114
23533W        W41737  15.334   6.547   0.883 -0.0017  0.0990 -0.1567
23534W        W41738  12.987  11.048   0.330  0.0038 -0.0722  0.0669
23535W        W41739  12.948   2.721   2.717  0.1911 -0.0231  0.4100
23536W        W41740   3.337   8.520   2.612 -0.2127  0.1022 -0.3122
23537W        W41741   6.206   5.342   3.395  0.0313  0.3718  0.0969
23538W        W41742  14.870   6.292  14.605 -0.0625 -0.0366 -0.0300
23539W        W41743   9.548   1.640   3.058 -0.1858  0.1413 -0.2729
23540W        W41744   9.820  14.801  13.624  0.0168 -0.1196 -0.0468
23541W        W41745   0.058   5.378   1.005  0.1415  0.0437  0.1916
23542W        W41746  15.958  11.385   1.518 -0.0383 -0.3259 -0.1294
23543W        W41747   2.174  12.253   4.747  0.2335  0.1638 -0.1105
23544W        W41748  10.452   6.067  15.021 -0.0353  0.2326  0.2154
23545W        W41749  17.178  18.810   0.445 -0.2010  0.2397  0.0097
23546W        W41750  16.922   7.339  11.158  0.2663 -0.3740 -0.3056
23547W        W41751   4.016  12.534   0.619  0.0333  0.2862  0.2210
23548W        W41752   1.351   9.754  10.639 -0.1188 -0.1742  0.0578
23549W        W41753  14.223  11.673   2.605  0.1241 -0.0743  0.3512
23550W        W41754   0.923   0.051   1.522  0.0249  0.1789 -0.0905
23551W        W41755   4.879   7.602  11.605  0.1081  0.1004  0.3533
23552W        W41756  17.228  11.046   0.624 -0.2193 -0.1915 -0.1562
23553W        W41757   3.625  11.829  11.152  0.1469  0.2500  0.0113
23554W        W41758   4.481   4.558  14.543  0.0795  0.0178  0.2053
23555W        W41759   6.357  18.880  11.385  0.0355 -0.0689 -0.2493
23556W        W41760   6.282  11.831   2.707  0.0510  0.0312  0.3724
23557W        W41761   3.118  13.004   3.051  0.1970 -0.0233  0.1246
23558W        W41762   8.065   6.300   2.251  0.3311  0.3947 -0.4665
23559W        W41763   7.901  15.958   1.628 -0.1072 -0.1412  0.2779
23560W        W41764   1.327   4.055  12.013 -0.3195  0.0923 -0.1819
23561W        W41765   4.483  13.244   3.121  0.0607 -0.3073  0.1432
23562W        W41766  16.489   7.863   0.433  0.1201  0.0712 -0.1739
23563W        W41767  18.701   0.196   2.670 -0.0118 -0.0727 -0.3360
23564W        W41768   3.083  10.493   0.504  0.2327  0.4353  0.0333
23565W        W41769  18.431  11.945  13.222 -0.2162  0.0107  0.0686
23566W        W41770   9.457  16.973  14.751  0.1314  0.3019  0.0189
23567W        W41771   2.963   5.967  13.719 -0.1404  0.1255  0.0475
23568W        W41772   6.662  10.021   4.579  0.2666 -0.0551 -0.1521
23569W        W41773  11.519  18.277   1.620  0.2455  0.3563 -0.0865
23570W        W41774   4.537  17.601   1.152  0.0142 -0.3024  0.1645
23571W        W41775  10.827  13.701  13.274 -0.0021 -0.4277 -0.3519
23572W        W41776  13.755  14.754  12.128  0.5533 -0.1037 -0.2833
23573W        W41777   3.351  12.635  11.180 -0.0128 -0.1777 -0.3377
23574W        W41778   5.561  17.242  11.052 -0.1637  0.1138 -0.3810
23575W        W41779   4.094   0.453  12.568 -0.2523  0.0218 -0.1606
23576W        W41780  15.525   3.830   0.009  0.0888 -0.2293  0.1278
23577W        W41781   3.771  11.846  13.254 -0.3173 -0.1096 -0.0748
23578W        W41782   5.118   6.062   4.121  0.0397 -0.1608  0.1503
23579W        W41783   5.204  16.844  11.051 -0.1672 -0.0776  0.0154
23580W        W41784  13.324  15.098  10.636 -0.0351  0.3987  0.1986
23581W        W41785   1.585  18.161   4.919 -0.1015 -0.0183  0.1332
23582W        W41786   1.789   3.703   9.428  0.0037  0.1609  0.2645
23583W        W41787  11.784   2.117  10.367  0.0847  0.2611 -0.1419
23584W        W41788  10.297  11.674   2.922 -0.2562  0.0573 -0.0819
23585W        W41789  13.743   2.868  11.642 -0.1747 -0.3283  0.0515
23586W        W41790  10.014  15.353  14.914  0.0828 -0.0262  0.3393
23587W        W41791  12.025   1.708  13.899  0.1724  0.0597  0.1120
23588W        W41792  18.200   6.506  12.462 -0.1060  0.2279 -0.0435
23589W        W41793  17.662  10.186   4.132 -0.3097 -0.1942  0.1575
23590W        W41794  11.922  18.439  14.231 -0.0213 -0.0515  0.0601
23591W        W41795   6.568   7.133  14.713 -0.2028  0.0166 -0.0607
23592W        W41796   4.524   9.213   0.515  0.2464 -0.0234 -0.3606
23593W        W41797   0.135   7.893   2.547 -0.1924  0.0441 -0.2791
23594W        W41798   1.247   1.471  11.815  0.2227 -0.2135  0.0254
23595W        W41799   3.898  18.398   3.121 -0.2846 -0.0324 -0.1821
23596W        W41800  17.613  12.555  13.341 -0.0732 -0.1087  0.1217
23597W        W41801  18.630  14.542  13.321 -0.1111 -0.0922  0.0014
23598W        W41802   5.353   2.439   1.812  0.2676 -0.1237 -0.0707
23599W        W41803   4.091   5.001   3.814  0.3024  0.1091 -0.0052
23600W        W41804  11.863  14.466   2.101 -0.1180  0.3417 -0.1132
23601W        W41805   7.867  14.260   2.058  0.0230  0.0959 -0.3817
23602W        W41806   7.912  17.391  12.306  0.0967 -0.1583  0.2863
23603W        W41807   8.735  13.561   3.757  0.0617 -0.0370 -0.2013
23604W        W41808  13.562  16.343   3.276  0.2736 -0.0689 -0.0876
23605W        W41809   4.337  12.509  14.814  0.2699  0.0995 -0.0369
23606W        W41810   9.137  15.328   4.083  0.1552 -0.0652  0.0219
23607W        W41811   5.476  13.313  14.817  0.0974  0.0678 -0.1169
23608W        W41812  18.799   3.536  11.520  0.0049 -0.0247 -0.0952
23609W        W41813  16.866   5.442   0.498 -0.0622  0.3176  0.0857
23610W        W41814   2.157  10.416  12.031  0.2527  0.5049 -0.0971
23611W        W41815  14.464  15.165   4.690  0.1795 -0.0676 -0.2669
23612W        W41816  13.050   5.482   0.005  0.1801 -0.1334  0.1069
23613W        W41817  15.781   7.386  14.514 -0.1050 -0.1273 -0.1422
23614W        W41818   6.933   7.874  14.793 -0.1352  0.1116  0.0743
23615W        W41819   0.649   0.285   0.994 -0.1980 -0.0023 -0.2051
23616W        W41820   5.729  13.181  12.945 -0.0966  0.3700 -0.3093
23617W        W41821  13.588  11.621  12.776  0.1199 -0.1401 -0.2518
23618W        W41822   6.195   7.945  13.342 -0.1026  0.1198  0.1682
23619W        W41823   2.084   5.848  12.764  0.0806 -0.1038  0.0560
23620W        W41824   0.118   3.589   1.592  0.0903  0.1208 -0.0695
23621W        W41825   4.434  17.841   3.591  0.1923 -0.5731 -0.3501
23622W        W41826   4.509  15.080   0.401  0.1428  0.0585  0.0638
23623W        W41827  18.249   0.326   4.296  0.2523  0.2285 -0.0895
23624W        W41828  16.267   4.936   3.984 -0.2202  0.1811 -0.0758
23625W        W41829  11.000   5.195  10.797 -0.0307 -0.0039  0.0282
23626W        W41830   5.271  13.063  10.786  0.2811  0.3936 -0.1524
23627W        W41831  16.025  16.609  10.710  0.2786 -0.0715  0.2741
23628W        W41832   2.998   9.720   4.013 -0.0826 -0.0851  0.2648
23629W        W41833   8.892  17.355   0.433  0.2908 -0.0189 -0.0728
23630W        W41834   2.402   9.412  12.512  0.2166  0.3954 -0.1355
23631W        W41835   0.936   7.788   4.555  0.3567  0.2020 -0.0515
23632W        W41836   4.686   7.008  13.122  0.2508 -0.1273 -0.0826
23633W        W41837   0.229  12.605  11.841 -0.1793 -0.2234  0.2578
23634W        W41838  11.386  10.479  13.211 -0.1007  0.0310  0.0599
23635W        W41839   1.294   0.853   1.215  0.1681  0.0113 -0.0835
23636W        W41840  18.837   0.801   3.726  0.2242 -0.1660  0.0484
23637W        W41841  16.493  16.632   3.450  0.2295 -0.0118  0.1508
23638W        W41842   6.183   9.943  12.018  0.1790  0.2305 -0.2862
23639W        W41843   9.300   7.799   3.486  0.1961  0.2754  0.0309
23640W        W41844  11.282   6.014  10.855  0.1431 -0.0826 -0.0335
23641W        W41845  13.041   9.597  10.494  0.0129  0.5217  0.2190
23642W        W41846   5.617  17.476   1.202  0.3951  0.0850 -0.2022
23643W        W41847  17.283   9.528  13.939  0.0855  0.0629 -0.3092
23644W        W41848   3.326  16.168  10.663  0.0877  0.0963  0.0070
23645W        W41849  17.568  10.735   1.116  0.1107 -0.0711  0.0887
23646W        W41850  18.249   1.078  12.844 -0.0428  0.1993 -0.1896
23647W        W41851  17.204  17.537  12.363  0.0428  0.1839 -0.0442
23648W        W41852   5.118   1.548   0.891  0.3381  0.1836 -0.3552
23649W        W41853   1.752  15.295  10.897  0.1152 -0.1667  0.2731
23650W        W41854  18.110  18.596  12.246 -0.0381  0.1514  0.0547
23651W        W41855   6.417  13.036   2.223  0.0926  0.1214  0.2760
23652W        W41856  17.392  18.418  12.878 -0.1247  0.2071 -0.1063
23653W        W41857   2.284  10.941  12.260  0.0616 -0.2315  0.4314
23654W        W41858  14.015   7.896  10.445 -0.2334 -0.1664  0.1584
23655W        W41859   5.898   5.118  12.375 -0.0229 -0.1011  0.2236
23656W        W41860   9.413  12.799  12.682  0.0259 -0.0978 -0.0152
23657W        W41861  13.723  16.828  11.991  0.1714  0.3177 -0.3225
23658W        W41862   8.819   4.540  11.820 -0.3147  0.0518 -0.1031
23659W        W41863  18.560   9.121   1.806 -0.3167 -0.0436  0.1368
23660W        W41864  13.884   8.267  14.702  0.2692  0.0135 -0.0004
23661W        W41865  17.069   8.281   0.986  0.2327 -0.2406 -0.3815
23662W        W41866  13.554   5.745   2.204  0.1093  0.0673  0.0136
23663W        W41867   7.169   1.495  12.331 -0.2001  0.0082 -0.2698
23664W        W41868  12.210   4.859   2.166  0.1194 -0.3940 -0.1178
23665W        W41869   3.583   1.845   0.237 -0.2336  0.2604  0.5485
23666W        W41870   4.734   6.502   2.070 -0.1186  0.1009 -0.0216
23667W        W41871   2.285   5.359  14.530 -0.1156  0.2986 -0.2072
23668W        W41872   9.008   6.103   4.296  0.0534 -0.1552  0.0065
23669W        W41873   5.667  12.249   0.467 -0.0426  0.1051  0.1344
23670W        W41874   9.605  17.317   1.642 -0.0779 -0.0909 -0.3377
23671W        W41875   5.562   8.967  10.578  0.2868  0.0739  0.1293
23672W        W41876  12.502  10.262  11.050  0.1343 -0.0171  0.5493
23673W        W41877  18.843  17.187   1.662 -0.0632 -0.0828  0.2894
23674W        W41878  12.798   2.315  12.342 -0.3499 -0.0608  0.2429
23675W        W41879   4.897   1.990  12.905  0.0501  0.0598  0.2407
23676W        W41880  13.625  18.824   2.336  0.1764 -0.0126 -0.1189
23677W        W41881   2.618   1.760  13.225 -0.2185  0.0254 -0.0523
23678W        W41882  16.196  17.866  10.917  0.1454  0.3123 -0.0221
23679W        W41883   6.478  12.772   9.584 -0.0769 -0.0690 -0.1413
23680W        W41884  13.369  15.767  11.176 -0.2519  0.0650 -0.0930
23681W        W41885   0.562  16.407  11.027  0.1009 -0.1197 -0.0463
23682W        W41886   5.770   1.246   2.159  0.1106  0.1001 -0.0173
23683W        W41887  12.886   9.755  11.816 -0.1857  0.1021  0.1405
23684W        W41888   7.185   4.798   2.836  0.2176 -0.0369 -0.1375
23685W        W41889   2.448   0.909   3.924 -0.0104 -0.0077  0.3201
23686W        W41890   6.016  14.118   3.512  0.1273  0.0540 -0.2492
23687W        W41891  10.627   3.956   0.265  0.2098  0.1058 -0.3638
23688W        W41892   6.416   8.793  14.402  0.1432 -0.1659 -0.2052
23689W        W41893  16.178  17.832   3.697  0.1906  0.3343 -0.2909
23690W        W41894   5.492  15.112   1.834 -0.0357 -0.0740  0.0013
23691W        W41895  15.151   9.464   2.286  0.1598  0.0398  0.0772
23692W        W41896  16.532   7.530   0.834 -0.3030 -0.0690 -0.0912
23693W        W41897  14.678  10.767  10.895  0.0042 -0.0775  0.1831
23694W        W41898   8.031  13.074   0.866  0.4429 -0.1873  0.0069
23695W        W41899  13.750  18.225   1.634 -0.0444  0.3878  0.1513
23696W        W41900  12.816   2.893   1.108 -0.0504  0.0664 -0.0356
23697W        W41901   5.747  15.164   0.392 -0.0548 -0.0224  0.3345
23698W        W41902   7.143  16.683   0.158  0.1787  0.1250 -0.0679
23699W        W41903   8.318  18.744  12.080  0.2512  0.2993 -0.0875
23700W        W41904  10.109   1.588   3.177 -0.2158  0.0270 -0.0881
23701W        W41905   0.881  17.446   1.668 -0.0652 -0.2382  0.1054
23702W        W41906  11.461   4.851   1.620  0.3638 -0.1854  0.1321
23703W        W41907   5.474   5.229   0.716  0.2228 -0.1822 -0.1349
23704W        W41908  15.027  12.028   3.375  0.1740  0.2242 -0.2447
23705W        W41909  18.226  17.050  11.698 -0.0717 -0.0395 -0.1317
23706W        W41910  13.193  18.500   0.168  0.1814 -0.0469  0.0949
23707W        W41911   3.925  14.217   4.761  0.2826  0.0277 -0.0925
23708W        W41912  13.324   4.306   2.625  0.1432  0.0570 -0.1519
23709W        W41913  15.054   9.039  11.310 -0.2126  0.2707  0.3314
23710W        W41914   3.148   8.007  12.130 -0.1942  0.1690 -0.0456
23711W        W41915   2.122   7.645  12.121 -0.1888  0.3511  0.1157
23712W        W41916  18.435  17.757  12.872  0.0271  0.0207 -0.3383
23713W        W41917   9.664  11.017  14.680  0.1363 -0.1886 -0.0214
23714W        W41918   2.020   6.197  11.767 -0.1664 -0.0009 -0.2641
23715W        W41919  18.641  15.842   0.307 -0.0829  0.1323  0.1917
23716W        W41920   3.297  18.720   3.520 -0.1132  0.2059  0.3626
23717W        W41921   2.527  14.526   0.836 -0.0400 -0.0167  0.0550
23718W        W41922   8.609  11.938  13.872 -0.2643  0.1410 -0.2947
23719W        W41923   1.326   6.115   4.258  0.2770 -0.0847  0.0348
23720W        W41924   5.088  11.705  11.187  0.2232  0.2282 -0.2745
23721W        W41925   1.219   5.272   0.681 -0.0776 -0.2479 -0.3242
23722W        W41926   9.909   6.633  13.672  0.1742  0.2040 -0.0053
23723W        W41927  16.780  16.987   1.661  0.1393  0.1178  0.3078
23724W        W41928  18.409  16.257   4.328  0.0452  0.0279  0.1038
23725W        W41929   7.924  16.960   1.407  0.1312 -0.1360 -0.0249
23726W        W41930   7.790   4.457  14.021  0.2847  0.0556  0.2122
23727W        W41931   3.497  15.531  11.687  0.2334 -0.2530 -0.2183
23728W        W41932   5.240  10.250  14.687 -0.1967  0.1764  0.0918
23729W        W41933   6.518   5.249   4.781 -0.0213 -0.0334  0.0232
23730W        W41934   0.940   4.643   3.854 -0.1622  0.5221 -0.3087
23731W        W41935  15.110  18.483  14.804  0.4231 -0.3193 -0.2569
23732W        W41936   4.617   7.739  11.098  0.1030 -0.1960 -0.1993
23733W        W41937   0.503  10.284   1.631 -0.4666 -0.1944 -0.2038
23734W        W41938   8.824   8.179   3.707 -0.0544 -0.0804  0.1866
23735W        W41939   6.524   0.437   2.595 -0.3891 -0.1269  0.0001
23736W        W41940  17.913  13.520   2.847 -0.3217 -0.2435 -0.0379
23737W        W41941   2.340   7.242  10.454  0.1215  0.3682 -0.1772
23738W        W41942   3.390  15.250  11.006  0.1473  0.1348  0.0573
23739W        W41943   2.698   5.808  14.553 -0.1590  0.0073 -0.3404
23740W        W41944  16.995  11.760  15.010 -0.0263  0.2451  0.0300
23741W        W41945   0.920  15.002  13.232 -0.0489  0.0072 -0.1919
23742W        W41946  13.349   6.056   4.676 -0.1410  0.0175 -0.1792
23743W        W41947   8.647   4.014  11.615  0.3093 -0.0032  0.2084
23744W        W41948  16.759   0.320   3.969  0.1299 -0.2562 -0.0931
23745W        W41949   9.413  18.921   1.493  0.2683 -0.0604  0.0467
23746W        W41950   5.363  15.181  12.833 -0.1663 -0.0779  0.0059
23747W        W41951   2.667  17.168   2.810  0.0016 -0.3397 -0.0223
23748W        W41952  11.908   4.062   3.638  0.3652  0.0132 -0.1458
23749W        W41953  10.351   4.459   4.014  0.0173 -0.1526  0.0103
23750W        W41954  16.090   9.754  13.382 -0.3194 -0.4075 -0.2624
23751W        W41955   3.099   1.651   4.582  0.0635  0.1379  0.1342
23752W        W41956  11.932  11.954   3.386 -0.0993 -0.1003  0.2715
23753W        W41957   2.356   5.318   3.123  0.0882  0.0953 -0.0740
23754W        W41958  12.234   9.856  13.081 -0.2790 -0.2232 -0.0550
23755W        W41959  12.208  14.187  13.289  0.0864  0.2648 -0.0355
23756W        W41960  18.740  11.227  10.953 -0.0086  0.2545  0.2121
23757W        W41961  10.142   8.842   2.979  0.4146  0.0929  0.1884
23758W        W41962   5.294   7.221   0.437 -0.0071 -0.3779  0.1593
23759W        W41963   7.994   8.400   4.389 -0.0667  0.0120  0.2452
23760W        W41964  15.980  13.561   1.181  0.1459 -0.0889 -0.2676
23761W        W41965   9.658  11.625   0.657  0.0210  0.0345  0.0179
23762W        W41966  14.755  18.878  14.587  0.0586 -0.0396  0.0158
23763W        W41967  16.321   7.440  14.225  0.0379  0.1243 -0.0751
23764W        W41968   8.797  16.374  11.731  0.1496  0.1623 -0.0634
23765W        W41969   7.909  11.084  13.122  0.2998 -0.2977 -0.1145
23766W        W41970   8.620   6.003   3.057 -0.0215 -0.0641 -0.0177
23767W        W41971   0.892   4.802   3.411 -0.0774  0.0579 -0.0054
23768W        W41972   7.206   8.061  11.264 -0.4762 -0.1951 -0.2999
23769W        W41973   3.039  11.356  13.408  0.0196  0.2039  0.0628
23770W        W41974  10.418  18.152  14.524 -0.0997 -0.1170 -0.1716
23771W        W41975   1.083   9.671   3.215 -0.2851 -0.1849 -0.0624
23772W        W41976   3.821  10.956  13.477  0.1456 -0.2324 -0.1553
23773W        W41977  10.092  12.751  14.789 -0.2250 -0.2064 -0.3577
23774W        W41978   0.314  18.866   3.486 -0.0662  0.0402 -0.1306
23775W        W41979   3.123  12.916   0.172  0.2176  0.0909  0.0435
23776W        W41980   5.484   4.976  14.277  0.1454  0.0895  0.1846
23777W        W41981   8.812   0.730  14.989  0.1335  0.2035 -0.0703
23778W        W41982   5.923   8.753  12.848 -0.0989 -0.0952 -0.0250
23779W        W41983  16.917  16.328  10.271  0.1386 -0.2185  0.0562
23780W        W41984   2.718   8.292   0.230  0.0400 -0.0118 -0.1593
23781W        W41985  17.285   5.749   1.952 -0.0671 -0.2955  0.0698
23782W        W41986  18.664   5.321   3.503 -0.0033  0.2578  0.3759
23783W        W41987  13.871  16.156  10.066 -0.1839 -0.2970 -0.1643
23784W        W41988   3.448   9.058  13.265  0.0839  0.2398  0.0257
23785W        W41989  12.166  16.093   0.084  0.0500 -0.1030 -0.1639
23786W        W41990  18.799  15.153   0.684  0.0174 -0.0647 -0.2645
23787W        W41991   2.451   8.095  13.866  0.0975 -0.2136 -0.2693
23788W        W41992  10.732   5.815   0.882 -0.0233 -0.0442  0.1399
23789W        W41993  13.162  14.273   3.154 -0.0575  0.2461 -0.1142
23790W        W41994  18.294  10.344  15.029  0.2991  0.2236 -0.0483
23791W        W41995   4.270  11.676   4.610 -0.2731 -0.3637  0.3004
23792W        W41996   2.176  17.742   3.268  0.0128 -0.0782 -0.0026
23793W        W41997  17.943   4.686  14.690  0.0669 -0.3893 -0.1774
23794W        W41998  11.411  13.617  10.711  0.1652  0.6079  0.3352
23795W        W41999  16.440   4.263   0.405  0.1371 -0.2388 -0.0414
23796W        W42000  15.688  18.044  12.126  0.1488  0.1613  0.1697
23797W        W42001   2.213  13.626  10.846 -0.0822 -0.3371 -0.0306
23798W        W42002  10.069   4.531  11.270  0.3500 -0.0639  0.4716
23799W        W42003  17.566  16.296   1.593  0.1953 -0.1282  0.0433
23800W        W42004   8.844   7.742   2.718  0.1360 -0.1346 -0.2310
23801W        W42005   2.575   6.897  10.902  0.0874 -0.1211  0.2510
23802W        W42006  17.942  15.232  12.709  0.1351 -0.3730 -0.0438
23803W        W42007  10.766   7.945  12.681  0.0605 -0.0038 -0.3081
23804W        W42008  10.223  12.717  10.789 -0.1836  0.1015 -0.0977
23805W        W42009  18.247  18.108   4.168  0.5404  0.3229 -0.0408
23806W        W42010  17.006   7.850   4.280 -0.2069 -0.0540 -0.1530
23807W        W42011  18.400  13.085   0.122  0.0440 -0.0823 -0.3376
23808W        W42012   3.681  13.727  10.571 -0.1041  0.0358  0.2601
23809W        W42013   9.118   1.376   2.035 -0.0192 -0.0883 -0.0234
23810W        W42014  18.612  12.183  14.793  0.0670 -0.1110 -0.3138
23811W        W42015  17.769   6.666  12.791 -0.0775 -0.0846 -0.0832
23812W        W42016   4.755   7.149   3.805  0.0250 -0.1518  0.3484
23813W        W42017   1.991   3.822  10.802 -0.1326  0.1841  0.0124
23814W        W42018   9.280   8.847  11.922 -0.0131 -0.1400  0.1901
23815W        W42019  12.676   2.442   2.373  0.1519 -0.2325 -0.1442
23816W        W42020   7.814   1.139  11.919 -0.0214 -0.0936 -0.1931
23817W        W42021  18.231  10.395  14.524  0.0279 -0.1023  0.1594
23818W        W42022  16.070  11.957   3.683  0.0485 -0.2467 -0.1160
23819W        W42023  13.232   4.279  10.401  0.1472 -0.1162 -0.0841
23820W        W42024   7.663   1.246   3.342  0.0811  0.1141 -0.0830
23821W        W42025   9.658  18.838  13.549  0.2401  0.1573  0.3759
23822W        W42026  15.790  12.969  14.877 -0.1341  0.1328 -0.1375
23823W        W42027  13.796   1.377   5.140 -0.0586 -0.2931 -0.2176
23824W        W42028  10.255  18.847  14.064  0.1538  0.1793  0.1214
23825W        W42029   3.403   4.889   0.551 -0.0410  0.0276 -0.0117
23826W        W42030   3.391   3.593   0.602  0.1743 -0.1196 -0.3097
23827W        W42031  18.844   6.519  14.099 -0.2424  0.0408 -0.2257
23828W        W42032   5.381   1.411   1.912 -0.0839 -0.2615 -0.0067
23829W        W42033  18.455  16.460   1.768  0.3095 -0.0442  0.1531
23830W        W42034   1.138   2.852  11.476  0.1093  0.0921 -0.0880
23831W        W42035  14.481   5.046  10.529  0.1070  0.0508  0.0315
23832W        W42036  17.343  11.556  13.780  0.0604 -0.0882 -0.3603
23833W        W42037  14.205   0.591   3.953  0.0269 -0.0156  0.3546
23834W        W42038   0.707  16.267   1.112  0.1203 -0.1483 -0.0438
23835W        W42039  13.823  10.381   0.585 -0.1277  0.0887  0.1787
23836W        W42040  18.381   4.519  10.649  0.1085 -0.1389 -0.2196
23837W        W42041  14.506   5.644  13.353  0.0149 -0.0043 -0.1005
23838W        W42042   2.900   6.536   2.517 -0.1344  0.0942 -0.0717
23839W        W42043  18.179   8.279   2.869  0.4759  0.0653  0.2539
23840W        W42044  10.956   4.808   2.532 -0.0254  0.2568  0.0678
23841W        W42045   7.469  12.417   2.951 -0.0989  0.0414 -0.1186
23842W        W42046   2.135   0.516  14.569  0.0359 -0.1521  0.0170
23843W        W42047   3.098   3.270  11.860 -0.1649  0.1309 -0.1853
23844W        W42048  13.848   3.561   3.080 -0.1441 -0.4265 -0.1056
23845W        W42049   9.580   4.179  12.636 -0.2579 -0.1772  0.2095
23846W        W42050   9.487  13.302  12.832  0.1090  0.3757  0.0610
23847W        W42051   0.611  15.655   1.805 -0.1531 -0.0690 -0.1068
23848W        W42052   1.719   1.180  14.183 -0.3643  0.1635 -0.3261
23849W        W42053   3.725   9.024   1.134 -0.0255 -0.0384  0.0440
23850W        W42054   9.830   3.157  10.224 -0.0629  0.1747 -0.2001
23851W        W42055  15.758  14.947   4.853  0.1297  0.0162 -0.0817
23852W        W42056  11.234  11.699   2.494 -0.1548 -0.2043 -0.0650
23853W        W42057   8.635   9.823   0.765  0.3151  0.1609  0.3948
23854W        W42058   6.754  15.737   1.594  0.0732  0.3610 -0.0319
23855W        W42059  12.072  18.028   2.314  0.0504  0.3164  0.0695
23856W        W42060  15.632   1.614   2.927 -0.0533 -0.2046 -0.1723
23857W        W42061  14.808   2.608  14.371  0.1254 -0.2340 -0.0978
23858W        W42062  16.433  14.603   1.034  0.1933  0.0243  0.3510
23859W        W42063   4.973   9.287  14.716 -0.1084 -0.2899  0.2075
23860W        W42064   3.307  12.126   9.547  0.0144  0.2472 -0.0222
23861W        W42065  18.647   9.386  11.790  0.0654  0.0389  0.0856
23862W        W42066   9.189   2.758  11.431 -0.2549  0.1757  0.0607
23863W        W42067  17.691  14.531   1.654  0.0287  0.0394  0.2771
23864W        W42068  12.287   0.547   3.198 -0.0313  0.0135 -0.2282
23865W        W42069   5.708  14.356  11.692 -0.1277  0.0472  0.2970
23866W        W42070  14.700  16.989  14.184 -0.0949 -0.0009  0.0035
23867W        W42071   1.868   2.464  13.301 -0.1873  0.0159  0.0409
23868W        W42072  16.204   7.745  10.881  0.0980 -0.3578 -0.0005
23869W        W42073  15.349   8.604   1.908 -0.1063 -0.1578 -0.0487
23870W        W42074  18.558  15.885  12.723  0.1750  0.0617 -0.3402
23871W        W42075   6.642  14.231   0.782 -0.0415  0.0918 -0.2900
23872W        W42076   3.536  13.215  13.245  0.2980 -0.0074  0.0965
23873W        W42077  11.238   6.228   2.677  0.2384 -0.0101 -0.1396
23874W        W42078  10.017   7.958   0.375 -0.1162 -0.1662  0.1812
23875W        W42079  16.399   7.231   2.960 -0.0297 -0.0269 -0.0988
23876W        W42080   0.921   9.322  14.460 -0.0322 -0.0120 -0.0382
23877W        W42081   4.654  15.595   0.613  0.0908  0.1306  0.1215
23878W        W42082  17.502  17.575   1.706 -0.0409 -0.1668  0.0511
23879W        W42083  14.172   9.036   3.042  0.1938 -0.1353  0.0090
23880W        W42084  14.684   6.732   4.311 -0.0538  0.3818  0.0753
23881W        W42085   1.682  13.464   2.834 -0.0845 -0.1281  0.3307
23882W        W42086   6.345  14.435   2.664 -0.3516  0.1068 -0.0907
23883W        W42087   4.207   5.929  10.910 -0.1885  0.3721 -0.1419
23884W        W42088  10.286   8.245   1.465 -0.0230  0.0651 -0.1157
23885W        W42089   1.585  18.385  10.702  0.2895  0.0205  0.1038
23886W        W42090   2.327   1.145   9.708  0.0638 -0.0434  0.1831
23887W        W42091   4.413   8.949  10.471  0.3959 -0.1869  0.2202
23888W        W42092  13.946   3.466  10.095 -0.1923 -0.2477 -0.0184
23889W        W42093   4.532   9.406   1.293  0.0062 -0.2247  0.4409
23890W        W42094  13.510  11.337  13.167 -0.0250 -0.2081  0.1225
23891W        W42095   3.441   0.701   4.757  0.0621 -0.2809  0.0521
23892W        W42096   2.236   3.595   4.321 -0.0414  0.1764 -0.1570
23893W        W42097   1.276   6.642   0.224  0.0874 -0.0279  0.1521
23894W        W42098   5.084   2.086   2.586 -0.2700 -0.1578  0.1730
23895W        W42099  17.938   2.819  13.947  0.3330  0.0146  0.1132
23896W        W42100   8.436  18.264   0.083 -0.2338  0.1589 -0.0087
23897W        W42101   1.015  18.234  12.364  0.1292 -0.0919  0.0998
23898W        W42102   2.233  16.033  13.074 -0.1945  0.0438  0.2397
23899W        W42103   0.352  16.556   1.310  0.2267  0.1562  0.0548
23900W        W42104   7.363  14.915   0.041  0.2694  0.0308  0.1354
23901W        W42105  10.772   8.141  11.449 -0.1585  0.1073 -0.0263
23902W        W42106  15.388   7.099   2.950 -0.2961  0.0385 -0.2299
23903W        W42107  18.941  13.831   3.430  0.0804  0.3293  0.1082
23904W        W42108   9.092   5.902  14.682 -0.1103 -0.2687  0.0767
23905W        W42109  13.088   9.774  12.620 -0.1349  0.1625 -0.1579
23906W        W42110   0.896   1.102  11.007 -0.1406 -0.0541  0.3880
23907W        W42111   6.659  12.603   2.327 -0.0581 -0.1020  0.0486
23908W        W42112   8.673   0.417   3.387  0.0184 -0.0187 -0.2146
23909W        W42113   3.716   8.138  11.412 -0.1658 -0.3325  0.0558
23910W        W42114  15.491   8.691  11.148 -0.0918 -0.1000 -0.3887
23911W        W42115  11.807   9.482  14.512  0.0226 -0.0857  0.1466
23912W        W42116   9.154   9.964  13.447  0.0176  0.1270 -0.2801
23913W        W42117  14.208  18.259   1.941 -0.0804  0.1664  0.2241
23914W        W42118   4.778  14.550  11.057  0.0608 -0.2904 -0.1352
23915W        W42119   3.203   6.011   2.125  0.0660  0.2650 -0.0718
23916W        W42120  13.266   7.544   1.716  0.1246 -0.0273 -0.0610
23917W        W42121   3.166   9.781   2.190 -0.2867 -0.1026 -0.0332
23918W        W42122  13.205  15.482   0.337 -0.3581 -0.5116  0.1432
23919W        W42123  17.947  16.610   0.224 -0.0567 -0.3411 -0.1447
23920W        W42124  18.050  17.710   1.772  0.1025 -0.1424 -0.0232
23921W        W42125   8.692   7.028   5.012  0.1753 -0.0612 -0.3027
23922W        W42126  18.380   2.703   0.720 -0.1910  0.1397 -0.1102
23923W        W42127  18.512   7.027   4.935  0.3523  0.1896 -0.1163
23924W        W42128  16.298  15.046  10.563 -0.0276 -0.0157  0.0691
23925W        W42129  15.714   4.283  13.201  0.1491  0.1825  0.1080
23926W        W42130  14.249  14.608  15.012  0.0581 -0.2094 -0.2737
23927W        W42131  10.738  12.263  12.893 -0.0155  0.1352  0.5128
23928W        W42132  10.695   9.647   2.543 -0.0758 -0.1296  0.1466
23929W        W42133  11.196  13.082  13.106 -0.1709  0.2110  0.1255
23930W        W42134  12.897   5.187   2.480 -0.1547 -0.0064  0.0847
23931W        W42135  17.175   9.707  13.220 -0.1701 -0.2428 -0.1424
23932W        W42136   8.936   3.049  13.554  0.4001  0.1370 -0.3318
23933W        W42137  16.076  15.286   3.144  0.0061 -0.0699 -0.2621
23934W        W42138  12.634  13.162   4.216 -0.0801  0.1492 -0.1251
23935W        W42139  10.006  12.168  12.117 -0.2111 -0.0814  0.3419
23936W        W42140  10.977  11.106   3.313  0.1310  0.0878  0.2120
23937W        W42141   9.222  12.519   4.619  0.1054  0.0067 -0.0425
23938W        W42142   1.789  17.048  10.772  0.0806 -0.0076  0.2513
23939W        W42143   2.578   1.160  10.166 -0.1898 -0.4151  0.0015
23940W        W42144  14.866   6.677   0.308 -0.2211  0.0466  0.0660
23941W        W42145   9.512   2.443   3.471 -0.1508  0.2630 -0.2214
23942W        W42146   4.768   0.946  13.526 -0.0195  0.0529 -0.2777
23943W        W42147  13.559   0.840  12.207 -0.0657  0.2005 -0.2865
23944W        W42148   9.437   8.380  14.687 -0.4064  0.2015  0.1071
23945W        W42149   9.958  17.566   4.151  0.2100  0.1894  0.1807
23946W        W42150  10.972  17.109  14.556  0.0947  0.2820 -0.1809
23947W        W42151   6.108   7.839  12.522  0.2806  0.1899 -0.0435
23948W        W42152  10.964   3.448   0.291 -0.0904  0.1884 -0.3133
23949W        W42153   3.149  13.958  13.812 -0.1957 -0.1156  0.2293
23950W        W42154   6.740  17.892   0.950  0.0090 -0.1729  0.0256
23951W        W42155   7.054  10.197   1.622  0.1706 -0.2655  0.0970
23952W        W42156   2.199   0.338  15.016 -0.0311 -0.2385  0.0198
23953W        W42157   4.750  18.140   5.529 -0.1453  0.1749  0.0242
23954W        W42158   1.824   7.338   4.593 -0.1399 -0.1445 -0.0465
23955W        W42159   1.659   5.467   2.515 -0.0532  0.2145 -0.1998
23956W        W42160   3.840  15.445  13.830  0.0350 -0.0161 -0.1374
23957W        W42161  13.480  15.605   0.702 -0.0832 -0.0762 -0.0865
23958W        W42162   8.382  17.921   1.766  0.0388 -0.1384  0.3021
23959W        W42163   7.176   4.455   0.281 -0.3730 -0.1626  0.0763
23960W        W42164  18.843  14.424   4.276 -0.1843 -0.1810  0.0871
23961W        W42165  13.391   6.665   2.603  0.0698  0.2444 -0.0707
23962W        W42166   4.932   5.634  10.879  0.1818 -0.3808 -0.0608
23963W        W42167  10.489  15.366  14.938  0.0102  0.0162  0.4375
23964W        W42168   9.577  15.117  14.266 -0.0817  0.0834  0.1880
23965W        W42169  17.581  15.927  11.808 -0.1482 -0.0832 -0.0291
23966W        W42170   4.667   8.310   5.323 -0.1624  0.0114  0.1344
23967W        W42171   4.199   8.990   1.274 -0.0747 -0.0602  0.0599
23968W        W42172   1.487   6.489  11.382 -0.1637  0.2638  0.0876
23969W        W42173   6.131  18.202   4.757  0.0557 -0.2535 -0.3578
23970W        W42174   7.312   1.590  14.491  0.1168  0.0600 -0.2293
23971W        W42175  10.570   6.828  13.065  0.2166  0.1578  0.3523
23972W        W42176   2.689  10.060   1.123  0.1063  0.1389 -0.1658
23973W        W42177  17.820  16.003  12.345 -0.1367 -0.0886  0.1965
23974W        W42178   3.753   3.957   1.792 -0.2422 -0.0631  0.2706
23975W        W42179   0.162   7.010   2.710  0.1180  0.0069  0.1185
23976W        W42180  17.840  10.632   4.164 -0.1364 -0.0846  0.1048
23977W        W42181  17.358  11.813  12.745 -0.3774  0.0248  0.0351
23978W        W42182   3.233  14.455   3.486 -0.0758 -0.1358  0.2864
23979W        W42183  16.211  12.634   0.239 -0.0635  0.0428 -0.1564
23980W        W42184   1.186  12.751  13.757 -0.1515  0.2177  0.0768
23981W        W42185   0.655  16.765  15.003  0.4231 -0.0078  0.0022
23982W        W42186  10.170  10.275  13.679  0.0698 -0.0747 -0.2016
23983W        W42187   4.896   7.172   0.075 -0.1875 -0.1524 -0.1063
23984W        W42188   9.869   5.137   3.495  0.1784 -0.1215 -0.0908
23985W        W42189  10.888   8.320   3.854 -0.1292  0.2515 -0.0649
23986W        W42190   1.903  10.918  11.772  0.4787 -0.0763 -0.2399
23987W        W42191   3.587   1.667   1.990  0.0920 -0.0508  0.3426
23988W        W42192  15.715   5.375  14.220 -0.0101 -0.2046 -0.0864
23989W        W42193   5.521  14.338   4.308  0.1990 -0.0110 -0.2208
23990W        W42194  17.963  14.721  12.818  0.0234 -0.0413  0.1821
23991W        W42195  10.249   4.841  13.045 -0.0556  0.1250  0.2343
23992W        W42196   0.160  11.189   0.580  0.0135 -0.6161 -0.0732
23993W        W42197  17.542  14.355  12.079  0.1400 -0.2485  0.1185
23994W        W42198  13.369  12.215  13.738  0.1514  0.1471  0.4497
23995W        W42199  17.407   4.681  14.865  0.0487 -0.0637 -0.3020
23996W        W42200  13.638  11.409   3.971  0.0339  0.1349 -0.0645
23997W        W42201  10.029   1.505   2.691  0.1272 -0.0964 -0.4008
23998W        W42202  18.812   0.164  12.946  0.2642  0.1220 -0.1659
23999W        W42203   7.911   4.799   3.533 -0.0100 -0.3314  0.1219
24000W        W42204  17.049  16.975   2.170  0.1079  0.0692 -0.1225
24001W        W42205  11.289  12.299   1.403 -0.1860 -0.1715 -0.2087
24002W        W42206   8.388  11.424  13.829 -0.2670  0.1818 -0.1885
24003W        W42207  17.766   6.017   2.825  0.0589  0.1954  0.2247
24004W        W42208   9.941   5.584  13.138 -0.0398 -0.1869 -0.0159
24005W        W42209  11.826  18.788   2.669 -0.1124  0.0669  0.0165
24006W        W42210   3.297   9.080  14.893  0.0404  0.1046 -0.2112
24007W        W42211  15.963  14.778  10.885 -0.1233 -0.2747 -0.1287
24008W        W42212   8.992  18.029   2.791 -0.6056  0.1286  0.0790
24009W        W42213  18.709  18.496   2.021  0.1801 -0.2127  0.2582
24010W        W42214   6.565  17.084   1.422 -0.0062 -0.3033 -0.2302
24011W        W42215  17.308  10.695  11.766  0.2003 -0.0412  0.4328
24012W        W42216  12.720  16.910   3.113 -0.4312 -0.0447  0.0432
24013W        W42217  12.950  14.445   0.275 -0.2654  0.0228  0.2090
24014W        W42218  18.700   6.163  10.209  0.2293  0.3318 -0.2186
24015W        W42219   3.093  13.692   4.587  0.2062  0.0767  0.3468
24016W        W42220  12.518  18.132  14.448  0.3526  0.0106 -0.1628
24017W        W42221  16.374   9.550  14.385 -0.3841  0.1172 -0.2164
24018W        W42222  15.934  15.744  12.877 -0.0862 -0.0015 -0.0161
24019W        W42223   7.224   7.477   4.065 -0.1696  0.1755 -0.1477
24020W        W42224  17.859   8.186   3.268  0.1849  0.2190 -0.0764
24021W        W42225  12.197   2.905  13.420 -0.0451  0.1331  0.0588
24022W        W42226   8.327   3.323  12.808  0.0601  0.0440  0.0897
24023W        W42227   9.927  15.861   1.649  0.3806  0.3570  0.1135
24024W        W42228  11.189  15.617  13.460  0.0663 -0.0397 -0.3045
24025W        W42229   9.452  15.177  13.743  0.0551 -0.0328  0.1070
24026W        W42230  17.391  17.236  13.733 -0.1421 -0.1088 -0.0135
24027W        W42231  13.642   0.224   4.379  0.4146 -0.0201 -0.0547
24028W        W42232  14.518   0.909  13.725 -0.5400  0.2690  0.1066
24029W        W42233  13.901  14.918  13.860  0.1588  0.2286  0.2686
24030W        W42234  17.441   6.326   2.534 -0.1052 -0.2236 -0.1970
24031W        W42235  18.805   2.728  10.951 -0.1253  0.0972  0.2281
24032W        W42236   7.830  13.873   3.769 -0.3829  0.1785  0.0936
24033W        W42237   6.603   8.660  12.634  0.1575 -0.0545  0.0613
24034W        W42238  10.472  15.470   0.518 -0.2536 -0.2338 -0.0786
24035W        W42239   0.116   3.128   9.897 -0.2172 -0.0658  0.1951
24036W        W42240   3.128  14.928  12.972  0.2218  0.0663  0.0871
24037W        W42241  15.894   6.601   1.126 -0.3186 -0.0698  0.0858
24038W        W42242   5.565  16.204   2.026  0.1538 -0.3505  0.0529
24039W        W42243  17.400  13.486   0.908 -0.0995 -0.1999  0.0724
24040W        W42244   5.492  11.805  12.967  0.1988 -0.2126 -0.1749
24041W        W42245   7.073   4.931   3.599 -0.2177 -0.2755  0.0663
24042W        W42246  15.966   3.840  10.750 -0.3673 -0.0025 -0.2082
24043W        W42247   3.231  15.725   2.600 -0.1094 -0.0546 -0.0343
24044W        W42248   8.557   6.681   1.568 -0.4204 -0.1825 -0.1237
24045W        W42249   1.358   6.024  11.527 -0.1023  0.1423 -0.3036
24046W        W42250  18.598  16.978  11.202  0.0502 -0.0375 -0.0694
24047W        W42251  18.249  17.350   3.506  0.0620 -0.1597 -0.1290
24048W        W42252   8.729   8.833   0.140 -0.2734  0.0673  0.2467
24049W        W42253   4.138   4.141  11.225  0.0600 -0.0510 -0.1333
24050W        W42254  14.351   7.299   1.544  0.0342 -0.0694 -0.1032
24051W        W42255  17.690   6.989   2.338 -0.0738  0.2377  0.0372
24052W        W42256  16.435  14.813   1.471 -0.1138 -0.0165 -0.5357
24053W        W42257  10.202  11.149   4.413  0.0438  0.1341  0.0776
24054W        W42258  13.233   7.484   9.488  0.1553  0.0427 -0.1218
24055W        W42259  11.609   9.192   2.000  0.4379 -0.2650 -0.0892
24056W        W42260  16.327  13.869   2.046  0.1978 -0.2397 -0.0740
24057W        W42261  14.664   4.401  14.070 -0.0293  0.0410  0.0130
24058W        W42262  10.320  12.425   1.634 -0.0514 -0.0558  0.4713
24059W        W42263  13.227   0.262  13.121  0.1855  0.0269 -0.2657
24060W        W42264  13.380   0.254  10.783  0.0971  0.2514  0.0264
24061W        W42265   5.235   9.025   0.055 -0.3017 -0.2718 -0.0367
24062W        W42266   4.710   2.096  14.666  0.2509  0.0354 -0.2193
24063W        W42267   8.555  12.914  12.105 -0.0645  0.1498  0.0194
24064W        W42268   9.532   6.882  11.638  0.0569  0.6239  0.1937
24065W        W42269   2.854   7.451   2.649 -0.4776  0.3815 -0.2729
24066W        W42270   7.551  16.106  12.339 -0.0363  0.0343  0.0135
24067W        W42271  12.664  10.271  13.796 -0.0399 -0.0663 -0.1390
24068W        W42272  12.435  10.279   0.118  0.1929  0.0477 -0.0663
24069W        W42273  15.037  16.516   2.563 -0.0365 -0.1246 -0.3515
24070W        W42274   1.861  14.008  13.331 -0.0640  0.2033 -0.2128
24071W        W42275   5.306   7.409   2.740 -0.0935  0.4884 -0.0672
24072W        W42276   3.970  11.580   2.575 -0.1344  0.1114  0.0741
24073W        W42277  17.613   0.959  13.660  0.1484 -0.0308 -0.1519
24074W        W42278  13.741   8.078  11.311  0.2746 -0.1537 -0.0207
24075W        W42279   5.712   3.097   1.037 -0.3696  0.0595  0.2345
24076W        W42280   7.717  10.634  11.540 -0.1377 -0.1503  0.1908
24077W        W42281   4.422  17.733  14.540  0.1976 -0.3593 -0.0632
24078W        W42282   4.574   2.277  11.105  0.1181  0.0106 -0.4524
24079W        W42283  15.801  15.400   0.761 -0.1663  0.0344  0.0018
24080W        W42284   9.583  10.488  14.079  0.1115 -0.0462  0.1023
24081W        W42285  11.707   4.026  12.413 -0.0041  0.1493 -0.0748
24082W        W42286  15.742  12.479   0.590 -0.0688 -0.0254 -0.0628
24083W        W42287   0.496   6.278  14.166  0.0565 -0.3139  0.0996
24084W        W42288  17.045  10.712   1.169  0.1672 -0.0039  0.1019
24085W        W42289  16.004   3.876   9.592 -0.1226  0.1783  0.0441
24086W        W42290   2.862   0.581   2.600  0.0743  0.1296  0.0442
24087W        W42291   8.305   0.705  14.255  0.1455 -0.2464 -0.1226
24088W        W42292   5.879   3.388   1.816  0.0296  0.3721  0.1546
24089W        W42293  15.300   9.039   1.091 -0.1554 -0.3051 -0.1148
24090W        W42294  11.066   7.554  14.571 -0.1649  0.0795  0.1606
24091W        W42295   5.072  14.117   0.982 -0.2476  0.3142 -0.4320
24092W        W42296  18.390  15.920   1.736 -0.5269  0.0436  0.2198
24093W        W42297   1.290  15.179   2.838  0.1984 -0.3534 -0.2035
24094W        W42298   3.220  11.818  12.184 -0.2707  0.2619 -0.0356
24095W        W42299  10.237   6.120   4.241  0.2204  0.4354  0.4830
24096W        W42300   2.967   4.207   3.279 -0.1798  0.0779 -0.1287
24097W        W42301   5.261   9.048   2.818 -0.1118 -0.1081  0.0381
24098W        W42302   4.633   3.709  12.154  0.1918 -0.1584  0.0639
24099W        W42303   0.701  16.686   4.407 -0.0410 -0.2690 -0.0004
24100W        W42304   6.772  10.641  14.322 -0.0899 -0.0510 -0.1979
24101W        W42305   9.504   7.780  14.483  0.0906  0.0313  0.3185
24102W        W42306   2.273   8.662   0.976  0.1210 -0.0238  0.0674
24103W        W42307   5.714  13.963  14.145  0.1717  0.0309 -0.2677
24104W        W42308   4.360  11.936  14.656  0.3227 -0.0096  0.0295
24105W        W42309  10.908  18.548  12.774  0.1252  0.3200  0.0721
24106W        W42310   7.973  11.801  11.445  0.1115  0.0665  0.0798
24107W        W42311   6.557   6.101   4.051 -0.2535  0.2084  0.1900
24108W        W42312   8.542   5.986   1.639  0.3167 -0.2735  0.1169
24109W        W42313   1.233   1.832   0.395  0.0210  0.0588 -0.2468
24110W        W42314  15.684  15.746   4.131 -0.2500 -0.0404 -0.2691
24111W        W42315   2.476   4.950   2.383  0.1990  0.1292  0.0140
24112W        W42316   6.062  11.712   3.113 -0.1553  0.2481  0.1489
24113W        W42317   6.345  10.317   4.311  0.1848 -0.0127  0.4252
24114W        W42318   8.226   1.918   0.708  0.1034 -0.1376 -0.1396
24115W        W42319   3.392  14.457   3.986  0.1243 -0.0794 -0.2031
24116W        W42320  12.545   3.959  14.451  0.2157  0.5316  0.1628
24117W        W42321  13.017  11.909  14.476  0.1091 -0.0568 -0.1528
24118W        W42322   2.406  17.990  13.918 -0.2068 -0.1077 -0.4237
24119W        W42323   6.251   8.233   3.399  0.0311  0.1262  0.0033
24120W        W42324  14.908   2.747   3.012 -0.3984 -0.0569 -0.0644
24121W        W42325  11.712   0.247  10.636  0.2538  0.1714 -0.3511
24122W        W42326   6.118  15.287  14.583  0.2984  0.2462 -0.1537
24123W        W42327   9.108   0.603   3.856 -0.1994 -0.0191 -0.0336
24124W        W42328   7.132   3.179   2.393  0.3181  0.1383 -0.2216
24125W        W42329  13.555   9.661  12.993 -0.1424 -0.2026  0.2017
24126W        W42330  10.204   9.599   1.399 -0.0424 -0.0612  0.2316
24127W        W42331   9.764   2.544   0.472  0.1641 -0.1689  0.0159
24128W        W42332   8.987   5.570  11.138  0.4204  0.0494  0.1593
24129W        W42333  10.519   3.927   3.153  0.0938 -0.5015 -0.3679
24130W        W42334   9.488  13.372  12.319  0.2687 -0.1194  0.3706
24131W        W42335  11.754   4.605  10.636 -0.0693  0.2622 -0.1926
24132W        W42336  12.430  12.280  12.486 -0.1891 -0.1994 -0.0834
24133W        W42337   9.551   6.966   3.348  0.0009  0.3805  0.0682
24134W        W42338  14.404   6.161  13.696 -0.1999  0.0520  0.1460
24135W        W42339  10.997   7.882  13.661  0.0316 -0.0922  0.1050
24136W        W42340  10.406  17.714   4.337 -0.3936 -0.1757 -0.0999
24137W        W42341   2.039   7.916   5.353 -0.2196 -0.1907 -0.4454
24138W        W42342  13.938  17.844  14.347  0.1556  0.1180 -0.1598
24139W        W42343  12.875  12.349  11.326  0.3466  0.3571  0.1055
24140W        W42344  11.852   4.799   1.270 -0.2392 -0.0780  0.1350
24141W        W42345   0.541  15.720   3.245 -0.3311  0.2729 -0.2173
24142W        W42346   7.251   9.623  13.934  0.0249  0.1637  0.0388
24143W        W42347  18.386  15.679   4.335  0.1514 -0.0279 -0.1754
24144W        W42348  18.356   4.356   3.309  0.0128 -0.1737  0.1637
24145W        W42349   4.255   5.169   0.476  0.3669  0.1427 -0.1431
24146W        W42350  15.843  12.538  10.683  0.1103 -0.1822  0.1181
24147W        W42351   3.845   0.458  11.667 -0.0312 -0.0455  0.1698
24148W        W42352   2.354   9.269  15.017  0.2224 -0.2891  0.0857
24149W        W42353  11.261   6.657  14.611 -0.0576 -0.1821  0.1375
24150W        W42354  18.442  12.138   5.080  0.1222 -0.1004 -0.0731
24151W        W42355   9.468   2.176   0.264  0.1997  0.0518  0.2351
24152W        W42356  17.265  12.323  10.531  0.3946  0.1274 -0.0691
24153W        W42357  16.726  16.900  14.551 -0.2409 -0.1411 -0.1366
24154W        W42358   0.140   9.811   3.947  0.0941  0.2317  0.0258
24155W        W42359   1.117   8.802   1.677 -0.0635  0.0434  0.2236
24156W        W42360   3.507  10.995  12.658  0.1925 -0.3517  0.0142
24157W        W42361   3.677   5.786  10.828  0.1953  0.0362  0.2826
24158W        W42362   2.437  10.656   4.532 -0.1426  0.2333  0.0555
24159W        W42363  10.533  11.702  12.651 -0.0723 -0.0023 -0.2966
24160W        W42364   5.999  15.140   3.301 -0.1784 -0.0537  0.0446
24161W        W42365   2.788  15.325   3.662 -0.0462 -0.2086  0.1798
24162W        W42366  10.053  17.441   1.452 -0.2177  0.1361 -0.2186
24163W        W42367  14.669  10.847  13.899  0.1584 -0.0185 -0.0226
24164W        W42368   0.563   9.941   4.275 -0.3030  0.1923  0.2867
24165W        W42369   2.314  11.530   2.301  0.3457  0.2252  0.0677
24166W        W42370   5.459  14.721   0.409 -0.1073  0.3243 -0.1493
24167W        W42371   2.716  11.712  13.255  0.3179  0.3342 -0.1818
24168W        W42372   4.483   2.244   3.954  0.1390 -0.0763  0.1289
24169W        W42373  10.166   3.080   1.838 -0.0241 -0.1732  0.4459
24170W        W42374  17.751   2.539  11.777 -0.1485  0.2541 -0.0440
24171W        W42375  14.767   7.767   2.602  0.1641  0.1115 -0.0312
24172W        W42376  16.116  13.529  11.841  0.0288 -0.1530 -0.2332
24173W        W42377   2.614  13.420   1.314  0.2882  0.0703 -0.3693
24174W        W42378   6.661   3.202   4.093 -0.0279  0.1501  0.2648
24175W        W42379  16.099   7.100   3.503 -0.0792  0.1065  0.0321
24176W        W42380   7.153   7.858   3.718 -0.2000 -0.1678  0.1541
24177W        W42381   1.631   2.870   1.421 -0.0227 -0.0068  0.3397
24178W        W42382  17.176  14.258  11.182 -0.1408 -0.1635 -0.2027
24179W        W42383  17.956  18.627  14.852  0.1028  0.1119  0.2163
24180W        W42384  15.998   3.233  15.028  0.1429 -0.2041 -0.3608
24181W        W42385   1.284  11.898  14.953 -0.0105  0.1058 -0.2584
24182W        W42386   6.889  10.803   1.204  0.1198 -0.3005 -0.1571
24183W        W42387  16.047   6.191   0.252  0.2078 -0.2045  0.0165
24184W        W42388  11.667  16.952  12.609  0.1588 -0.4585 -0.1067
24185W        W42389   0.291  10.692   2.503  0.3128  0.1541 -0.1187
24186W        W42390   6.196  14.591  10.534  0.0414  0.0249  0.3373
24187W        W42391   5.628   5.410   2.989  0.2838 -0.1733 -0.0123
24188W        W42392  18.029  14.737   4.096  0.4124  0.1057  0.1630
24189W        W42393   2.175   4.533   1.513 -0.1571  0.1470 -0.0905
24190W        W42394   8.355   4.739   1.373 -0.2598 -0.0638 -0.0781
24191W        W42395   0.801  12.796   2.422 -0.1766  0.2174 -0.1086
24192W        W42396   8.346   0.861   3.345 -0.0519  0.0295  0.0687
24193W        W42397  14.556   3.620  14.635 -0.2651 -0.0393 -0.0486
24194W        W42398  15.111  16.771   2.070  0.1636  0.1231  0.1469
24195W        W42399   7.100   0.528   2.675  0.0715 -0.1680 -0.2933
24196W        W42400   6.116   4.495  10.998  0.2568  0.1706 -0.2120
24197W        W42401   1.989  18.160   1.514 -0.1362  0.0299  0.0730
24198W        W42402   8.624   5.693   2.506  0.1352  0.2626  0.4761
24199W        W42403  17.721  17.214   3.713  0.1786 -0.1537  0.2917
24200W        W42404  14.065  14.754   3.741 -0.0763  0.1254 -0.0648
24201W        W42405   9.738   4.261   2.486 -0.1747 -0.0090 -0.1014
24202W        W42406  15.321   6.372   1.685 -0.0318 -0.0870  0.0648
24203W        W42407  10.773  18.513  14.912  0.0459  0.1577  0.4021
24204W        W42408  18.630   7.804  12.735 -0.0003 -0.3314  0.0261
24205W        W42409   5.477  13.565  13.327 -0.0715  0.2458  0.4656
24206W        W42410   7.465   4.770   2.371  0.2781 -0.0210 -0.0327
24207W        W42411   2.652  10.702  14.071 -0.1825 -0.0658  0.1707
24208W        W42412   6.080   1.091   4.611  0.2483  0.3207  0.0607
24209W        W42413   4.145   6.086  11.889 -0.1247  0.0046  0.2212
24210W        W42414  18.731  18.945   3.499 -0.0033  0.0478 -0.0774
24211W        W42415   1.645  13.295  12.907 -0.1707  0.1156 -0.4606
24212W        W42416   1.571  11.089   1.239 -0.0091 -0.2003  0.0834
24213W        W42417   4.125  16.935   3.650 -0.1622 -0.3278  0.0197
24214W        W42418  12.191   0.557  11.304  0.0171 -0.2522 -0.2855
24215W        W42419  15.958   8.532   3.863  0.1185 -0.1410 -0.0241
24216W        W42420   1.032  18.044   4.705  0.2057  0.0156 -0.0017
24217W        W42421  17.658   7.951   3.667  0.2066 -0.0614  0.1333
24218W        W42422  16.802   5.976  12.294 -0.2531 -0.0799  0.0083
24219W        W42423   4.187  15.871   4.324 -0.1067 -0.1467 -0.1138
24220W        W42424  16.028  15.799  11.187  0.1532  0.1855  0.0171
24221W        W42425   5.923   4.839   4.259  0.0712 -0.3712  0.1067
24222W        W42426  17.049   8.325  12.485  0.0857  0.2075  0.1887
24223W        W42427   8.286   2.114  11.914 -0.0350 -0.0535  0.4257
24224W        W42428  16.375   2.775  10.363  0.1280  0.1476  0.1097
24225W        W42429   9.880   2.827   4.322 -0.4659 -0.2716 -0.2724
24226W        W42430  11.975   8.607  10.688  0.0300 -0.0522 -0.0034
24227W        W42431  15.293  12.926  10.636  0.0935  0.1164 -0.0337
24228W        W42432   3.083   1.023   0.720 -0.3138  0.0872 -0.2058
24229W        W42433   6.647  12.580   5.151  0.0000 -0.3395 -0.1731
24230W        W42434  18.654  11.118   0.797  0.2663 -0.0832  0.1659
24231W        W42435   6.407   2.502   0.991 -0.0987 -0.1198  0.0231
24232W        W42436   8.981   4.337   0.020  0.0064 -0.0873  0.0074
24233W        W42437   8.264   5.845   2.217  0.3611 -0.0130 -0.1382
24234W        W42438  12.285   5.391   3.331 -0.2677  0.1020 -0.1927
24235W        W42439   1.213  16.262  11.627  0.2921 -0.1276 -0.0145
24236W        W42440  15.100   1.457  11.533 -0.0295 -0.0596 -0.1323
24237W        W42441  12.361  16.024  12.088  0.1178 -0.3383  0.3833
24238W        W42442   8.880  18.271   1.009 -0.1348  0.3105 -0.1341
24239W        W42443  12.634  12.424   2.869 -0.1755  0.1007  0.0007
24240W        W42444  12.930   3.947   0.206  0.1209  0.0698 -0.0328
24241W        W42445   2.737   9.958  13.884  0.0856 -0.2298  0.2110
24242W        W42446  11.124  13.979   2.578  0.3253  0.0854 -0.0360
24243W        W42447  10.943   3.806  12.925 -0.1373  0.0498 -0.0399
24244W        W42448   2.825  17.873  13.654  0.1295  0.0015  0.1331
24245W        W42449   5.927   6.469   0.489 -0.0398 -0.1002  0.1483
24246W        W42450   8.586  17.778   4.131  0.0179 -0.1624  0.3604
24247W        W42451  16.579   8.933   1.379 -0.2023  0.0493 -0.0308
24248W        W42452   8.128   9.964   4.511 -0.0571  0.0196  0.2886
24249W        W42453   5.899   0.261  12.746  0.5603  0.1073 -0.0552
24250W        W42454   6.474   6.717  13.010 -0.1375  0.2103  0.4024
24251W        W42455   0.744  15.385   0.548  0.0624  0.2119  0.2830
24252W        W42456   8.970  15.649   1.300 -0.0898 -0.1649  0.2233
24253W        W42457   2.639   3.081  11.972  0.0740  0.4463 -0.1790
24254W        W42458   5.434   4.197   2.476  0.1098 -0.1537 -0.5742
24255W        W42459   1.580   5.455  12.826 -0.1317  0.1514 -0.1535
24256W        W42460  18.204   7.153   4.401  0.4443 -0.1453  0.0805
24257W        W42461   3.114   0.133   1.420  0.2236 -0.1220 -0.0996
24258W        W42462  11.388   9.037  14.483  0.1765 -0.2554  0.0598
24259W        W42463   4.331   3.244  11.213  0.2812 -0.0879 -0.2162
24260W        W42464   9.723   7.029  14.949 -0.0994 -0.1235  0.1794
24261W        W42465   0.387  18.670  12.078  0.1855  0.0291 -0.2885
24262W        W42466  18.483   9.441  10.775 -0.0320  0.0143 -0.1258
24263W        W42467   8.038  11.545  13.484  0.0058 -0.2241  0.2123
24264W        W42468  10.196  10.165   4.355 -0.0041 -0.0382  0.0870
24265W        W42469  17.624   1.271   2.201 -0.1752  0.0024  0.2041
24266W        W42470  17.774  16.327  12.012 -0.0055  0.0143 -0.1831
24267W        W42471  15.460  10.845   0.987  0.2737 -0.0619  0.1735
24268W        W42472   0.910   9.496   0.872  0.2702  0.0884  0.1494
24269W        W42473  10.243  17.642  14.516 -0.0975  0.0196  0.0001
24270W        W42474   8.461   0.167   3.807 -0.1510  0.4299 -0.0596
24271W        W42475   5.092  17.850  12.741 -0.0440  0.1834 -0.1523
24272W        W42476   5.394  14.729  11.643 -0.1700 -0.0062  0.1993
24273W        W42477  18.904  13.050  10.390 -0.1147 -0.1374 -0.2485
24274W        W42478  17.380   1.949   1.367 -0.2048 -0.0573 -0.1154
24275W        W42479   5.346  13.703   2.170  0.1541  0.1092  0.0907
24276W        W42480  11.393  13.240   2.783 -0.3023  0.2893  0.2259
24277W        W42481   7.543  13.224  13.070 -0.0900 -0.0410 -0.1202
24278W        W42482  15.456   6.722   1.308 -0.2770  0.2094 -0.0218
24279W        W42483  11.541   7.582   1.631 -0.0027  0.1082 -0.1036
24280W        W42484   2.909  15.880  10.424  0.1790  0.3442 -0.1092
24281W        W42485   1.274  11.466   0.891  0.0862 -0.1217 -0.1098
24282W        W42486  13.006   2.503   1.530 -0.1120  0.0410 -0.2087
24283W        W42487   5.089  11.844   4.941 -0.0971  0.0990  0.0849
24284W        W42488   0.711   5.726  12.746 -0.1589 -0.0471 -0.3133
24285W        W42489  18.621   9.099   1.176 -0.0385 -0.1599 -0.0152
24286W        W42490   2.814  17.271   4.433 -0.5241 -0.0006  0.2745
24287W        W42491  14.923  13.417   2.028 -0.2701  0.0766  0.0717
24288W        W42492   5.184  14.287  11.888 -0.2500 -0.4896  0.1579
24289W        W42493   9.056  13.541  13.398  0.0452  0.0465 -0.2737
24290W        W42494  15.869   1.639  13.918  0.0960  0.2479 -0.1954
24291W        W42495  13.359   5.943  14.910 -0.1950 -0.1187  0.2415
24292W        W42496   7.378   5.741   1.114 -0.1168  0.2808  0.1622
24293W        W42497  10.953  15.265   3.527  0.3651 -0.1940  0.2445
24294W        W42498  15.184  12.096   1.306  0.0866  0.4112  0.0321
24295W        W42499  17.110  14.590  14.684  0.1248  0.1046  0.0479
24296W        W42500  10.991  11.768   0.800  0.0454  0.1109 -0.1929
24297W        W42501   0.623  18.357   0.035  0.3237  0.0712 -0.0113
24298W        W42502   3.215  18.194  13.602 -0.3525  0.0887 -0.2568
24299W        W42503   4.759   7.511   0.408  0.1097  0.2630  0.0946
24300W        W42504  15.088   7.959  12.410 -0.0707 -0.1210 -0.2341
24301W        W42505   4.185   4.166   2.493 -0.0890 -0.0141 -0.0343
24302W        W42506  17.060  10.838   3.906  0.1870  0.0437 -0.0446
24303W        W42507   2.185  15.384  13.574  0.1011 -0.1926 -0.3236
24304W        W42508   3.355   8.383   3.984  0.2808  0.2186 -0.4449
24305W        W42509  11.098  10.910  10.108 -0.1954  0.0436 -0.0157
24306W        W42510   0.946  11.185   1.594 -0.1122  0.1618 -0.0362
24307W        W42511  17.050  12.020   3.375 -0.0802  0.1013 -0.0716
24308W        W42512  16.276   4.733   2.863  0.0003 -0.0246 -0.1186
24309W        W42513  10.347  18.391   2.641 -0.0353  0.0552  0.2062
24310W        W42514  13.017  13.624   2.559  0.0198  0.0059 -0.0970
24311W        W42515  10.370  15.667   1.806  0.4792  0.0931 -0.0069
24312W        W42516   1.882   8.273  14.601 -0.0880  0.3434  0.1659
24313W        W42517   6.171  11.177  13.328  0.1972 -0.3644 -0.0894
24314W        W42518   6.193   5.465  12.209 -0.2281  0.0847  0.0966
24315W        W42519   5.155  15.488  13.215 -0.2935  0.0671 -0.2252
24316W        W42520  10.656  12.960   0.365  0.0748  0.2889 -0.0764
24317W        W42521  18.320  17.077   0.936 -0.4152 -0.0479 -0.0332
24318W        W42522   8.666   2.135  12.248  0.3109  0.1991 -0.0155
24319W        W42523   6.780   5.943  11.929 -0.2343  0.0322  0.1392
24320W        W42524  14.305   1.223   2.366 -0.3144 -0.0519 -0.0543
24321W        W42525  15.673  14.193  10.552  0.1875 -0.0675 -0.1004
24322W        W42526   1.519  13.174  12.440 -0.0602  0.3032 -0.1786
24323W        W42527  10.632  17.408  12.846  0.1547  0.2506  0.1056
24324W        W42528   1.158  16.147   0.839  0.1848 -0.1382 -0.1210
24325W        W42529   5.125   6.335  11.069  0.0913 -0.1932  0.0624
24326W        W42530   2.670   1.015   2.451  0.0473  0.0584  0.3470
24327W        W42531   4.735  15.493   3.734  0.1616 -0.0581  0.0905
24328W        W42532  17.993   4.082  14.010 -0.1965 -0.3127  0.2561
24329W        W42533   3.523  12.691   3.167  0.1402 -0.2386  0.5628
24330W        W42534  15.524  16.266   3.573  0.1284 -0.1627 -0.1806
24331W        W42535   7.371  14.324   1.792 -0.3760 -0.3022  0.0066
24332W        W42536  11.322  11.133  12.616  0.0247  0.0815 -0.0548
24333W        W42537  18.585   3.686  12.802  0.2667  0.0793 -0.0458
24334W        W42538  17.346   9.560   3.362  0.0362 -0.0173 -0.0600
24335W        W42539  12.691   3.492   3.264  0.2817 -0.0398 -0.1343
24336W        W42540   9.366  13.008   3.046 -0.2136  0.0747  0.1858
24337W        W42541   3.733   8.009  13.112 -0.0348  0.0869 -0.2679
24338W        W42542   7.785   2.205  13.777  0.2528  0.1307  0.1767
24339W        W42543  12.492   9.260  13.979 -0.1022 -0.0820 -0.2327
24340W        W42544  13.053   4.271  13.452 -0.3192 -0.0461  0.1111
24341W        W42545  18.121  15.381   2.253  0.0173 -0.1275 -0.1554
24342W        W42546  11.807   2.405  11.143 -0.0342  0.0925  0.0304
24343W        W42547   8.147   1.366   0.407 -0.2623 -0.0493  0.2475
24344W        W42548  13.278  12.730   2.046 -0.0421  0.0945 -0.1161
24345W        W42549  13.309  15.315  12.729 -0.1828 -0.1748  0.1259
24346W        W42550  12.246   1.462   3.698  0.3829  0.2688  0.0866
24347W        W42551   5.504  14.674  13.050  0.0398  0.0589 -0.1882
24348W        W42552   2.979  16.335   0.303 -0.2396  0.0195 -0.2237
24349W        W42553  17.295  15.939   4.950  0.2309 -0.3498  0.2292
24350W        W42554  12.085  13.611  14.586  0.2037  0.3308 -0.2206
24351W        W42555  17.327   4.113  14.447 -0.0788  0.0559 -0.3266
24352W        W42556   5.253   2.271   4.448  0.1272 -0.1552 -0.1232
24353W        W42557  10.696   1.205   4.657  0.1436  0.1359 -0.1310
24354W        W42558  11.799   7.652  10.706 -0.1889 -0.1021  0.0613
24355W        W42559   2.490  15.061   1.549 -0.2726 -0.0278  0.0404
24356W        W42560  11.843   8.995  14.663 -0.0931 -0.4385 -0.0325
24357W        W42561  13.221  14.450   1.161 -0.2358  0.2071 -0.0097
24358W        W42562   2.320  15.032   0.108 -0.1390  0.0065  0.0656
24359W        W42563  10.325   5.380  14.231  0.1402  0.3258  0.1864
24360W        W42564  10.342  12.384   4.356  0.0980  0.1927 -0.1111
24361W        W42565   9.802   0.763   3.920  0.1738  0.0284  0.5231
24362W        W42566   5.308   6.918   4.519  0.0083 -0.1494  0.1316
24363W        W42567   5.079   6.048  13.551 -0.0268  0.2703 -0.2216
24364W        W42568  15.216  17.546   0.197 -0.1102  0.0398  0.3438
24365W        W42569  16.655  10.902   1.903 -0.0595 -0.0121 -0.2124
24366W        W42570  15.959  11.458   4.264  0.4228 -0.1470 -0.0852
24367W        W42571   1.198   6.101  13.397 -0.3106 -0.0364  0.0698
24368W        W42572   9.807   2.439  11.501 -0.3326 -0.1213  0.1025
24369W        W42573   0.030   9.440   1.089  0.3527  0.0508 -0.0131
24370W        W42574   3.942   6.733   2.485 -0.3284 -0.0673 -0.0991
24371W        W42575   8.305  17.304   2.881 -0.0534 -0.3603  0.1036
24372W        W42576   0.286  11.654   2.249 -0.2203 -0.0434 -0.2797
24373W        W42577  17.702   8.412   3.986 -0.2796 -0.2236  0.5180
24374W        W42578  14.782   9.706   0.982 -0.0411  0.0298  0.1629
24375W        W42579   8.529  11.671  13.422 -0.4677  0.0495  0.0648
24376W        W42580  12.478   5.738   4.426  0.2507  0.0949  0.0326
24377W        W42581  10.501   9.190   0.181 -0.0457 -0.1047  0.3346
24378W        W42582  12.985   5.146   0.915  0.3267  0.1341 -0.0674
24379W        W42583   0.126  12.431  14.693 -0.0717  0.0372 -0.0398
24380W        W42584  15.231  13.779   2.852 -0.0243 -0.0416 -0.1201
24381W        W42585   4.981   4.455   3.388 -0.1444 -0.2133  0.1137
24382W        W42586   6.668  17.395  12.362  0.3482 -0.2542 -0.0642
24383W        W42587  15.322   4.497   0.807 -0.0086 -0.3162 -0.2126
24384W        W42588  12.894   3.434   1.285  0.1398  0.0184 -0.2514
24385W        W42589  10.569  13.432   4.385  0.2175  0.3832  0.1943
24386W        W42590  18.130  15.038  10.448 -0.0369 -0.0627 -0.3710
24387W        W42591   3.315  16.124   0.570 -0.2044  0.0628  0.1189
24388W        W42592  12.302   3.459   2.511  0.0757  0.0857 -0.0165
24389W        W42593  12.135  12.668  12.263 -0.0133  0.3117 -0.0453
24390W        W42594  16.351  18.824   4.069  0.0097 -0.1842 -0.0594
24391W        W42595   5.494   1.872   0.870 -0.0166 -0.3959 -0.1962
24392W        W42596  15.063  17.671  12.869 -0.1783 -0.1252 -0.2132
24393W        W42597  12.139   0.224  12.491 -0.2177  0.2335 -0.1386
24394W        W42598   8.089  10.375  12.355  0.1052  0.1557  0.0391
24395W        W42599   0.343   6.174   0.377  0.3379  0.5189  0.1824
24396W        W42600  16.324   7.125   2.492  0.3696  0.0148  0.0162
24397W        W42601  11.634  17.307   3.175  0.0551 -0.2044  0.2065
24398W        W42602  10.877  12.126   1.188 -0.0947  0.3049  0.1380
24399W        W42603   7.949   6.691  12.422  0.0042 -0.2106 -0.1436
24400W        W42604   2.634  14.109  13.075  0.0801 -0.0933  0.1403
24401W        W42605   9.706  12.418  13.351 -0.3846 -0.0546 -0.3589
24402W        W42606   8.348   4.210  13.290  0.1337 -0.4120 -0.0244
24403W        W42607  18.635  18.383  11.482  0.1254 -0.0281  0.0149
24404W        W42608   8.457  15.506   3.775  0.2564 -0.1566  0.0097
24405W        W42609  12.535  13.467   0.067 -0.2789 -0.1777  0.0780
24406W        W42610   9.506   7.307  11.337 -0.2101  0.1540 -0.1911
24407W        W42611   3.594  10.314  11.845 -0.2710  0.1260  0.1511
24408W        W42612   6.670  16.856   0.991 -0.0403  0.3405 -0.0786
24409W        W42613   3.663   0.526  11.083  0.1793  0.0211 -0.2048
24410W        W42614  15.637   9.388  12.725  0.2725  0.1120 -0.1709
24411W        W42615  13.843  16.655  13.382 -0.2190 -0.0887  0.0307
24412W        W42616  18.027  13.281   1.991 -0.1205  0.0182 -0.1733
24413W        W42617   4.751  11.330  13.345  0.2541  0.2785 -0.1152
24414W        W42618  14.777   3.794   4.012  0.0359  0.1255  0.0444
24415W        W42619   4.806   0.677   0.828 -0.6315  0.1155 -0.0663
24416W        W42620   2.141   7.669  13.725 -0.1000  0.1964 -0.0061
24417W        W42621  16.668   9.198  10.221 -0.2289 -0.1186 -0.0849
24418W        W42622   1.750  11.375  11.650 -0.1065  0.1144  0.2527
24419W        W42623   7.064   8.869   3.824  0.4550 -0.1474  0.1017
24420W        W42624  11.171  10.079  13.369  0.2090  0.0926 -0.0224
24421W        W42625  12.645   4.393  12.538 -0.2469  0.4830 -0.0261
24422W        W42626   2.281   7.670  11.166 -0.5044  0.0002 -0.1512
24423W        W42627  14.706  17.957  10.474  0.1591 -0.1650  0.0684
24424W        W42628   2.821  13.837   1.445 -0.1205  0.0748  0.2068
24425W        W42629   5.719  10.472  14.585 -0.0185 -0.0239  0.1538
24426W        W42630   6.835  17.476  14.812  0.2518  0.0041  0.1590
24427W        W42631  14.609   8.574   1.781  0.0251  0.1691  0.0155
24428W        W42632   8.948   2.533  13.699 -0.4078 -0.0119 -0.2156
24429W        W42633  16.258   2.737   1.381 -0.2872  0.1139  0.1638
24430W        W42634   8.436   8.842   3.146 -0.3025 -0.2143  0.2042
24431W        W42635  16.632  17.876   4.295 -0.1521  0.0701  0.2772
24432W        W42636   2.052   7.114  10.867  0.2668  0.0376 -0.2638
24433W        W42637   0.100  12.400   1.207 -0.0462  0.0422  0.0101
24434W        W42638  17.024   0.572  11.349  0.4669 -0.0224 -0.0878
24435W        W42639  16.312  15.089  14.642 -0.0977  0.4037 -0.2363
24436W        W42640   3.196  10.485   1.938 -0.3220 -0.0956 -0.0826
24437W        W42641  12.442   3.414   4.787  0.1886  0.1101 -0.2107
24438W        W42642   8.417  14.181   2.079  0.1847  0.1532  0.0148
24439W        W42643   4.106   6.353   2.762 -0.0278 -0.0475 -0.1343
24440W        W42644   1.702   0.210  14.886 -0.4097  0.2731  0.2486
24441W        W42645   0.992  13.012  12.337 -0.2384  0.1332  0.1792
24442W        W42646  11.971   4.049   2.527 -0.0887 -0.2975 -0.2818
24443W        W42647   3.657  18.765  10.958 -0.0128  0.0809  0.3481
24444W        W42648  18.361  18.248  13.130 -0.0353  0.1230 -0.2158
24445W        W42649   8.086   2.491   5.394  0.2471 -0.1365  0.0023
24446W        W42650   3.156  10.229  11.545 -0.1287 -0.2004 -0.2140
24447W        W42651  12.763   9.431  14.852  0.3040  0.0984  0.2327
24448W        W42652   6.747   4.455   3.688  0.0805 -0.3028  0.0293
24449W        W42653   7.783   7.151   2.446 -0.0345  0.0796  0.2517
24450W        W42654  15.771   0.043  14.700 -0.0598 -0.0795  0.1241
24451W        W42655  10.471  18.228  12.520  0.2031 -0.1020 -0.2700
24452W        W42656  10.126  12.361  14.310 -0.2681  0.0407 -0.0129
24453W        W42657  11.659  15.283  11.206  0.2287 -0.1107  0.3592
24454W        W42658   5.616   1.473  11.547 -0.0357  0.1796 -0.1615
24455W        W42659   5.136  18.032   4.657  0.0408  0.1650 -0.0212
24456W        W42660   2.775  11.525   4.377  0.0555  0.0677 -0.0066
24457W        W42661  13.256  10.135   3.020  0.1742 -0.0892  0.1461
24458W        W42662   9.584  12.014  12.508 -0.3002 -0.0741 -0.1798
24459W        W42663   3.608   7.168  14.643  0.1145 -0.0172 -0.0602
24460W        W42664  15.632   0.376  12.726  0.0142  0.0262 -0.0984
24461W        W42665  14.097   1.008   1.119 -0.2122  0.1448 -0.2774
24462W        W42666  11.082  16.278   3.892  0.0198  0.0456  0.4258
24463W        W42667   3.260   9.557   2.680 -0.0020  0.0416 -0.2399
24464W        W42668   2.089   0.389   2.904 -0.1837  0.3683  0.4396
24465W        W42669  18.620  17.374   2.537  0.1585 -0.0202 -0.2865
24466W        W42670   5.746  10.710   0.533  0.0382  0.2419  0.0325
24467W        W42671   1.358  17.043  11.187  0.1470 -0.0717  0.0482
24468W        W42672   4.773   5.803   2.706  0.2392 -0.0130  0.3449
24469W        W42673  15.069  14.602  13.042  0.2783 -0.4168  0.0604
24470W        W42674  13.508  17.842  14.902  0.1923 -0.2970 -0.0331
24471W        W42675  18.545   0.954  14.594 -0.0694 -0.0411  0.2049
24472W        W42676  17.812  17.380   0.312 -0.2619 -0.1602 -0.0337
24473W        W42677   2.331  16.314  11.669 -0.1379  0.3796 -0.0520
24474W        W42678  15.434  16.461  14.364 -0.1095  0.1327 -0.0249
24475W        W42679  15.683   9.280  10.467 -0.2844 -0.2662 -0.0798
24476W        W42680  13.957   1.485   1.441 -0.0085 -0.1261  0.1382
24477W        W42681  14.870  13.373  12.063  0.0142 -0.1025 -0.0484
24478W        W42682  17.109  17.387   3.787 -0.2590 -0.0975 -0.2329
24479W        W42683  13.357  18.335   1.066  0.1017  0.1252  0.0270
24480W        W42684  14.507  17.346   2.547  0.0912  0.0536  0.0338
24481W        W42685   4.466   2.535  14.960 -0.3369 -0.1188 -0.0157
24482W        W42686  13.023  15.154   3.587  0.0526 -0.0848 -0.0098
24483W        W42687   4.087   2.639   2.012  0.2827  0.1266  0.1351
24484W        W42688   9.874   2.283  13.889  0.0278 -0.3224  0.1646
24485W        W42689   9.513   9.023  10.357  0.1821  0.1007 -0.1308
24486W        W42690  18.837   0.587   2.400  0.0480  0.0337  0.0403
24487W        W42691   4.827  11.008   5.004  0.3620 -0.0254 -0.2367
24488W        W42692  12.514  15.774  14.870  0.3383 -0.1649  0.3204
24489W        W42693   8.081  16.706  10.566  0.0970 -0.0081  0.0489
24490W        W42694   8.930   9.699   0.073  0.0547  0.2294  0.4114
24491W        W42695  17.606  16.322   4.198 -0.0085 -0.2893 -0.2963
24492W        W42696  13.578  11.509   1.026 -0.2798 -0.1218 -0.0831
24493W        W42697   1.162   2.388   2.164 -0.0926 -0.2409 -0.0840
24494W        W42698  18.159   6.231  14.724 -0.2406  0.0113  0.1839
24495W        W42699   9.582  11.464  13.319  0.2620  0.1817 -0.1581
24496W        W42700  17.785   0.411   2.424  0.2805  0.0300  0.2697
24497W        W42701  11.689   6.374  14.349  0.0628  0.1283  0.0744
24498W        W42702   0.877   5.369   3.717 -0.2705 -0.1221 -0.0628
24499W        W42703   6.306  13.928  14.030 -0.2413  0.1114  0.1384
24500W        W42704   8.964  13.905  13.916 -0.1407 -0.1193  0.0597
24501W        W42705  11.260   2.157   3.226 -0.0065 -0.0776  0.3349
24502W        W42706   6.183  10.058   1.121  0.3837  0.2048  0.1690
24503W        W42707  14.205   4.442   9.697 -0.0458  0.2048  0.2394
24504W        W42708   5.626   7.664  13.748 -0.2487 -0.2297  0.3313
24505W        W42709  18.656   2.678  12.035 -0.4263  0.0684 -0.2370
24506W        W42710   4.393  18.782   3.820 -0.1004 -0.2827  0.2767
24507W        W42711   5.047  14.017  12.735  0.1660  0.0645  0.4231
24508W        W42712  12.029   2.453   4.248 -0.1460 -0.1647 -0.0198
24509W        W42713   1.980  11.169   3.626  0.0256 -0.3350 -0.2493
24510W        W42714  15.448  15.911   5.146  0.2944 -0.0898  0.1116
24511W        W42715   6.888   2.566   0.859  0.2392  0.4152 -0.0085
24512W        W42716   4.929   2.678  13.936 -0.0083  0.0322  0.1561
24513W        W42717   5.080  14.093   1.962 -0.1181 -0.1205  0.3151
24514W        W42718  15.326  13.955   0.866 -0.2455  0.1941  0.0590
24515W        W42719   5.181   3.891   3.266 -0.2571 -0.2329 -0.2149
24516W        W42720  17.099   2.693   1.899  0.0187  0.1240 -0.1420
24517W        W42721  12.325   0.512   2.120  0.0175  0.2193  0.2591
24518W        W42722  12.525  14.768   4.215 -0.1398 -0.2055 -0.2739
24519W        W42723   6.482   3.638   3.128  0.3377 -0.3229  0.0125
24520W        W42724  11.676  13.094   3.955  0.1765 -0.1732 -0.0364
24521W        W42725  10.093   4.588  14.296  0.2016  0.1294 -0.0109
24522W        W42726   0.386  14.863  10.534 -0.2399 -0.0764 -0.1399
24523W        W42727   4.927  16.111  12.087  0.2571  0.0117  0.1207
24524W        W42728  10.177  16.187  11.625  0.0292  0.1455  0.0659
24525W        W42729  12.624  13.918  12.010  0.0472 -0.1677 -0.0813
24526W        W42730   9.697   7.802   4.401 -0.1490  0.2596 -0.0769
24527W        W42731   2.275  14.480  13.939  0.0719 -0.2160  0.1961
24528W        W42732  15.809   0.605  11.418 -0.0199  0.1469  0.2211
24529W        W42733  18.535   9.286   5.095 -0.0926  0.1210  0.2640
24530W        W42734   8.817  16.869   4.486 -0.2091 -0.1120 -0.1689
24531W        W42735  17.070  11.866   2.650  0.0411 -0.0549 -0.2285
24532W        W42736  14.441   3.084  12.800 -0.1427  0.0890 -0.1767
24533W        W42737  10.232   1.171   3.331 -0.1264  0.1479 -0.0034
24534W        W42738   9.753  16.853  11.064  0.1303 -0.0818  0.0646
24535W        W42739  18.002  16.718   0.850  0.1703 -0.1109 -0.1730
24536W        W42740  18.121   5.772  11.788 -0.3391  0.1394 -0.1986
24537W        W42741   4.030  17.731  13.507  0.1474  0.3181  0.0787
24538W        W42742   3.280  14.790  11.131  0.1639  0.2767 -0.1909
24539W        W42743  17.765  13.363  10.012 -0.0129  0.2817  0.3381
24540W        W42744  10.881  13.069   1.649  0.2701 -0.2490  0.0100
24541W        W42745   0.670   5.721  12.253  0.0286  0.2060 -0.2922
24542W        W42746   6.905   8.972  13.735  0.3299  0.1179  0.1031
24543W        W42747   6.585  15.318   1.893  0.4035 -0.1372 -0.1914
24544W        W42748   2.050  18.876  13.016 -0.1143  0.0220 -0.1469
24545W        W42749   3.460  13.042   3.460  0.2189  0.1505  0.1673
24546W        W42750  13.674   4.635  13.305 -0.2292  0.0928  0.2029
24547W        W42751  13.184   3.498  10.952  0.2745 -0.1136  0.3336
24548W        W42752  15.937  15.231  12.689  0.2798 -0.2532  0.0323
24549W        W42753  10.962   1.881   1.357 -0.2393  0.2126 -0.2128
24550W        W42754  17.122  16.755   1.349 -0.4224 -0.1719  0.0158
24551W        W42755   0.330   1.831   0.191  0.6582  0.0255 -0.0059
24552W        W42756  12.617   3.340  10.929 -0.1186 -0.0819 -0.2705
24553W        W42757  15.341  12.848   4.624 -0.2909  0.1121  0.1797
24554W        W42758  10.519  13.224  14.197  0.0171  0.4983 -0.1344
24555W        W42759   0.227   0.578   2.062  0.2278  0.0001 -0.2187
24556W        W42760  12.004   0.672  12.678 -0.0156  0.1572  0.3999
24557W        W42761   2.829   5.555  11.514  0.1545  0.1319 -0.2721
24558W        W42762   4.306   0.187  13.818  0.0030  0.2150  0.0633
24559W        W42763  11.275  16.164  11.000 -0.0837 -0.3238  0.2313
24560W        W42764  14.556  18.843  12.526  0.0806 -0.0002  0.1600
24561W        W42765   7.847   7.773  13.576 -0.2467  0.3431 -0.0865
24562W        W42766   6.874  13.480   1.355 -0.4164  0.0947  0.1384
24563W        W42767  13.947  16.464  14.530  0.1604 -0.0851  0.2185
24564W        W42768   2.168  14.730  12.405  0.0775  0.0930 -0.0357
24565W        W42769  13.141   0.105   1.336 -0.0044 -0.4442  0.0187
24566W        W42770   7.310   3.611  12.015  0.0737  0.0452 -0.0499
24567W        W42771   5.690   7.532   3.095 -0.2070  0.2778  0.0937
24568W        W42772   2.998   8.175  13.249 -0.1609  0.0362 -0.1753
24569W        W42773   5.269   8.791  13.443 -0.2632  0.3511  0.3112
24570W        W42774   1.221  11.333   4.290  0.0413 -0.2475  0.1186
24571W        W42775  15.098   6.596  12.206 -0.3527 -0.0693 -0.0568
24572W        W42776   4.217  15.328  14.973 -0.3284  0.1854 -0.1819
24573W        W42777   3.724   2.922   0.323 -0.2560  0.2195  0.1084
24574W        W42778  12.223   5.760  10.818  0.1764 -0.0630  0.4916
24575W        W42779  11.267   6.570   0.807 -0.2797  0.2115 -0.3243
24576W        W42780   2.019  17.565   1.523  0.2515  0.1418  0.2796
24577W        W42781   9.578  12.165   2.061  0.0306  0.1755  0.1488
24578W        W42782   8.361  11.607   0.394  0.4781 -0.0094  0.2132
24579W        W42783   2.869  16.029  12.763  0.2348 -0.2892  0.4540
24580W        W42784  18.131   1.208   3.823  0.5140 -0.1110  0.0926
24581W        W42785   7.148   4.684  11.385  0.2037  0.1655  0.2744
24582W        W42786   5.243   2.102   3.469  0.0390  0.0824 -0.1937
24583W        W42787   0.983  18.476   5.469  0.4234  0.0267  0.0793
24584W        W42788   4.544  11.846   0.582 -0.0326 -0.0481  0.1331
24585W        W42789  14.395   8.989  12.803 -0.1047  0.4208  0.1326
24586W        W42790   8.169   6.579  14.786  0.0017 -0.0012  0.3258
24587W        W42791   6.710  16.396   4.372 -0.1515  0.0730  0.1238
24588W        W42792   7.195   9.746  14.829 -0.0805 -0.0518 -0.3064
24589W        W42793  18.748   7.845  10.330  0.0011 -0.0673  0.1197
24590W        W42794  12.516   6.389  12.534 -0.1524  0.1079  0.1795
24591W        W42795   2.494   5.310  12.747  0.3257  0.1257  0.0372
24592W        W42796  10.628   5.990  11.554 -0.0701 -0.0646  0.2802
24593W        W42797   6.891   6.543  13.340  0.2169 -0.0808 -0.1334
24594W        W42798  10.715   7.640   1.118  0.0780 -0.1423 -0.1673
24595W        W42799   0.336   9.588  13.762  0.0113 -0.0285 -0.0622
24596W        W42800  16.238  16.751   0.797 -0.1320 -0.0898 -0.2378
24597W        W42801  12.417   2.887  11.725  0.0134 -0.2455  0.1390
24598W        W42802  13.826   0.534   1.646  0.1621  0.2196  0.1937
24599W        W42803   8.868   0.317   5.157 -0.0049  0.0830  0.0630
24600W        W42804   6.131  14.350  11.987  0.2703  0.1833  0.1749
24601W        W42805   6.645   1.203   4.720 -0.4147 -0.2962 -0.1151
24602W        W42806  18.092   0.131  13.494  0.3100  0.2335  0.0923
24603W        W42807  18.295  17.643  13.848  0.4273 -0.2746  0.0743
24604W        W42808   4.569   7.142  14.539 -0.0569  0.1880  0.0145
24605W        W42809   9.458   2.064   2.704  0.2802 -0.2764 -0.0154
24606W        W42810   2.711  17.788   3.446 -0.0940  0.2739  0.2521
24607W        W42811  17.613   1.396  10.656 -0.1064 -0.0868  0.0940
24608W        W42812   4.873  10.844  10.464  0.0026 -0.1400  0.2498
24609W        W42813   5.942   9.881   2.272  0.0142 -0.0536 -0.0960
24610W        W42814  12.792   8.485  11.056 -0.0401 -0.1218  0.0712
24611W        W42815  15.195  11.309   5.028  0.1253  0.2430 -0.1399
24612W        W42816   9.468  14.392   0.431 -0.1361 -0.1238 -0.0238
24613W        W42817   4.689  18.158  14.605  0.2262 -0.3951 -0.0771
24614W        W42818   5.134   3.925  13.126  0.1444 -0.1125 -0.3481
24615W        W42819   4.020  16.136   3.206 -0.1850 -0.3569 -0.2323
24616W        W42820  18.028  12.227   5.345  0.0382  0.1989 -0.2589
24617W        W42821  11.122  18.273  11.866  0.1478 -0.0430 -0.0594
24618W        W42822  15.308  18.081   3.772 -0.1171 -0.3375  0.3693
24619W        W42823  17.223   1.099  10.754 -0.0047 -0.0553 -0.1530
24620W        W42824   6.006  10.894   1.785  0.3009 -0.1072 -0.3417
24621W        W42825  18.410  16.238   4.899 -0.1160 -0.2300 -0.1162
24622W        W42826   1.715  14.551  11.658 -0.3534 -0.0556 -0.3182
24623W        W42827   9.072   5.930   2.590 -0.0311  0.1114  0.4119
24624W        W42828   1.923  17.998  10.797 -0.1247 -0.1355  0.3340
24625W        W42829   9.573  18.546  12.604  0.3697 -0.0115  0.0988
24626W        W42830   7.708   0.417  14.473  0.2173  0.3769  0.1831
24627W        W42831  14.882   1.471  12.415 -0.1270 -0.0440 -0.0238
24628W        W42832   5.812   1.113   4.155 -0.0686  0.6567  0.3936
24629W        W42833  18.432  10.817   1.966  0.1414 -0.1075  0.1802
24630W        W42834   7.758   4.713   2.788 -0.1018 -0.0759 -0.4289
24631W        W42835   6.696   8.321   0.791 -0.1687  0.2431 -0.5928
24632W        W42836  12.872   5.328  14.514  0.3602  0.1430  0.2696
24633W        W42837   3.480   3.058   1.974  0.1073  0.1897 -0.1360
24634W        W42838   6.888   7.454  14.494 -0.0107  0.1207 -0.1222
24635W        W42839  18.375  10.889  13.189 -0.1463  0.0686 -0.1181
24636W        W42840  18.946   9.008  11.645 -0.0895  0.0876 -0.1223
24637W        W42841  18.228  11.949  12.309 -0.0777  0.0496 -0.2131
24638W        W42842   7.387  14.069  13.531 -0.2491 -0.0717 -0.1425
24639W        W42843  15.259   2.430  12.965  0.0221  0.0828 -0.2275
24640W        W42844   9.138   3.790   2.808  0.0862 -0.0054 -0.0354
24641W        W42845   0.773  18.286  13.275 -0.0720 -0.3762  0.1759
24642W        W42846  17.655  15.362   1.928  0.0256 -0.2269  0.0505
24643W        W42847   8.098   2.417   2.101  0.2690  0.1509  0.1137
24644W        W42848  13.424   0.769   2.484  0.1905 -0.0481 -0.0848
24645W        W42849  10.405   2.386   2.873  0.1552  0.1148 -0.1329
24646W        W42850   1.542  10.101   1.259  0.0899 -0.2753  0.1065
24647W        W42851   2.032   2.424  12.289 -0.1735 -0.2110 -0.0562
24648W        W42852  17.584  13.318  11.231 -0.2055 -0.0947 -0.1031
24649W        W42853  13.782   5.225  10.352 -0.2070 -0.0486  0.0923
24650W        W42854  17.663  12.098  13.667  0.0081 -0.0584  0.2383
24651W        W42855   1.556   7.167   0.326 -0.2329  0.0824 -0.1824
24652W        W42856   0.511  18.915  13.735  0.0916 -0.2298  0.3786
24653W        W42857   0.729   6.851   2.888 -0.1766  0.3566 -0.0272
24654W        W42858   8.812   8.584   0.667  0.3847 -0.0927 -0.0646
24655W        W42859  13.037  14.862  10.977 -0.4238 -0.0687  0.0746
24656W        W42860  13.766  11.218  10.864  0.0760  0.3261  0.0051
24657W        W42861  17.398  17.990  11.620  0.2577  0.1783 -0.4257
24658W        W42862   4.025  15.679  11.810 -0.0767  0.1043 -0.3938
24659W        W42863   4.498   9.513  14.983 -0.0027  0.1837 -0.0176
24660W        W42864   5.757  17.523  13.367 -0.0208  0.0206  0.0583
24661W        W42865   8.606   6.647  12.924  0.1068 -0.0265 -0.1175
24662W        W42866  18.757  13.941  10.510 -0.0363  0.0433  0.0476
24663W        W42867   6.151  14.332  14.239  0.3905  0.3012  0.1688
24664W        W42868   7.191  18.953  13.186  0.1099  0.1539 -0.2302
24665W        W42869   7.148   8.492   3.241  0.0093 -0.1288  0.1658
24666W        W42870  17.764   3.120  11.770 -0.2792 -0.0860 -0.0426
24667W        W42871  11.263   7.005  11.249 -0.0982  0.1884 -0.1154
24668W        W42872  16.061  18.119  13.043  0.0857  0.1783  0.0453
24669W        W42873  16.650  16.603  10.700 -0.1025  0.2229  0.0002
24670W        W42874   5.630  12.935   0.306  0.0037 -0.1754  0.0180
24671W        W42875   5.239  10.930   3.657  0.4129  0.0949  0.0106
24672W        W42876  18.461   2.184   3.321 -0.2033 -0.0096 -0.0428
24673W        W42877   4.762   9.147   2.114 -0.2244  0.2457  0.1569
24674W        W42878   7.544   6.305   0.848 -0.1278  0.1649  0.0696
24675W        W42879   7.059  11.824  11.354  0.0028  0.1037 -0.3757
24676W        W42880   4.807   2.107  11.512 -0.1205  0.2451 -0.0366
24677W        W42881   5.566   2.987  11.461 -0.1724 -0.0206  0.0382
24678W        W42882   8.070  10.144   0.033  0.0888 -0.1716 -0.0877
24679W        W42883   8.789   5.236   2.509  0.1474 -0.0063 -0.0313
24680W        W42884  14.150   5.480   4.665  0.0141 -0.1787  0.0033
24681W        W42885   2.663   0.936  11.105  0.1700  0.0597  0.0695
24682W        W42886  14.635  11.354   2.521  0.0096 -0.3313  0.1975
24683W        W42887  17.021  15.975   3.646 -0.0785  0.1937  0.1030
24684W        W42888  15.348   2.284   0.004  0.3121  0.1614  0.1205
24685W        W42889   8.669   5.161   1.010 -0.1047 -0.0580  0.0943
24686W        W42890   8.708   4.798  14.620 -0.0164 -0.0514  0.1572
24687W        W42891  14.110   3.347   3.433 -0.1502 -0.0706 -0.1173
24688W        W42892  17.858   1.217   2.732 -0.3354 -0.1699  0.0842
24689W        W42893   2.234   0.356  13.714  0.0581  0.1777  0.0037
24690W        W42894  16.627   4.337  12.969 -0.1939  0.2782  0.1135
24691W        W42895   1.036  16.937  11.649  0.1061 -0.5650  0.1456
24692W        W42896   7.145   4.017  11.787  0.2314  0.2053 -0.0483
24693W        W42897  17.591  13.808  14.941  0.0581 -0.0048  0.0339
24694W        W42898   1.527   0.396   0.732 -0.2084  0.0624 -0.0616
24695W        W42899  15.553   6.358  12.930 -0.1958 -0.0047 -0.3494
24696W        W42900  18.360  15.941   2.246 -0.2993  0.2394 -0.1365
24697W        W42901   2.736   7.151   4.322  0.2286  0.2612  0.2375
24698W        W42902  18.754   7.165   2.069  0.1329  0.0392  0.1286
24699W        W42903  12.848  17.781  11.559 -0.1159  0.2236  0.4046
24700W        W42904   8.864  12.059  12.454 -0.0125 -0.3056  0.1752
24701W        W42905   1.530   7.118  13.971  0.0462 -0.0601  0.2620
24702W        W42906   6.471  17.412   3.826 -0.3443 -0.2876 -0.0625
24703W        W42907   8.479   8.097   1.335 -0.0410  0.0163  0.1495
24704W        W42908   3.712  11.968  12.342  0.1323 -0.2325 -0.0276
24705W        W42909  14.729   5.268   0.685  0.1519  0.3410 -0.4376
24706W        W42910  13.353   1.287  13.029  0.3098  0.2476  0.3068
24707W        W42911   9.334  12.200   2.491 -0.0712  0.1612 -0.0249
24708W        W42912   6.834  17.897   3.710  0.1350 -0.1151  0.0440
24709W        W42913  10.589  13.456   0.190 -0.0936  0.0459 -0.2979
24710W        W42914  15.399   6.556   2.519 -0.2634  0.3647  0.1027
24711W        W42915   0.372   1.969   0.697 -0.1487 -0.0231 -0.0216
24712W        W42916   5.121   6.029  10.619  0.0997  0.0681  0.2162
24713W        W42917  18.678   3.812   1.856 -0.4350 -0.0867 -0.1229
24714W        W42918   2.716   9.552  12.118  0.0760  0.2377  0.2598
24715W        W42919   5.253  11.509  12.551 -0.0472  0.2476  0.1972
24716W        W42920   4.419  16.858  11.618  0.1365 -0.1643 -0.0310
24717W        W42921   0.714  17.400   5.509 -0.1463 -0.0677 -0.1961
24718W        W42922   1.408   9.452   1.089  0.3849 -0.1673  0.1734
24719W        W42923   2.469  17.031  13.266  0.2600  0.1836  0.0390
24720W        W42924   3.272  10.068  10.534  0.0494 -0.1184  0.2679
24721W        W42925  17.826  11.088  13.189  0.2488  0.0464 -0.0116
24722W        W42926  12.991   0.165  12.615 -0.2756 -0.1938 -0.3245
24723W        W42927   1.865   4.797  13.007  0.0532  0.0369  0.1199
24724W        W42928  16.560   8.602   2.770 -0.0662  0.2060  0.0818
24725W        W42929   0.790   1.620  14.646 -0.0620  0.0617 -0.0839
24726W        W42930  14.023  16.444   1.758 -0.2849  0.1204  0.1012
24727W        W42931  15.530   6.853   0.244  0.1916 -0.2159  0.0641
24728W        W42932  14.781   1.776   2.528  0.0062 -0.4253 -0.1204
24729W        W42933  16.415   6.646   1.114  0.1497  0.0811 -0.2383
24730W        W42934   1.642  18.478  13.144  0.0861  0.1068 -0.0233
24731W        W42935  16.051   6.730   0.151  0.1621  0.1767  0.0855
24732W        W42936  18.144   0.735  14.220  0.0274 -0.2978  0.1269
24733W        W42937   2.904  12.708  14.368  0.0897  0.2307  0.0991
24734W        W42938  10.642  11.133  11.637 -0.2103  0.2415  0.1056
24735W        W42939   0.260   8.957   0.719 -0.1483  0.0279 -0.1732
24736W        W42940   4.464  18.541   4.655  0.2373 -0.1564  0.1015
24737W        W42941   5.254  14.682  10.953 -0.3339  0.0625  0.3013
24738W        W42942  15.791  16.582   3.178 -0.0117  0.1169 -0.0051
24739W        W42943   8.909  11.270  11.924 -0.0762 -0.0919 -0.1566
24740W        W42944  13.220  18.553  14.651 -0.1481  0.1347  0.0182
24741W        W42945   8.578  14.336   1.576 -0.3195  0.1736  0.3094
24742W        W42946   6.135   1.059  12.461 -0.2427 -0.0391  0.3201
24743W        W42947  11.431   9.135  12.233  0.0976 -0.1762  0.2415
24744W        W42948  11.377   5.923   3.571 -0.0894  0.3060  0.0405
24745W        W42949   7.612   7.917   1.246 -0.1415 -0.1378  0.0795
24746W        W42950   0.065  11.631  10.998 -0.1931  0.2442  0.1414
24747W        W42951   9.921   0.214  13.830  0.1797 -0.0839  0.0440
24748W        W42952  13.034  14.494  11.316 -0.4096 -0.1369 -0.0441
24749W        W42953   6.168   5.080   3.830  0.0664  0.1129  0.0425
24750W        W42954  16.282  16.829  14.710 -0.4400 -0.1009 -0.1639
24751W        W42955  16.465  14.683   2.411  0.1603  0.3038 -0.2384
24752W        W42956   1.496   2.759  12.721 -0.1279 -0.0866 -0.1527
24753W        W42957   8.275   2.442  12.928 -0.4428  0.0337  0.1751
24754W        W42958   8.876   1.575  10.668 -0.2058  0.3432 -0.2000
24755W        W42959   6.724  14.432   4.425 -0.0766  0.2828 -0.0457
24756W        W42960   0.622   1.982  12.522  0.3199  0.2590  0.1541
24757W        W42961  15.089  17.451  14.515 -0.3707 -0.1418 -0.3620
24758W        W42962  14.346   9.166  13.717  0.3107 -0.1015 -0.4622
24759W        W42963  18.008  16.715   2.719  0.1193  0.1003  0.1461
24760W        W42964   4.424  18.860  13.213  0.1009 -0.1882 -0.0873
24761W        W42965  18.309  17.720   3.047  0.2889  0.2229 -0.1784
24762W        W42966  13.502  17.325   3.562  0.1941  0.0226 -0.0320
24763W        W42967  17.727  14.482  11.591  0.1096  0.1651 -0.1216
24764W        W42968   7.006   7.164  14.942  0.1720 -0.1473 -0.0442
24765W        W42969  14.792  17.075  10.801 -0.0552 -0.0306  0.1499
24766W        W42970   1.403   2.540   4.223  0.0177 -0.2029 -0.0912
24767W        W42971  17.464  14.140  13.416  0.2260  0.2933  0.1332
24768W        W42972  15.201   6.234  12.578 -0.1699  0.1746 -0.1422
24769W        W42973   9.209  14.920   4.400 -0.0878  0.0024  0.1573
24770W        W42974   7.449   2.426   0.646  0.0974  0.1148 -0.1106
24771W        W42975  12.851  14.079   1.168 -0.1467 -0.0438 -0.2674
24772W        W42976  13.499  15.217  11.189 -0.0417 -0.0199 -0.1509
24773W        W42977  13.083  12.139  10.918  0.1670 -0.0728 -0.0662
24774W        W42978  16.747   7.123   1.741 -0.0367 -0.1430  0.0890
24775W        W42979  15.447  16.591  10.688  0.0347 -0.1951  0.1715
24776W        W42980  18.667   5.723   2.649  0.1017 -0.3230 -0.0564
24777W        W42981   4.969   3.443   0.062 -0.3025 -0.2566 -0.1744
24778W        W42982   0.423   4.439   4.312 -0.2192  0.2450  0.2338
24779W        W42983   8.359   1.386  14.810 -0.2035 -0.1409  0.3953
24780W        W42984   5.433  13.978   4.629 -0.0091  0.1926  0.2511
24781W        W42985   0.037   0.746  11.117  0.0325 -0.0268  0.1422
24782W        W42986   4.221   6.822   0.631 -0.0924  0.0844 -0.3715
24783W        W42987   5.477  13.341  12.505  0.0995  0.0564 -0.0308
24784W        W42988  12.135  18.050  13.984 -0.1671  0.0740  0.0455
24785W        W42989   8.684   7.704   4.355 -0.0549 -0.1753 -0.1617
24786W        W42990   3.624  18.469   2.686 -0.1523 -0.2679  0.1818
24787W        W42991   6.890   9.360  11.946 -0.0382  0.1368  0.2627
24788W        W42992  14.532  15.569   1.685 -0.1834  0.2221 -0.1056
24789W        W42993  11.189  14.695  12.521 -0.0997 -0.0145  0.1371
24790W        W42994  10.236   1.075   4.360 -0.0307 -0.0056 -0.2111
24791W        W42995   7.205  13.190  10.044  0.1299  0.4262 -0.1662
24792W        W42996  13.093  10.105  13.550 -0.3269 -0.0508 -0.0460
24793W        W42997   5.599   5.002  11.951 -0.1935 -0.0894  0.1245
24794W        W42998  17.869   8.737   3.041 -0.1435 -0.1481 -0.1085
24795W        W42999  11.950   5.621  14.415 -0.1743 -0.0078  0.2418
24796W        W43000   6.240  16.745  14.543 -0.0083  0.1638  0.2035
24797W        W43001   9.517   9.650  13.397 -0.0475  0.0217  0.0185
24798W        W43002  17.629  14.517  11.073 -0.0650  0.0631 -0.1330
24799W        W43003   9.479  18.146  12.889  0.1822 -0.0006 -0.0423
24800W        W43004   6.207   6.893  12.585  0.0854 -0.0735  0.0546
24801W        W43005  15.155  11.054  10.764 -0.1137  0.2773  0.0118
24802W        W43006   6.913  13.599  14.733  0.2068 -0.0761  0.0631
24803W        W43007   1.138   5.569  13.185  0.0071 -0.0961  0.4949
24804W        W43008  11.873   3.653  10.845 -0.3611  0.1233 -0.0267
24805W        W43009  13.271   3.136   0.271 -0.2306  0.2849  0.0169
24806W        W43010   9.993   1.824   2.337  0.0977 -0.1313 -0.2214
24807W        W43011   1.246  13.806  11.758 -0.1880  0.1231  0.1471
24808W        W43012  10.526  11.547   2.379 -0.1368  0.0055 -0.0479
24809W        W43013  17.681   8.847  14.238 -0.2757  0.0760  0.2325
24810W        W43014   3.020   0.863   3.891 -0.1572 -0.1708  0.4278
24811W        W43015   3.544   7.333  11.692  0.0235 -0.3089 -0.0861
24812W        W43016   7.142  17.086  14.838 -0.2328 -0.0757 -0.1352
24813W        W43017   8.094   6.917  11.933 -0.0574 -0.0360  0.1374
24814W        W43018  16.913   6.056  14.139 -0.2195  0.0372  0.0954
24815W        W43019   7.618   7.616   3.667 -0.3482  0.0234  0.2463
24816W        W43020  18.118   4.622   1.641 -0.1662  0.1265 -0.1873
24817W        W43021  11.272  11.155   0.105  0.1999  0.4234 -0.0181
24818W        W43022  12.017  17.968   0.076  0.0179 -0.1319  0.2099
24819W        W43023   5.660  17.899  12.679 -0.1475  0.0066  0.1901
24820W        W43024   5.196   6.444  13.266 -0.1877 -0.1479  0.2433
24821W        W43025  18.384  16.904   3.659 -0.1574 -0.2276 -0.0049
24822W        W43026   7.783  16.631   4.039  0.0383 -0.2241  0.2020
24823W        W43027  15.521  10.556   1.375 -0.2092 -0.1431  0.0974
24824W        W43028  12.915   8.837  14.986  0.1564 -0.0468 -0.4789
24825W        W43029  18.886  16.542   1.625 -0.1670 -0.2195  0.1765
24826W        W43030  16.313   0.683  11.349  0.0149  0.3225  0.4521
24827W        W43031  10.786  17.828   0.891 -0.4895  0.4569 -0.1116
24828W        W43032  17.159   0.150   0.846  0.0102  0.2269  0.1092
24829W        W43033   0.259  15.669  14.707  0.1867  0.0796  0.0355
24830W        W43034  10.831   7.791  13.211 -0.0633  0.0206  0.1556
24831W        W43035   2.525   0.475  12.448 -0.0188 -0.0171  0.0425
24832W        W43036  14.308   7.764  13.452 -0.3036  0.0475  0.1334
24833W        W43037  10.693   1.329   4.220 -0.0734 -0.3025 -0.1128
24834W        W43038   8.461  11.410   0.861  0.2323  0.2338  0.1354
24835W        W43039  14.441   0.946   1.964 -0.1113 -0.0094  0.0868
24836W        W43040   0.359   7.827   4.289  0.1479  0.0906 -0.2040
24837W        W43041   7.402   4.128  14.867  0.0453 -0.2777  0.3412
24838W        W43042   2.310   7.720   0.824 -0.3811  0.2860 -0.0756
24839W        W43043  10.413  10.680  10.871 -0.3343  0.0760 -0.2295
24840W        W43044   7.319  13.339   4.347  0.0437  0.3475  0.1373
24841W        W43045   4.398  13.005  10.266 -0.1320  0.2711  0.0773
24842W        W43046   3.395   8.793   4.471  0.0999 -0.1311  0.1290
24843W        W43047   9.297   6.842  11.133 -0.2656 -0.2306  0.3838
24844W        W43048   3.261   6.187   1.362  0.0826 -0.2183 -0.4473
24845W        W43049  13.682  15.311   2.556  0.1212  0.2899  0.0508
24846W        W43050  11.651   0.500   0.023  0.0454 -0.2935  0.0583
24847W        W43051  12.945  10.385  15.006 -0.3604 -0.0842 -0.4757
24848W        W43052   0.889   7.450  11.561  0.0873 -0.0939 -0.2636
24849W        W43053   2.509  14.989   0.998  0.0647 -0.2961 -0.0367
24850W        W43054   1.506   5.442  12.313 -0.0284 -0.0478 -0.0354
24851W        W43055   8.010  15.860   0.739  0.3753 -0.0911 -0.0725
24852W        W43056  16.533   8.186  10.793 -0.2075  0.1505  0.1672
24853W        W43057  12.371   0.839  14.453  0.2612  0.1446  0.0067
24854W        W43058   3.142  11.007  11.676 -0.0615  0.3765  0.0552
24855W        W43059   8.775   1.639   0.259  0.0590 -0.2443  0.1399
24856W        W43060  17.262   3.335  12.738 -0.0692  0.1306 -0.0311
24857W        W43061  16.316   5.373   3.616 -0.1066 -0.0887 -0.0207
24858W        W43062  14.957  13.723  13.186 -0.1105 -0.0164 -0.0432
24859W        W43063  14.609   0.336  12.930  0.2651 -0.0018  0.4670
24860W        W43064   3.596  14.785  13.547 -0.0870 -0.1001  0.0428
24861W        W43065  17.357   7.997  11.587  0.1108  0.0390 -0.0690
24862W        W43066   2.228  10.419   2.802 -0.1006 -0.1998  0.0176
24863W        W43067   0.193   4.174   2.112 -0.1253  0.4051 -0.1398
24864W        W43068  18.853  18.431  14.524  0.0635  0.0290 -0.0166
24865W        W43069   3.852   8.857  12.897 -0.1182 -0.2788  0.2090
24866W        W43070   4.436   5.110  10.568 -0.0171  0.2336  0.2913
24867W        W43071   1.765  16.834  14.799  0.0835  0.0414  0.0730
24868W        W43072   4.215   7.278   3.581 -0.0887  0.0021  0.1704
24869W        W43073  18.299   4.997   3.404  0.0199 -0.0771 -0.2220
24870W        W43074   2.087   7.230  11.333 -0.3587  0.1451 -0.0842
24871W        W43075   5.372   3.376  11.782  0.0450 -0.1797  0.6597
24872W        W43076  12.173  12.417   3.444 -0.1560 -0.1354 -0.2542
24873W        W43077   5.783   6.847   0.227  0.0469 -0.0141 -0.2186
24874W        W43078  10.282   5.895   1.084  0.1526 -0.1152  0.1187
24875W        W43079   6.704   0.181  14.464  0.0295  0.0830 -0.2255
24876W        W43080  16.262  15.548   0.282  0.0288 -0.0231  0.2637
24877W        W43081  11.166   9.599   3.833 -0.0255  0.2014 -0.1606
24878W        W43082  11.556   4.844  13.176  0.2564 -0.1828 -0.1641
24879W        W43083  17.888  11.627  13.488  0.1976 -0.0304 -0.3967
24880W        W43084   4.110  10.327  14.703 -0.1026 -0.1319 -0.1950
24881W        W43085   4.191  13.657  12.526  0.0322  0.0631  0.3581
24882W        W43086  10.053   1.403  14.835  0.4032 -0.0079  0.0357
24883W        W43087   5.141   6.189  12.781 -0.0560 -0.0432 -0.1036
24884W        W43088  16.776   4.208  12.127 -0.0993  0.1742 -0.0477
24885W        W43089   6.365   7.577  10.453  0.0733 -0.0407 -0.1075
24886W        W43090  16.635   7.739   3.244  0.2104 -0.1036  0.0098
24887W        W43091  10.217   8.840  11.279 -0.4498  0.0833 -0.1244
24888W        W43092   7.141   1.978  11.220  0.3123  0.2498  0.2091
24889W        W43093  14.267   8.938   9.758 -0.1850 -0.2085  0.1568
24890W        W43094   9.854   6.063   2.062  0.1904 -0.1310  0.3721
24891W        W43095   7.856  14.753  14.954 -0.0464 -0.1196  0.0073
24892W        W43096  15.436  18.603   0.812 -0.2460  0.0745  0.1991
24893W        W43097  16.049  13.099   2.914 -0.3498 -0.0115 -0.1158
24894W        W43098   0.256   5.626   0.314  0.2277  0.0451 -0.0466
24895W        W43099  15.818  14.516   5.130  0.0023 -0.3011 -0.1465
24896W        W43100   3.156   7.351   4.082 -0.1125 -0.0085 -0.3037
24897W        W43101   2.049   9.656  10.987  0.1159 -0.0529  0.0883
24898W        W43102   7.872  17.411  11.796 -0.4162 -0.0393 -0.0916
24899W        W43103  11.247  17.417  12.526 -0.2452  0.1732  0.4863
24900W        W43104  15.960  12.140   4.210  0.4042  0.0785  0.3997
24901W        W43105   6.452  12.142  11.046  0.0870  0.0800  0.2631
24902W        W43106  12.076  12.001   1.200 -0.2822 -0.1197  0.1889
24903W        W43107   8.152   6.395  11.159 -0.2356  0.2162 -0.0845
24904W        W43108  10.643   0.156  14.373  0.0017 -0.0255 -0.2221
24905W        W43109  10.936   1.984  12.051 -0.0448 -0.5100  0.0579
24906W        W43110  13.729   5.707   3.767 -0.2359 -0.0060 -0.0451
24907W        W43111  15.662  11.459   0.177  0.2003  0.0123 -0.3356
24908W        W43112   3.158  12.715   2.683  0.1404  0.2011 -0.0227
24909W        W43113  13.385  18.668   3.461 -0.0314  0.1468 -0.0287
24910W        W43114  17.590   8.446   0.980  0.1116 -0.0518  0.1574
24911W        W43115  11.747   2.156   2.832 -0.2955  0.2056  0.1453
24912W        W43116   5.977   8.061   2.098  0.2770  0.1528 -0.1242
24913W        W43117  12.222  16.905   3.622 -0.1925 -0.4007  0.4579
24914W        W43118   5.942  16.573  14.889 -0.0708 -0.0638  0.3107
24915W        W43119  12.716  10.483   2.031  0.1227 -0.0814 -0.0196
24916W        W43120  11.723  18.856   0.778  0.4227 -0.3099  0.2882
24917W        W43121   7.979   3.023  13.280 -0.1166 -0.1841 -0.0109
24918W        W43122   6.021  15.517   1.010  0.7077  0.0417  0.2900
24919W        W43123  18.775   6.908   0.966 -0.2159  0.0118  0.0165
24920W        W43124   8.102  10.080   3.468 -0.0480  0.1340  0.2268
24921W        W43125  18.204   4.651   2.634  0.0144  0.2132  0.1411
24922W        W43126   2.648   1.352  12.902  0.3438 -0.0520 -0.0411
24923W        W43127   1.332  15.774  10.980 -0.1074 -0.2396  0.2264
24924W        W43128  11.364   1.165  11.277  0.1755  0.3506 -0.2819
24925W        W43129   5.795   2.736  14.555  0.0454 -0.1124  0.0765
24926W        W43130  12.489   3.695  14.959 -0.2073  0.2229 -0.0331
24927W        W43131   3.290   2.063  10.936  0.2843 -0.1409 -0.0388
24928W        W43132   1.937   2.130  10.768  0.1422 -0.0736  0.3124
24929W        W43133   3.340  15.720   0.333 -0.0095  0.1356  0.0847
24930W        W43134   3.800   6.306   3.288 -0.0497  0.2682 -0.1296
24931W        W43135   3.680  12.359  11.472  0.2440 -0.4185  0.1504
24932W        W43136   9.381  12.159   1.318 -0.1120  0.0943  0.2370
24933W        W43137  16.180   4.164   4.700  0.3168 -0.0575 -0.2826
24934W        W43138   8.923  18.851  12.619  0.0639  0.2903  0.0646
24935W        W43139  17.341  10.820  10.735  0.2767 -0.1433 -0.2068
24936W        W43140   6.700  14.929   4.394 -0.2613  0.1106 -0.0441
24937W        W43141  13.805   3.825  13.276 -0.3033 -0.4755  0.1555
24938W        W43142  18.356   5.403  14.205  0.1860  0.0450 -0.2417
24939W        W43143   1.348   7.453   4.563 -0.3807  0.1553  0.1656
24940W        W43144   1.379  18.574   4.591 -0.1580  0.1667 -0.3658
24941W        W43145  11.937  13.327   3.528  0.1185  0.1717 -0.2481
24942W        W43146   1.337   6.489  12.855  0.0176 -0.0025  0.2754
24943W        W43147   0.634   0.298   4.294 -0.4078  0.1779 -0.1004
24944W        W43148   4.151   8.434   4.773 -0.1596  0.1485 -0.0366
24945W        W43149  17.854   0.402  14.465 -0.1220 -0.1260 -0.3052
24946W        W43150   0.452   3.535  11.840  0.0755 -0.2708 -0.1051
24947W        W43151   3.534  13.613   0.355  0.1921  0.2892  0.1706
24948W        W43152   0.237  13.460   0.511 -0.0464 -0.2981 -0.3965
24949W        W43153   2.097   4.562  14.334  0.0208  0.0052  0.0722
24950W        W43154  17.950   0.986   1.465  0.1777  0.0132  0.1977
24951W        W43155   5.368   3.159   1.392  0.0769 -0.1758 -0.4067
24952W        W43156  11.062  11.817  12.606  0.0863 -0.1508 -0.3806
24953W        W43157   1.573   1.416   3.582 -0.2145  0.1016 -0.1258
24954W        W43158  11.798  14.502  10.922 -0.0614  0.1218 -0.0118
24955W        W43159   0.358  14.916   1.996 -0.0682  0.0987 -0.0366
24956W        W43160  13.953  18.569  13.692 -0.1596 -0.0668 -0.2772
24957W        W43161  17.317   3.143   1.169 -0.0998  0.0933 -0.1644
24958W        W43162   6.070   6.262   1.705  0.1765 -0.1314  0.2552
24959W        W43163   4.953   7.259  11.994 -0.2279 -0.0706  0.1552
24960W        W43164   5.364   0.274   2.021 -0.0000 -0.1285 -0.2061
24961W        W43165  13.206   4.945   2.152 -0.1121  0.0910 -0.1248
24962W        W43166   9.214  17.324  14.975  0.5827 -0.2454  0.2060
24963W        W43167  12.509  17.993  14.939 -0.2213 -0.1224 -0.4541
24964W        W43168  15.960  11.734  11.693 -0.0807 -0.0413  0.1624
24965W        W43169   2.389   2.846   0.277  0.1779 -0.1814 -0.1416
24966W        W43170   4.311   3.846   0.351 -0.1238  0.2152  0.3327
24967W        W43171  17.231  14.031  13.880 -0.5108 -0.0183  0.1051
24968W        W43172   2.157  18.654  12.181  0.1527  0.0316  0.0692
24969W        W43173   7.524   8.285   4.215 -0.1599  0.2693  0.0256
24970W        W43174  10.327  18.149   0.948  0.0824 -0.1073  0.2107
24971W        W43175  14.111   8.383  11.315  0.2233 -0.4041  0.2864
24972W        W43176  13.306  16.360   4.125 -0.2198 -0.0306 -0.0364
24973W        W43177   3.147   7.359  11.059 -0.1254  0.2649  0.1667
24974W        W43178   6.584  14.537  11.115 -0.0038 -0.1104 -0.0554
24975W        W43179   6.527  10.178  12.916 -0.2184 -0.2102 -0.0521
24976W        W43180   5.360   9.523  13.034 -0.1860  0.2235  0.1450
24977W        W43181   3.111   0.825  12.234  0.0485 -0.2971 -0.2225
24978W        W43182   9.264   8.144   3.114 -0.0929  0.1759 -0.0584
24979W        W43183   8.923   4.232   1.836 -0.1533 -0.1210 -0.0757
24980W        W43184  13.870  16.046   0.809  0.4565 -0.0594 -0.0165
24981W        W43185   4.327   8.671   2.633  0.1456 -0.2565  0.0855
24982W        W43186  12.602   1.943   2.550  0.3053 -0.0402  0.4834
24983W        W43187   7.512   4.830  13.253  0.1342 -0.1034 -0.1126
24984W        W43188  10.356  12.934  12.788 -0.2260  0.2082  0.0890
24985W        W43189   8.838   7.541   3.200 -0.0656 -0.2595 -0.1850
24986W        W43190   6.351  14.659   1.020 -0.0536 -0.0906 -0.3443
24987W        W43191   4.420  16.787   4.044 -0.1075 -0.3403  0.1378
24988W        W43192   6.928   6.310   4.798  0.3627  0.1353 -0.4669
24989W        W43193   2.131   9.383  13.603  0.0141 -0.1489 -0.2406
24990W        W43194   3.645  10.196   3.088 -0.3868 -0.2020 -0.0511
24991W        W43195  11.070  14.282   3.675  0.0387  0.1324  0.0583
24992W        W43196  10.172   2.480  10.595  0.0352  0.2267 -0.0190
24993W        W43197   4.351  15.502  11.492 -0.2303 -0.0538  0.1646
24994W        W43198   7.742  15.257  14.850 -0.0008 -0.1616 -0.0540
24995W        W43199  18.109   2.389  13.647  0.1167  0.1211 -0.0139
24996W        W43200   5.555   7.359   4.431 -0.0168  0.1831 -0.2055
24997W        W43201   9.204   3.449  11.031  0.1515  0.1872 -0.0761
24998W        W43202   1.349  15.700   5.315  0.0867 -0.4202  0.3021
24999W        W43203  14.451  14.638   4.780 -0.3332  0.4794 -0.0249
25000W        W43204   4.714  13.764   1.033  0.1636 -0.3151 -0.1327
25001W        W43205   0.748   9.049   2.581 -0.1949 -0.2993 -0.1644
25002W        W43206   6.287  16.547   3.527  0.0508  0.0907  0.3358
25003W        W43207   8.388   8.443   3.588  0.0466  0.1807  0.3907
25004W        W43208   1.118  16.481   1.791  0.0265 -0.0508 -0.0053
25005W        W43209  11.055   7.514   1.481 -0.0558 -0.1431 -0.1249
25006W        W43210  18.277  16.684  12.044  0.0199  0.1308 -0.1185
25007W        W43211   7.605  11.622  13.925 -0.0638  0.0827 -0.0925
25008W        W43212   9.522   6.271  12.037 -0.1984  0.1081 -0.0093
25009W        W43213   0.238  17.417   3.204  0.1269  0.2368  0.2460
25010W        W43214   1.369  13.172  13.323 -0.0359 -0.0433  0.0279
25011W        W43215   5.533  14.799   1.408 -0.0109 -0.0353  0.0820
25012W        W43216   7.516   8.100   2.291  0.0211 -0.1684 -0.3518
25013W        W43217   2.268   1.941  13.503  0.0719  0.1813  0.0580
25014W        W43218   7.028  14.395  12.176  0.0562  0.2401 -0.2981
25015W        W43219  10.253   5.292  13.739  0.2819 -0.0742  0.5435
25016W        W43220   8.097  12.871   0.282 -0.2276  0.1226 -0.0084
25017W        W43221  18.393   1.727   3.207  0.0176  0.1202 -0.0122
25018W        W43222  16.952   9.238  13.063 -0.2256  0.0592  0.2357
25019W        W43223  13.812  14.370   4.049 -0.2617  0.0397  0.0709
25020W        W43224   7.604  10.095  14.833 -0.0341 -0.0154  0.0330
25021W        W43225   2.983   7.065   1.749  0.0375 -0.1904 -0.1281
25022W        W43226   7.568  12.030   1.707 -0.1085  0.0842  0.1456
25023W        W43227  17.862  18.159   3.876  0.2767 -0.2751  0.3586
25024W        W43228   8.104   6.846   0.647 -0.0097 -0.2278  0.4005
25025W        W43229   5.490  16.491  10.849  0.0750  0.1914  0.2146
25026W        W43230   8.998   7.687  11.564 -0.0350 -0.4210 -0.0444
25027W        W43231   0.644  13.931   1.034  0.3142 -0.1984 -0.0560
25028W        W43232   5.975  17.761   4.844  0.0559  0.3800  0.1870
25029W        W43233  17.579  12.089   0.555 -0.1266  0.0532 -0.0916
25030W        W43234  17.582  14.638   0.737  0.1945  0.3913 -0.2980
25031W        W43235  16.395   2.085   1.329 -0.0820  0.1519 -0.1191
25032W        W43236   5.603   0.836   3.164  0.0126  0.3710 -0.0484
25033W        W43237  12.291   9.170  14.501 -0.2600 -0.2467  0.2508
25034W        W43238   6.791  16.494  14.752 -0.2914  0.1785 -0.0468
25035W        W43239  15.110  17.034  13.673 -0.2803 -0.0360  0.1839
25036W        W43240  18.524   2.617  14.422  0.0599  0.0108  0.2860
25037W        W43241  11.802  11.590  13.701 -0.3965  0.1987  0.2420
25038W        W43242  13.405   9.755  10.102 -0.2321  0.2253 -0.1546
25039W        W43243   4.302   4.988  13.086 -0.1043 -0.1236 -0.4136
25040W        W43244   4.512  13.385   1.623  0.2224  0.2237 -0.1280
25041W        W43245  13.632  11.156   3.518 -0.2353 -0.4203 -0.0688
25042W        W43246  11.450   4.431   1.248 -0.0899 -0.0857 -0.1303
25043W        W43247  11.919  16.345  14.356  0.0230 -0.1505  0.1444
25044W        W43248   1.781   1.682  13.514 -0.0483  0.1033 -0.0108
25045W        W43249   6.398  16.014   3.386 -0.1260 -0.1224 -0.2087
25046W        W43250   2.912  18.207  14.083 -0.0143  0.0359 -0.0029
25047W        W43251  15.844   6.791   0.693  0.3190  0.1183  0.0816
25048W        W43252  15.556  14.456  12.587 -0.3297 -0.1480 -0.1089
25049W        W43253  10.047   5.459   1.159 -0.0019  0.0005 -0.1027
25050W        W43254  13.133   9.809  14.519 -0.1880  0.2236 -0.3533
25051W        W43255  10.307  10.440   3.639 -0.2339 -0.1442 -0.0709
25052W        W43256   0.520   1.323  11.730  0.2673 -0.0354  0.0973
25053W        W43257   3.647  10.452  13.513 -0.0344  0.5054 -0.0921
25054W        W43258  18.736   7.336  13.055  0.1128  0.1198 -0.0627
25055W        W43259   2.412  15.513  14.911  0.0563  0.1461  0.0450
25056W        W43260   9.562  16.676   5.436  0.2771 -0.0864 -0.0222
25057W        W43261   2.854   8.130  11.729 -0.0804 -0.2480 -0.2778
25058W        W43262  12.656   8.045  12.727  0.1106 -0.3156 -0.1878
25059W        W43263   5.259  14.759   4.255  0.4481 -0.1115  0.1329
25060W        W43264   5.974   2.518   2.878 -0.0944 -0.1068 -0.2347
25061W        W43265   8.561  13.048  12.640  0.2605 -0.0724 -0.2369
25062W        W43266  10.769   5.225   3.798 -0.1930  0.0132 -0.2135
25063W        W43267   5.077  13.514  14.991  0.2425 -0.0595  0.1477
25064W        W43268   6.252   8.909  11.625 -0.0458 -0.3569 -0.1787
25065W        W43269   7.782  12.343   3.731  0.2445  0.0717 -0.2778
25066W        W43270   5.852   1.205  11.137  0.5388  0.3442 -0.2373
25067W        W43271  16.992   7.785   0.883 -0.2981  0.3011 -0.0916
25068W        W43272  15.788   8.442   0.955 -0.0198  0.1366  0.0055
25069W        W43273   4.307  15.053  13.867  0.1131 -0.1231 -0.0585
25070W        W43274  12.914  17.177  14.557 -0.1006  0.1056  0.3239
25071W        W43275   9.392  13.902   4.581  0.1585  0.1288  0.0361
25072W        W43276   8.384   7.130   1.378 -0.1885 -0.1064  0.0600
25073W        W43277   4.892  17.296   3.011  0.2651 -0.0904  0.1982
25074W        W43278  10.037   5.829   2.860  0.3023  0.2077 -0.0330
25075W        W43279  10.513  18.673   1.549 -0.3160  0.0432 -0.1165
25076W        W43280  11.349  10.333  14.828 -0.0350 -0.1703 -0.0330
25077W        W43281   4.441   7.222   4.510  0.2450  0.0330 -0.0354
25078W        W43282  12.659   1.490  12.804 -0.2787  0.2302 -0.2788
25079W        W43283  16.905   3.567  13.252 -0.0924  0.0019 -0.1832
25080W        W43284   1.409  15.723   1.620 -0.3163 -0.0519 -0.2647
25081W        W43285  17.333  13.451   4.379 -0.1233  0.1200 -0.0714
25082W        W43286   7.868   1.432  11.501  0.4212 -0.2684 -0.1947
25083W        W43287  16.516   0.922   1.115  0.0107  0.1096  0.6702
25084W        W43288   4.816  18.615  13.224 -0.2786  0.0100  0.0129
25085W        W43289  12.979   9.107   1.635  0.0976 -0.0892  0.0860
25086W        W43290   5.119   2.542  11.361  0.1910 -0.0419 -0.1024
25087W        W43291  15.958  10.715   0.684  0.3086 -0.0654  0.0716
25088W        W43292   7.719  12.438   2.037  0.0909  0.0521  0.0218
25089W        W43293  17.581   5.749  13.449 -0.3015  0.0816 -0.1113
25090W        W43294   3.243   2.699  12.858  0.0928  0.3247  0.0751
25091W        W43295   0.189   8.654   4.313 -0.2656  0.4308  0.1837
25092W        W43296  12.212   2.267  11.733 -0.2432 -0.1413 -0.0015
25093W        W43297   7.133   9.851   4.393  0.1508 -0.2459 -0.0566
25094W        W43298   2.628  12.769   0.348 -0.1521 -0.1912  0.0911
25095W        W43299   0.112   1.558   2.303  0.2091  0.0363  0.1174
25096W        W43300  10.823  16.913   1.936  0.2118 -0.1770 -0.2231
25097W        W43301  18.660  15.365   9.719 -0.3070  0.1857  0.1353
25098W        W43302  18.475   7.316   0.283 -0.1391 -0.0808  0.0612
25099W        W43303  10.059  13.590   4.870 -0.0419  0.2147  0.0882
25100W        W43304   5.015  12.505  13.387  0.0466  0.3766 -0.3269
25101W        W43305  18.642   8.668  11.932  0.1458  0.2264  0.1401
25102W        W43306  15.792   8.703   4.275  0.0350  0.0591  0.0348
25103W        W43307  12.819   3.127   3.979  0.5902 -0.0148  0.1232
25104W        W43308  16.660  16.187   3.283 -0.0781  0.1200 -0.1017
25105W        W43309   6.411   5.815   3.223  0.1945 -0.2908 -0.1813
25106W        W43310   7.308  17.761   3.537  0.2062 -0.2114  0.0431
25107W        W43311  10.653  16.518   2.920 -0.1285  0.0843 -0.2356
25108W        W43312   2.032  18.048   2.870 -0.3518 -0.1203 -0.2053
25109W        W43313   7.049   4.940  12.309  0.0517  0.0033  0.1218
25110W        W43314   8.373  13.896  12.413 -0.0513 -0.2423  0.0749
25111W        W43315   7.170  10.166   3.811  0.0550  0.0041 -0.1475
25112W        W43316   4.068  16.601   3.248  0.0863 -0.0133  0.1429
25113W        W43317   5.785   5.421   2.525  0.2706 -0.1483  0.2868
25114W        W43318  14.636  17.702  11.446  0.2406  0.5599  0.3140
25115W        W43319  12.208   2.550   3.337  0.0509  0.1127  0.0866
25116W        W43320  12.889  17.947   2.010  0.0293  0.3078  0.1859
25117W        W43321  11.708  10.177  12.434 -0.0984 -0.2655 -0.0596
25118W        W43322  14.976   0.586  10.845 -0.0664 -0.1490  0.5107
25119W        W43323   3.205   7.760  11.694  0.0206 -0.1422  0.0197
25120W        W43324  17.074  12.213  12.642  0.2045 -0.0273  0.3230
25121W        W43325  14.619   3.615   0.894 -0.0049  0.2142 -0.1003
25122W        W43326   3.830   2.584   0.684 -0.2737 -0.3208 -0.0357
25123W        W43327  16.544   9.190   4.744 -0.1840 -0.0180 -0.1081
25124W        W43328  18.516  17.252   3.059 -0.1529  0.0572  0.0952
25125W        W43329   8.810  16.728   1.243 -0.1224  0.0412 -0.1550
25126W        W43330   4.580  13.771  11.904 -0.0153 -0.1273 -0.0552
25127W        W43331  16.700  13.379   0.044  0.0232 -0.3729  0.1027
25128W        W43332   9.214   1.400   3.412 -0.0619  0.0388 -0.0242
25129W        W43333   0.493   9.201   2.957  0.3828 -0.0199 -0.2358
25130W        W43334  15.263   2.900  13.173 -0.1820 -0.1784  0.4528
25131W        W43335  14.908   2.635  14.988 -0.1023  0.0668 -0.3324
25132W        W43336  16.115  14.012   0.481 -0.0740 -0.0665  0.2069
25133W        W43337  18.714  13.011   3.250  0.0422 -0.1229  0.3697
25134W        W43338   1.560   3.939  13.373  0.1749 -0.1581  0.4575
25135W        W43339  13.610   5.655  12.253 -0.1287  0.1534 -0.0516
25136W        W43340  10.027   2.267   1.284  0.1154 -0.0776 -0.1413
25137W        W43341   3.100  15.163  14.524  0.5075  0.0235 -0.0568
25138W        W43342  14.276  18.728  11.666 -0.1411 -0.0893  0.0772
25139W        W43343  16.395   0.896   1.570 -0.1655  0.3585  0.3726
25140W        W43344   8.728  11.236   3.905 -0.0315 -0.0504 -0.2262
25141W        W43345  13.210  17.936  12.408  0.0479 -0.3019 -0.3230
25142W        W43346  18.137   5.639   4.376  0.1535  0.0443  0.0848
25143W        W43347   4.471  17.052  13.135 -0.2528  0.0679  0.1589
25144W        W43348   3.091   5.832  14.266 -0.2582 -0.1461 -0.2651
25145W        W43349   8.940   7.724  13.515 -0.1901  0.2443 -0.2368
25146W        W43350  12.119  15.907   2.771  0.2714 -0.1428 -0.0840
25147W        W43351  15.578   2.390   2.386  0.0381 -0.3177  0.1688
25148W        W43352   1.897   6.096   5.710 -0.0782 -0.1326  0.1024
25149W        W43353  18.680   4.989  11.991  0.0006  0.0091 -0.0549
25150W        W43354  18.477  12.347   2.648  0.0644 -0.3272  0.0071
25151W        W43355  11.948  17.545  13.837  0.0603 -0.3293 -0.1757
25152W        W43356   6.226  17.368   4.723  0.0041  0.0410 -0.0163
25153W        W43357  14.361   7.064  10.709  0.0522  0.1034  0.0980
25154W        W43358   8.653   8.989   0.985 -0.2026 -0.0991 -0.1961
25155W        W43359  16.167   9.457   3.049  0.0757 -0.1172 -0.1259
25156W        W43360  18.853   8.337   4.710 -0.2615 -0.2456 -0.2044
25157W        W43361   3.968  14.862  14.514  0.0663  0.0268 -0.1300
25158W        W43362   7.479  10.907  10.638 -0.2136 -0.0051  0.2652
25159W        W43363   1.005  12.847   3.259 -0.1159 -0.1592  0.1540
25160W        W43364  15.921   2.435   3.356 -0.2607  0.2669 -0.3807
25161W        W43365  15.919  14.225  14.574  0.0406  0.1066 -0.0299
25162W        W43366  13.711  14.095  13.021 -0.5531 -0.1092  0.1371
25163W        W43367   1.257  10.238   3.211  0.2045  0.3232 -0.1816
25164W        W43368  14.585  12.287   4.433  0.3910  0.2842  0.4296
25165W        W43369   0.092  11.711   3.552 -0.2855 -0.0574 -0.0428
25166W        W43370  16.740  17.838  10.998 -0.1633  0.4465 -0.0203
25167W        W43371  17.867   8.565   1.402  0.1043  0.1674 -0.2293
25168W        W43372   7.107  13.148   1.009 -0.1310 -0.2610 -0.0817
25169W        W43373   3.553  16.827   3.075  0.0853 -0.2246 -0.0874
25170W        W43374   2.733  11.152   2.784  0.0858  0.2494 -0.0489
25171W        W43375  12.130  15.406  13.520  0.1308  0.5036 -0.2844
25172W        W43376   7.631   8.884   1.361  0.0733 -0.0061 -0.2120
25173W        W43377  12.350  13.628   3.701 -0.1166 -0.4665  0.2202
25174W        W43378  16.917   4.843   1.696 -0.0392 -0.0324  0.1258
25175W        W43379  17.402   3.173   0.705  0.5779 -0.1455  0.1359
25176W        W43380   5.115   3.316  14.562 -0.2405 -0.1254 -0.0800
25177W        W43381   1.405   5.450   3.017  0.3569  0.2361  0.1637
25178W        W43382   8.649   8.948  13.561  0.1998 -0.2076  0.0896
25179W        W43383  12.425   9.678   3.198 -0.1042  0.1380  0.0226
25180W        W43384   7.155   7.380   3.485  0.0768 -0.1821 -0.2065
25181W        W43385  14.964  17.411  13.968 -0.0400  0.1308 -0.0076
25182W        W43386   2.092  17.008   3.753 -0.0492  0.0416 -0.1151
25183W        W43387  13.594   2.281   1.714 -0.1686 -0.1885 -0.0849
25184W        W43388   0.559   6.983  12.660  0.1409 -0.4571  0.1104
25185W        W43389   4.443   0.201   4.155 -0.0484  0.2348  0.0700
25186W        W43390  13.609  10.770  13.037  0.0801  0.0074 -0.0607
25187W        W43391  17.783  18.590   3.613  0.1748 -0.1919 -0.1291
25188W        W43392   5.051   0.586  11.708 -0.0691  0.2869 -0.0078
25189W        W43393   8.605  12.531  14.757 -0.0547 -0.0122  0.3013
25190W        W43394   2.703   1.752   2.863  0.1506 -0.0398  0.0064
25191W        W43395   9.666  13.818  11.003  0.2060 -0.0656  0.2740
25192W        W43396  10.204  11.726  13.662 -0.0114 -0.3379 -0.3179
25193W        W43397  17.871  12.004   0.093  0.2080 -0.0283  0.1305
25194W        W43398  16.218  11.916  13.655 -0.0760 -0.1391 -0.0052
25195W        W43399   0.329   3.566   3.157 -0.1460  0.3040  0.3259
25196W        W43400  14.581   2.226   1.651  0.1106  0.0561  0.2809
25197W        W43401   2.025   3.856  11.716  0.1293 -0.1632  0.2324
25198W        W43402  13.077   0.941   1.507 -0.1043  0.0510  0.1356
25199W        W43403  12.833  11.362  13.201 -0.2074  0.2269 -0.1360
25200W        W43404  18.937   7.851   0.662  0.1487  0.1094 -0.0080
25201W        W43405  17.654  11.103   1.655  0.0377  0.2576 -0.0195
25202W        W43406   3.071   0.789  13.655 -0.0677  0.0548 -0.1177
25203W        W43407  14.499  16.435   2.561 -0.3589 -0.0354 -0.1885
25204W        W43408  14.887   9.698  14.046  0.1590  0.3027 -0.0070
25205W        W43409  17.750   9.804   3.013 -0.0469  0.1037  0.1156
25206W        W43410  10.947  16.724  12.088  0.0595  0.2660  0.1184
25207W        W43411   2.875   6.729  12.078 -0.4151  0.3137  0.1617
25208W        W43412   7.661  18.895  14.183  0.0227  0.0847  0.1713
25209W        W43413  14.517   3.130   0.789  0.0659  0.0134 -0.1037
25210W        W43414  13.499  10.310  11.908  0.0820 -0.0423  0.2296
25211W        W43415   3.644   5.057  11.474  0.1698 -0.2191 -0.5432
25212W        W43416  18.427  11.227   1.230  0.1440  0.2655 -0.1692
25213W        W43417   6.233   9.969  12.506 -0.0519 -0.2297  0.0573
25214W        W43418  12.426   5.335   1.664 -0.0431  0.0771 -0.0631
25215W        W43419  10.643   2.792   4.815  0.0104  0.1362  0.0423
25216W        W43420   6.137   4.033  13.449 -0.2835 -0.3300 -0.0424
25217W        W43421   7.923  11.110   1.567 -0.0396  0.0651  0.1946
25218W        W43422  12.612  16.291  12.458  0.0765 -0.1727  0.0713
25219W        W43423   8.522   6.675  11.214  0.1379  0.1042 -0.3146
25220W        W43424   1.279  11.379   3.758  0.0176  0.0555 -0.1161
25221W        W43425   9.905   6.541   4.235 -0.6686 -0.1377  0.2846
25222W        W43426   7.877  17.927   1.862  0.2496  0.0294 -0.0965
25223W        W43427  15.920  14.770  14.449 -0.0763  0.0847  0.3440
25224W        W43428   1.491   4.994  14.787  0.0018  0.0011 -0.2259
25225W        W43429  13.259  16.497   3.649 -0.0593 -0.0627 -0.1819
25226W        W43430   6.536   4.446   2.399  0.1079 -0.1263  0.1762
25227W        W43431  13.258  17.121   1.708  0.1542  0.0206  0.1342
25228W        W43432  10.752  12.904  13.051 -0.3074 -0.1238 -0.1587
25229W        W43433  14.707   5.903   3.365  0.0915  0.0259 -0.2107
25230W        W43434  10.850  16.189   2.569  0.1523  0.2356 -0.3993
25231W        W43435   6.200   6.223   0.840 -0.3038 -0.0322 -0.0921
25232W        W43436   1.142   1.657   3.759 -0.1027 -0.0668 -0.2318
25233W        W43437   2.588   9.738   2.488 -0.1511  0.1338  0.1123
25234W        W43438   8.843  17.771   1.133 -0.0311 -0.0959 -0.2773
25235W        W43439  12.321   4.467   2.967 -0.1890  0.1105  0.0674
25236W        W43440  12.638   7.086   3.189  0.1930  0.1685  0.2822
25237W        W43441   9.986  14.140   0.587 -0.2626 -0.0691  0.2196
25238W        W43442  16.475   1.339   2.323 -0.3723  0.0111  0.1372
25239W        W43443   0.589   0.842   3.127 -0.1163  0.3698  0.0927
25240W        W43444   7.226  16.313  10.800 -0.1251 -0.2133 -0.0549
25241W        W43445  10.664   3.987  11.101  0.0734 -0.2332 -0.2207
25242W        W43446   8.317  12.086  12.612 -0.1900  0.0173  0.4522
25243W        W43447   6.654   6.041   5.163  0.3592 -0.1136 -0.0453
25244W        W43448   0.793  18.786   3.485 -0.0171  0.1671 -0.0610
25245W        W43449   0.452  12.526   4.415  0.2967 -0.2362  0.2319
25246W        W43450  12.050  15.156  11.538 -0.2636 -0.0135  0.0220
25247W        W43451  14.246   0.000   1.195 -0.1790  0.3587 -0.4374
25248W        W43452  16.212   1.689   2.119  0.0591  0.2400 -0.0929
25249W        W43453   5.346  15.832  11.464  0.2332  0.2196 -0.0650
25250W        W43454   6.204  14.044   0.986 -0.0202  0.1726 -0.1431
25251W        W43455  12.206   5.748  13.713 -0.0726 -0.3256 -0.1467
25252W        W43456  10.635  13.413   1.268 -0.0347  0.0623 -0.3367
25253W        W43457  13.700  12.102  12.972  0.0318  0.0583 -0.4152
25254W        W43458  10.081  18.047  11.422  0.0965 -0.2979  0.1181
25255W        W43459  11.402   5.599  11.307  0.1905 -0.0730  0.0100
25256W        W43460   7.896   0.512   1.439 -0.1277 -0.1488  0.1288
25257W        W43461  10.256  17.126   1.858 -0.0060  0.2899 -0.2658
25258W        W43462  18.269   5.045  12.366  0.2801  0.0338 -0.0444
25259W        W43463   7.051   4.251   0.748  0.1959  0.3324  0.3447
25260W        W43464  14.076  15.458  13.747  0.1706 -0.1531  0.1136
25261W        W43465   2.170  17.830  12.951  0.0703 -0.0363 -0.0405
25262W        W43466   5.202  14.578   3.393  0.0492 -0.0683 -0.3979
25263W        W43467  12.895  17.121   3.963 -0.0203  0.0843  0.2134
25264W        W43468   7.520  17.363  12.678  0.1609 -0.0311  0.0652
25265W        W43469   3.018   8.546   4.810 -0.1881 -0.0103  0.0178
25266W        W43470  14.751  13.186  13.583  0.3872  0.2813  0.2545
25267W        W43471  16.380   2.439  14.966 -0.1025 -0.0430  0.0530
25268W        W43472  11.427  15.811   0.926  0.2584  0.1933  0.2756
25269W        W43473   7.259  12.607   3.413 -0.0386  0.0835 -0.0961
25270W        W43474   2.494  10.667  15.017 -0.1189  0.4748  0.0953
25271W        W43475  13.657  17.991  12.131  0.0335  0.0953 -0.2069
25272W        W43476  13.389  11.196   1.836 -0.2578 -0.4422  0.0283
25273W        W43477   6.202  15.450  13.491 -0.1464  0.0110 -0.0522
25274W        W43478   3.984   9.211   3.784  0.2632  0.1937  0.2076
25275W        W43479  10.112   2.104   1.872  0.3890  0.1344 -0.0151
25276W        W43480  14.494  11.054   3.461 -0.2031  0.0939  0.1440
25277W        W43481   7.288   7.814  11.705 -0.1424  0.0668  0.2158
25278W        W43482   3.836   7.539  14.344  0.1703  0.0150  0.1668
25279W        W43483  14.423  10.741   4.010 -0.1427 -0.1073 -0.0839
25280W        W43484   8.032   8.719   3.404 -0.2622  0.0005  0.1327
25281W        W43485  17.314   8.464  12.836 -0.0259 -0.1574  0.3373
25282W        W43486  13.652  11.957  11.749 -0.2062  0.2891  0.0920
25283W        W43487  14.315   2.506   2.109  0.0580 -0.1673 -0.2255
25284W        W43488  13.054  18.070   2.804  0.4150  0.0316 -0.0479
25285W        W43489  10.236  18.183   3.087 -0.0350 -0.0066  0.0275
25286W        W43490   3.701  15.805   4.097 -0.0315 -0.1924 -0.0443
25287W        W43491   1.706  10.245   3.514  0.0818 -0.1273 -0.3723
25288W        W43492  11.635  12.661  14.205 -0.2429 -0.1849  0.0436
25289W        W43493   5.994   7.526   0.701  0.3453  0.0242  0.1478
25290W        W43494  15.381  16.126   1.294  0.0231 -0.1278 -0.2118
25291W        W43495   3.317   6.777  13.959  0.3056 -0.0801  0.1531
25292W        W43496  15.071   9.371  13.272  0.0973 -0.0518  0.0153
25293W        W43497  12.878  15.196   2.399 -0.4787  0.1413 -0.2009
25294W        W43498   7.205  13.320  11.718  0.1158 -0.0325  0.0015
25295W        W43499   8.899   0.230  13.654 -0.2777 -0.2005  0.3616
25296W        W43500  15.772  18.146   0.638 -0.0231  0.1825  0.1982
25297W        W43501  18.148   9.421   1.518  0.2664  0.0784 -0.0797
25298W        W43502  17.168   5.061   4.368  0.0290 -0.4403 -0.2731
25299W        W43503   9.552   3.370   3.466  0.1522 -0.1948  0.0543
25300W        W43504   1.051   4.352  12.395 -0.2082 -0.1645 -0.1301
25301W        W43505  16.471   3.359  11.469 -0.1196 -0.1183  0.1554
25302W        W43506  18.336   2.497   2.907 -0.0576 -0.0818 -0.1646
25303W        W43507  16.166   2.675  13.363 -0.0070 -0.2977 -0.1599
25304W        W43508  16.527   9.749  12.400  0.0312  0.1179  0.1727
25305W        W43509   9.933  10.540   1.775  0.1495 -0.2651 -0.0183
25306W        W43510  12.930   1.989   1.620 -0.2457  0.0873 -0.1431
25307W        W43511  12.712  10.667  14.057  0.0548 -0.0676 -0.0178
25308W        W43512   4.690   5.253  13.042 -0.2938 -0.0735 -0.2013
25309W        W43513   5.719   8.585  11.433  0.1098 -0.0168  0.0109
25310W        W43514   2.588   2.172  11.605  0.2892 -0.0473 -0.7185
25311W        W43515   6.618  10.768  13.574 -0.0315  0.0096 -0.0196
25312W        W43516   3.682  11.904  11.779 -0.1645  0.1643  0.1198
25313W        W43517  12.661  10.460  14.599  0.1809  0.0854  0.1849
25314W        W43518   1.699   9.218  12.238  0.2557 -0.0365 -0.1070
25315W        W43519  11.453  10.836   2.395  0.0393  0.3351 -0.1664
25316W        W43520   9.866   7.957  14.829  0.0477 -0.1949 -0.0213
25317W        W43521  16.428   4.484  14.665 -0.1005 -0.2228 -0.1126
25318W        W43522   1.916   1.544   4.005  0.2491 -0.0867  0.3133
25319W        W43523   6.011  11.770   2.199  0.2664 -0.0484 -0.0093
25320W        W43524   7.774  13.821   0.328  0.0461  0.1602 -0.0619
25321W        W43525  13.948   5.143  14.532 -0.2291 -0.0918  0.1932
25322W        W43526  15.218  17.807  11.258 -0.2033  0.3124  0.2852
25323W        W43527   9.632   0.614   1.004  0.0583 -0.0254 -0.1575
25324W        W43528  16.125  16.368  12.475  0.0038  0.0918  0.0694
25325W        W43529   4.584   1.586  10.705  0.2126 -0.0449 -0.0014
25326W        W43530  14.184  13.114  12.209 -0.3015  0.3478 -0.0989
25327W        W43531  14.625  13.137   3.135  0.0183  0.3962  0.0737
25328W        W43532  11.419  11.243  13.702 -0.0611  0.1010  0.3133
25329W        W43533  11.151   1.092   3.313  0.0184 -0.1432  0.1847
25330W        W43534  17.103   2.314  13.758  0.2322  0.0290 -0.0540
25331W        W43535   9.036   7.969  14.458  0.0740  0.2151  0.1134
25332W        W43536   4.879  12.765  11.941  0.0610 -0.0937 -0.0312
25333W        W43537  14.368  14.561   1.398  0.0426 -0.2832  0.0326
25334W        W43538  17.794  13.333  13.306  0.1162 -0.3356 -0.1143
25335W        W43539  17.873   5.232  12.675 -0.0277  0.0518 -0.1616
25336W        W43540   2.576   4.272   1.360  0.0882 -0.1769  0.0334
25337W        W43541  13.198  16.179  11.466  0.0032 -0.2569 -0.0308
25338W        W43542  12.814  15.413   2.866 -0.0042  0.1884 -0.0741
25339W        W43543  11.441   7.324   4.598 -0.1289  0.3203  0.0701
25340W        W43544  17.158  12.362  14.743  0.1018 -0.0372 -0.0627
25341W        W43545   2.683   5.864  11.074  0.1131  0.0519 -0.1418
25342W        W43546   9.799  16.331  11.089 -0.2322 -0.1371 -0.1648
25343W        W43547  15.206   3.180  11.933 -0.1011  0.0817 -0.0542
25344W        W43548  14.081  15.110   3.394 -0.0679 -0.2755 -0.2614
25345W        W43549  17.765   1.942   4.478 -0.0147 -0.1524 -0.3239
25346W        W43550  18.184  15.933  14.599 -0.0346  0.1514 -0.0012
25347W        W43551   3.020  14.116   3.206  0.2364 -0.3014  0.0494
25348W        W43552  15.023  12.839  11.757 -0.0194 -0.1617  0.0781
25349W        W43553  12.906   1.283   1.097  0.2036  0.1514 -0.0274
25350W        W43554   6.993   1.502   2.687  0.2136 -0.1720  0.1618
25351W        W43555  12.299   1.333  12.369  0.4786 -0.1096  0.4803
25352W        W43556  12.763   6.837  11.994  0.1106 -0.0070  0.1699
25353W        W43557  17.846  18.008   2.582  0.3640  0.0533 -0.2854
25354W        W43558  12.842   5.113  12.046 -0.2219 -0.2894 -0.3573
25355W        W43559  10.876  13.921   0.193  0.1008 -0.2561 -0.2910
25356W        W43560  10.935  14.329   0.478  0.0758 -0.2132 -0.0120
25357W        W43561   8.452   7.791  13.628  0.3496  0.1865  0.1924
25358W        W43562   4.594  12.288  12.538  0.1208  0.1558 -0.1779
25359W        W43563   4.954   1.846  13.437  0.2069 -0.0353  0.2588
25360W        W43564  17.593  16.830  14.609  0.1500  0.0613  0.1906
25361W        W43565   6.520   8.006   4.042 -0.2890 -0.0602  0.0956
25362W        W43566   1.872  12.337  10.935  0.0068  0.1529 -0.2386
25363W        W43567   8.352  16.838   1.130 -0.0879 -0.0275 -0.0955
25364W        W43568   5.383   5.802   0.089  0.0740 -0.0511 -0.2444
25365W        W43569  14.725   1.250   3.129  0.0478  0.0280 -0.1764
25366W        W43570  10.732   3.191  12.456  0.1772  0.4249 -0.2311
25367W        W43571  17.010   3.297   9.556  0.2199 -0.0170  0.2148
25368W        W43572   4.108  16.689   4.546  0.1993  0.1668 -0.0243
25369W        W43573  15.146   4.594  13.849  0.0570 -0.3622  0.3637
25370W        W43574   3.479   5.559   1.145  0.3826 -0.0121  0.1485
25371W        W43575  11.606   6.674  12.858 -0.0028 -0.1479  0.2744
25372W        W43576   1.835   7.298   3.664 -0.1970 -0.1928  0.0401
25373W        W43577   4.977   9.527   9.968  0.0447  0.1880 -0.1329
25374W        W43578  17.788   4.193  14.765  0.2595  0.0051  0.1394
25375W        W43579   1.118  16.613   3.594 -0.2298  0.1210  0.2803
25376W        W43580  18.531   5.750  13.915  0.1011  0.2409  0.0887
25377W        W43581  15.317  14.005  14.495 -0.0690 -0.0148  0.0196
25378W        W43582   8.355  16.956  11.312  0.0541 -0.1134  0.1007
25379W        W43583  15.602  11.138   4.487  0.0004  0.0341  0.3260
25380W        W43584  13.881  11.915   1.182 -0.1205  0.0333  0.1096
25381W        W43585  15.044   7.066   4.215 -0.3308 -0.0934  0.1074
25382W        W43586  18.318  10.289  11.054 -0.2183 -0.2184 -0.3303
25383W        W43587  17.554  16.168  14.362  0.0641 -0.1677 -0.0832
25384W        W43588  10.501   8.642  11.676 -0.1725  0.0721  0.2826
25385W        W43589  10.990   8.371  10.803  0.3182  0.2535 -0.0768
25386W        W43590   7.993   5.966  13.067 -0.0557  0.0744 -0.0051
25387W        W43591  11.298  14.690   1.874 -0.1754 -0.0784  0.0887
25388W        W43592  16.724   2.863  13.295 -0.0336  0.1121 -0.1650
25389W        W43593  13.948   6.284  12.276 -0.0669  0.0707  0.0134
25390W        W43594   4.129  10.043   0.618 -0.2766 -0.2699 -0.0691
25391W        W43595  14.995  11.739  11.564 -0.0018  0.0784 -0.1609
25392W        W43596  13.079   3.940  11.545 -0.0626 -0.1015 -0.0637
25393W        W43597   6.173   7.783   0.299  0.2132 -0.0294 -0.2722
25394W        W43598  11.316   7.583   2.320 -0.1187 -0.0166 -0.0262
25395W        W43599   8.354  17.684   0.983 -0.1678  0.2360  0.2920
25396W        W43600  11.153   0.035   2.306  0.0975 -0.1119 -0.2542
25397W        W43601   8.164  11.414  10.440  0.0517  0.0564  0.0191
25398W        W43602  18.036   5.230   1.439 -0.0575 -0.0093  0.4384
25399W        W43603  13.560   3.434   2.681  0.0287 -0.0117  0.2151
25400W        W43604   9.973  15.640  14.143  0.1206 -0.2212  0.0161
25401W        W43605   9.081  10.085   0.434  0.2151 -0.0466 -0.1699
25402W        W43606  12.402  15.179   2.220  0.1236  0.0559 -0.1818
25403W        W43607  11.403   9.831  14.793 -0.2779  0.1143 -0.0724
25404W        W43608   3.324   9.046   2.338  0.0693  0.0715  0.2937
25405W        W43609  13.689   5.463  10.980 -0.0855 -0.0893  0.0300
25406W        W43610   7.654   6.941  11.671  0.3465 -0.2676 -0.1193
25407W        W43611   7.693   8.106  12.587 -0.0061  0.1250 -0.1414
25408W        W43612   3.348  11.155  10.459 -0.1439  0.1591 -0.2991
25409W        W43613  17.427  14.791  11.838 -0.2654  0.1708  0.1879
25410W        W43614   1.179   6.921   2.033  0.1417 -0.1725  0.1834
25411W        W43615   7.579  15.218   1.470  0.1857 -0.0394 -0.1267
25412W        W43616   8.227   1.208  14.250  0.1897  0.4479 -0.5176
25413W        W43617  17.531   5.291   2.267  0.0239  0.0947 -0.0102
25414W        W43618   1.281  15.941  12.628  0.2290  0.1288 -0.2375
25415W        W43619  12.619   9.143   2.003 -0.2184 -0.1837 -0.0814
25416W        W43620   3.459  14.832  14.794 -0.2140  0.2793 -0.0590
25417W        W43621   1.406  18.166   1.397 -0.1113  0.1459  0.1479
25418W        W43622  16.376   2.849  11.028  0.0178  0.0682 -0.1560
25419W        W43623   7.042  12.032   3.867 -0.0718  0.0728  0.4046
25420W        W43624   3.581   4.972  11.979 -0.2477  0.1466 -0.1192
25421W        W43625   7.233   6.149   3.892 -0.0165 -0.4852 -0.0739
25422W        W43626  15.584   4.942  12.200  0.1352  0.2034 -0.2752
25423W        W43627   4.731   4.689  13.630  0.0309  0.1941 -0.0962
25424W        W43628  13.299  11.632   3.413  0.0078  0.3222  0.0083
25425W        W43629   2.077   4.436   4.557  0.2444 -0.1529 -0.1927
25426W        W43630   2.318   2.541   2.485 -0.0687 -0.0387 -0.0475
25427W        W43631  18.460   4.207  10.237 -0.1301  0.0959 -0.0153
25428W        W43632  10.045   5.757   1.648  0.2549  0.2709  0.0441
25429W        W43633   4.984   9.229   1.206 -0.1357 -0.1315  0.0278
25430W        W43634  18.072   2.904   3.942  0.1601 -0.3541 -0.4172
25431W        W43635   8.053   5.494  13.306  0.0679  0.0661  0.2615
25432W        W43636   6.238   0.505  12.476  0.0846 -0.1135 -0.0480
25433W        W43637  12.584   1.980  11.313 -0.4244  0.1293  0.0852
25434W        W43638  12.334  13.318  14.175  0.1173  0.1952 -0.3679
25435W        W43639  10.042   4.036   2.964  0.0796  0.1959  0.1107
25436W        W43640   1.793  18.072   3.829 -0.0941  0.1072 -0.1273
25437W        W43641   9.312  18.016   2.157  0.1137 -0.0451  0.1149
25438W        W43642  12.105   7.400   0.291 -0.2342 -0.3424  0.0970
25439W        W43643   4.549   7.638   3.665 -0.0167 -0.1855 -0.2469
25440W        W43644   2.993  16.687  14.970 -0.0495 -0.0668 -0.2732
25441W        W43645  15.375  15.856  12.334 -0.1979  0.2363  0.2088
25442W        W43646   5.154  11.773   1.453  0.0043  0.3811 -0.1362
25443W        W43647  11.624  17.999   1.097 -0.0650 -0.0613  0.2154
25444W        W43648  17.407   1.250   2.621  0.2538 -0.1994  0.1233
25445W        W43649  13.537  12.826   4.341 -0.2358 -0.2723 -0.1016
25446W        W43650  14.090  18.072  13.496 -0.0052  0.3759  0.1216
25447W        W43651   8.050   7.747   1.379 -0.0600 -0.1004  0.1297
25448W        W43652   8.508   5.056   3.241  0.0206 -0.2543  0.1494
25449W        W43653   1.070  14.734  14.172  0.0948  0.3091 -0.0900
25450W        W43654   9.123   5.524  11.630  0.0255 -0.0854  0.0556
25451W        W43655   9.001  12.012   2.102  0.2612 -0.2070 -0.2485
25452W        W43656   7.830  18.126  10.828  0.1559  0.2866  0.1155
25453W        W43657  15.139   8.712  10.006  0.2497  0.0428 -0.1390
25454W        W43658   4.065   0.812   2.358 -0.1358  0.2692  0.2680
25455W        W43659  11.886   0.069  14.803 -0.1198  0.1028  0.4750
25456W        W43660   6.508  18.323  10.168  0.0026  0.2505 -0.0767
25457W        W43661   4.556  10.249   0.804 -0.1494 -0.0239 -0.0647
25458W        W43662  11.980  16.267  10.945  0.1686 -0.0680  0.1469
25459W        W43663   0.547   0.506  14.782  0.0265 -0.0258  0.3583
25460W        W43664  12.312   4.411  10.628 -0.0106  0.0207  0.0547
25461W        W43665  15.446  14.615   0.167 -0.0148 -0.0815  0.2592
25462W        W43666   9.491  13.323  13.353 -0.0429 -0.0779 -0.1705
25463W        W43667  15.936   7.392   4.549 -0.2547 -0.1587 -0.3636
25464W        W43668  12.120  13.475  12.904 -0.1266  0.0131 -0.3355
25465W        W43669   3.900   0.488   0.528 -0.1183  0.4926 -0.3837
25466W        W43670   3.575   1.412   5.649 -0.0257 -0.0638 -0.0484
25467W        W43671   7.004  18.386  12.334 -0.1637  0.2288  0.1914
25468W        W43672  18.242   2.900  13.532  0.2729  0.3042 -0.0328
25469W        W43673   2.703  12.750   2.883  0.1813 -0.1747  0.0520
25470W        W43674  12.032  13.576   1.577  0.1539 -0.0980 -0.1187
25471W        W43675   7.751  18.682  12.073  0.1899 -0.0932 -0.0177
25472W        W43676   4.334  15.641   3.415  0.1475  0.0124  0.5535
25473W        W43677   8.923  13.096  13.484 -0.3493  0.2116 -0.1542
25474W        W43678   4.681   4.433  14.990 -0.0580 -0.3071 -0.0404
25475W        W43679   1.380   6.961   1.332  0.0515  0.0500  0.0951
25476W        W43680  13.116  14.296  14.408 -0.1674  0.2013  0.0935
25477W        W43681   8.543   1.792   1.112 -0.0304 -0.0094 -0.0676
25478W        W43682  15.243   2.727   2.219 -0.2830 -0.3598  0.1272
25479W        W43683   7.429   6.368   0.214 -0.0193 -0.2208 -0.1582
25480W        W43684  18.139  18.620   0.639  0.1040  0.1293  0.0525
25481W        W43685   5.704   0.741   1.351  0.0329 -0.3090  0.2369
25482W        W43686  17.045   3.052  10.686  0.3021 -0.0662 -0.1982
25483W        W43687  15.794  15.100  10.548  0.2616 -0.2551 -0.0120
25484W        W43688   9.810  11.928   2.698  0.0353 -0.0760  0.3000
25485W        W43689   6.139  14.280  11.011  0.0937 -0.0936 -0.2893
25486W        W43690  10.773   3.211   4.237  0.1853  0.2279 -0.1020
25487W        W43691  10.874  13.198  13.486  0.0873  0.2303 -0.0407
25488W        W43692   6.280   4.341  10.481 -0.2495 -0.2697  0.0956
25489W        W43693  18.278   7.473  12.912 -0.0784 -0.0807 -0.1198
25490W        W43694  14.704  18.906   3.760 -0.2261  0.0648 -0.3360
25491W        W43695   8.796  14.037  11.590 -0.1175  0.0014  0.0634
25492W        W43696  12.523   7.965  11.047  0.0732 -0.0522  0.1248
25493W        W43697  14.520  11.544  13.829 -0.0605  0.4348  0.0399
25494W        W43698  16.372  17.571   2.800  0.1715  0.0170  0.0228
25495W        W43699   3.198   9.481   0.617  0.0398 -0.1228 -0.1257
25496W        W43700  12.644   3.315   0.821 -0.0631  0.0916 -0.0751
25497W        W43701   1.357   1.144   1.672 -0.1852  0.0238  0.0751
25498W        W43702  17.256   3.599   1.013  0.2458  0.1065  0.0503
25499W        W43703   5.446   7.089  14.961  0.1391 -0.1665  0.2720
25500W        W43704  12.255  12.237   2.548  0.3606 -0.0522 -0.0475
25501W        W43705   5.439   5.161   4.373  0.2412  0.1673  0.1872
25502W        W43706   2.661   1.499   9.795  0.1496 -0.0999 -0.0454
25503W        W43707   6.749  16.225   3.088 -0.1278  0.3529 -0.1827
25504W        W43708  18.864   3.942   3.108  0.3811  0.0135  0.2650
25505W        W43709   3.349   9.033   1.471  0.2422  0.0484 -0.2304
25506W        W43710   4.460  10.561  11.904  0.0453 -0.1179  0.2678
25507W        W43711  14.901   9.265  13.779 -0.3193  0.1062  0.3077
25508W        W43712  15.930   0.987  11.751 -0.0493 -0.1014  0.1507
25509W        W43713  10.781   7.598  11.426 -0.0417 -0.2460  0.1410
25510W        W43714  12.702   4.889  13.593  0.2028  0.3110  0.2312
25511W        W43715   5.971   4.216   2.374 -0.2669 -0.0284  0.0124
25512W        W43716  13.875  18.652   1.851 -0.0945  0.0437 -0.2006
25513W        W43717  14.824   5.588   2.875  0.2805  0.0062 -0.1724
25514W        W43718  13.271  12.844  13.567  0.0870 -0.1562  0.2344
25515W        W43719  14.781   6.730   9.829  0.1963  0.0912  0.3944
25516W        W43720   4.462   8.792   5.377 -0.0304 -0.2633 -0.1431
25517W        W43721   6.076   8.521  11.807  0.0475 -0.1559 -0.5555
25518W        W43722  14.517   7.846   0.022  0.0358  0.2090 -0.1044
25519W        W43723   4.566  17.435  14.928  0.0562  0.1102  0.2731
25520W        W43724   5.096   7.919   4.075  0.1192  0.0393  0.3047
25521W        W43725   3.226   5.485   3.519 -0.0912 -0.1257 -0.1756
25522W        W43726   9.481  15.217  11.019 -0.0082  0.2297 -0.0229
25523W        W43727  16.940  16.474   3.643  0.1449  0.1645  0.1710
25524W        W43728  15.312  18.201   0.232 -0.0365 -0.1628  0.1919
25525W        W43729   0.526   2.868   1.955 -0.1184 -0.0053  0.2193
25526W        W43730  15.494   9.289  14.696  0.2081 -0.3219 -0.4302
25527W        W43731  17.359  17.481   0.727 -0.3848  0.1043 -0.3734
25528W        W43732  10.726  10.445   4.499 -0.2464  0.5006 -0.3146
25529W        W43733   2.812  18.696  11.417 -0.1234 -0.2593 -0.3994
25530W        W43734   4.080   8.799   5.766 -0.2423  0.0161 -0.0299
25531W        W43735   4.347  18.419  12.894 -0.3171  0.1392  0.1133
25532W        W43736  18.455  12.609   5.352 -0.0198  0.0575 -0.2262
25533W        W43737   6.949   4.695   2.344 -0.2340  0.0724  0.0736
25534W        W43738  13.113  17.379   0.422 -0.1610 -0.0137  0.0115
25535W        W43739  13.246  15.504   1.171  0.2039  0.1936  0.2777
25536W        W43740  18.293   7.178  11.440 -0.0119  0.1297 -0.0903
25537W        W43741  15.469  15.040   0.467 -0.3576 -0.0501 -0.0709
25538W        W43742   9.016   6.394   1.823  0.1652 -0.3174  0.0193
25539W        W43743  16.295   9.869  12.904 -0.1662  0.1506  0.3451
25540W        W43744   8.647   9.280  14.961 -0.1788 -0.0606 -0.0674
25541W        W43745   5.805   1.757   2.042 -0.2017  0.3183 -0.0368
25542W        W43746  15.557  13.572  13.113 -0.2715 -0.2950  0.4218
25543W        W43747  16.317   4.638   4.793  0.1494  0.0399 -0.0315
25544W        W43748   9.239  12.177  10.757  0.0210 -0.1625 -0.0140
25545W        W43749   0.063   7.363  13.526  0.4865 -0.0819 -0.0040
25546W        W43750   1.865   9.099  11.033  0.0507  0.1035 -0.0422
25547W        W43751  16.143  15.867   3.887 -0.1249 -0.1045  0.0553
25548W        W43752  16.903   3.731   2.601 -0.1424  0.1875  0.2826
25549W        W43753   3.034   7.270  12.035 -0.0283  0.2167  0.0261
25550W        W43754   6.629   1.086  11.116  0.1036 -0.0483  0.1198
25551W        W43755   4.468  11.414  13.976 -0.1348  0.2107  0.1383
25552W        W43756   1.892  13.046  11.562  0.0920 -0.2947  0.0116
25553W        W43757   0.676  13.808   0.305  0.0495  0.1351 -0.0689
25554W        W43758  13.047  11.532  14.834  0.3510  0.2710  0.1713
25555W        W43759   8.824  18.589   0.128  0.3485 -0.4484  0.3704
25556W        W43760   0.447   0.994   1.594  0.4220  0.4677 -0.2114
25557W        W43761   9.094  14.205  14.971 -0.0002 -0.2135  0.0226
25558W        W43762   5.787  15.358  13.729  0.1942  0.0074  0.1965
25559W        W43763   4.211  13.936   0.949 -0.1452 -0.0038 -0.0258
25560W        W43764  13.043   7.948  13.946  0.3635 -0.0400  0.1431
25561W        W43765  17.272  16.972  12.302 -0.0209 -0.2810  0.0357
25562W        W43766   8.992   2.644   9.990 -0.1812  0.1029  0.0245
25563W        W43767  15.433  10.970  12.196  0.0921  0.2409 -0.0335
25564W        W43768   2.793  16.325   1.395 -0.2666  0.0879  0.1136
25565W        W43769  18.192  11.038   0.461  0.1988  0.0079  0.2908
25566W        W43770  10.877   0.971  12.825  0.0128  0.1411  0.1802
25567W        W43771  12.900  16.571   4.016 -0.0668  0.1967 -0.0646
25568W        W43772   9.133   2.151  13.380 -0.0519  0.1908 -0.1544
25569W        W43773  12.973   3.561  11.924 -0.1396  0.1259  0.2551
25570W        W43774  18.189  11.568  11.506 -0.0753  0.0261  0.0818
25571W        W43775  12.595   2.486  11.499 -0.1876 -0.2995  0.0274
25572W        W43776   3.045   6.243  12.675  0.2488  0.1487 -0.2021
25573W        W43777  16.898   1.029   4.047  0.1444 -0.4027  0.1572
25574W        W43778  10.400   3.054   0.292 -0.2970  0.0173  0.1587
25575W        W43779  16.481   7.494  13.025 -0.1423 -0.0330 -0.1551
25576W        W43780   5.784   6.751  14.129  0.0880 -0.3359 -0.0092
25577W        W43781   4.648  10.212  11.617  0.1885  0.0608 -0.2503
25578W        W43782  18.736  17.861  13.328  0.0153  0.2699 -0.4776
25579W        W43783  17.373  13.926  11.499  0.1405  0.0740  0.0829
25580W        W43784   0.717   9.621   2.887 -0.0063 -0.0331  0.0141
25581W        W43785  17.390   5.338   0.224  0.2790  0.2783  0.0311
25582W        W43786   5.555   6.290   0.216 -0.4082 -0.3002  0.0294
25583W        W43787   4.602  15.977   2.513  0.1519  0.0250 -0.0273
25584W        W43788   3.424   4.576  14.551 -0.1856  0.1486 -0.1642
25585W        W43789   3.556  17.731   3.815  0.0049  0.0623  0.0093
25586W        W43790   8.484   0.535   0.358 -0.2740 -0.0009  0.2768
25587W        W43791  12.665  14.227   4.092  0.4257 -0.1204  0.1982
25588W        W43792   7.174   6.705   2.663  0.1100 -0.2162 -0.0096
25589W        W43793  15.057   7.551   0.127 -0.1766 -0.2729 -0.1468
25590W        W43794   5.064   2.348   3.021 -0.1214  0.0979 -0.3548
25591W        W43795   6.713   1.383   3.136 -0.2323 -0.3193 -0.2074
25592W        W43796  11.335   4.930   3.362 -0.1272  0.0622 -0.0006
25593W        W43797  11.131   6.228  14.381  0.2053  0.1496 -0.0775
25594W        W43798  17.556  16.513   1.117  0.0642 -0.0229  0.0912
25595W        W43799  17.583  10.701  13.513  0.0594  0.1199 -0.0458
25596W        W43800  15.863  14.546  13.225 -0.2540  0.1200 -0.4419
25597W        W43801   7.657   0.403  13.477 -0.1643 -0.2131 -0.0750
25598W        W43802  15.056   3.324  13.323  0.1476  0.2011  0.2583
25599W        W43803  17.906   6.293  14.292  0.0596  0.2973 -0.0369
25600W        W43804  18.146  11.472  12.338  0.0233 -0.0303 -0.2903
25601W        W43805  12.972  18.028   5.229  0.1216 -0.0272  0.1011
25602W        W43806   6.850   2.093  15.004  0.0540 -0.0955  0.0788
25603W        W43807   0.981   9.005  13.764 -0.0183 -0.0106 -0.4244
25604W        W43808   4.899  15.602   1.223  0.1552 -0.2620  0.5640
25605W        W43809   6.159  15.663   3.155  0.2409  0.0597  0.0529
25606W        W43810   5.879   9.469   1.056  0.3895  0.1567 -0.0029
25607W        W43811  12.430   1.868   3.344  0.0994  0.0093  0.1008
25608W        W43812   2.536  11.225  11.027  0.1500 -0.0478  0.1865
25609W        W43813   4.779  13.041  12.710  0.3943 -0.0473 -0.0856
25610W        W43814  15.147   6.020   2.703 -0.0155  0.0658 -0.0820
25611W        W43815   4.182   2.529  13.330 -0.0113 -0.1092 -0.1163
25612W        W43816   6.972   6.165   1.269  0.0433  0.1709  0.2932
25613W        W43817  18.534   8.349  13.946  0.0893  0.1227 -0.0859
25614W        W43818  14.038   9.090   4.791  0.2705  0.2375  0.2312
25615W        W43819   7.149   9.246  10.113 -0.0400 -0.2305 -0.3527
25616W        W43820   6.336  12.920  12.686  0.1983  0.0609 -0.2092
25617W        W43821   1.299  13.425   2.054  0.0790 -0.0601  0.1403
25618W        W43822   1.209  10.113  11.583 -0.1048 -0.1542  0.1937
25619W        W43823  10.122   7.969  10.846 -0.2558  0.2436  0.1584
25620W        W43824  11.685  11.255  14.397 -0.2699  0.1633 -0.2193
25621W        W43825  11.623  11.843  11.973  0.0810 -0.0093  0.0081
25622W        W43826   3.493   9.797  11.784  0.2904 -0.2978 -0.1330
25623W        W43827  13.927  13.493  11.484  0.2586 -0.1504  0.0847
25624W        W43828   4.572  13.243  10.683 -0.3888  0.1359  0.1542
25625W        W43829   6.005  16.084   3.669 -0.0991 -0.1015 -0.1371
25626W        W43830  12.648   9.971  14.768  0.1350  0.3039 -0.0497
25627W        W43831  13.259  11.162   0.937 -0.1769 -0.0644 -0.0309
25628W        W43832   0.143   6.869  11.727 -0.1306  0.0549  0.3167
25629W        W43833   5.657  16.660  12.599 -0.2991 -0.0828 -0.1203
25630W        W43834   2.641   6.772   3.954  0.0077 -0.0307  0.1046
25631W        W43835   5.335   5.757   5.027 -0.0085  0.0304 -0.4553
25632W        W43836  16.964  10.948  14.814  0.0090  0.1001  0.0024
25633W        W43837   2.960   5.066   0.737  0.2616  0.1545  0.1054
25634W        W43838   0.510   6.865   9.942  0.0500  0.1050 -0.1115
25635W        W43839  15.048   6.435  13.120  0.0143  0.0132 -0.0401
25636W        W43840  11.967   4.921   0.822 -0.0622 -0.0332 -0.0246
25637W        W43841  14.306  13.936  10.236  0.2635 -0.0719 -0.1763
25638W        W43842   7.413   1.678   4.280  0.2258  0.0966 -0.2645
25639W        W43843  13.775   1.345   3.501  0.0133  0.0750 -0.1374
25640W        W43844   4.296  17.460  11.374  0.2548 -0.1560  0.2007
25641W        W43845   0.833   0.330   3.235 -0.2667 -0.0791 -0.1901
25642W        W43846  15.605   9.995  13.454  0.0903 -0.1705  0.0877
25643W        W43847   4.461  13.723   2.373 -0.1836  0.3432 -0.1736
25644W        W43848   6.658  10.904  12.284  0.2367  0.1243 -0.1374
25645W        W43849  17.954   9.150   2.740 -0.3090  0.1252 -0.0613
25646W        W43850  16.505  13.630  11.471  0.0413  0.3734 -0.2390
25647W        W43851  13.192  15.798  14.347 -0.2335  0.3439  0.0038
25648W        W43852  10.042  16.612  14.257 -0.0858  0.1431  0.2331
25649W        W43853  16.023  13.175   0.878 -0.1183 -0.2579 -0.0426
25650W        W43854   8.354   8.287  14.769  0.0829 -0.5059  0.1992
25651W        W43855  14.926  11.995   4.620  0.2111  0.1333  0.0530
25652W        W43856   9.029   2.946   4.129 -0.1213 -0.4068  0.0704
25653W        W43857  13.009  10.887   4.108 -0.5049  0.1013  0.0899
25654W        W43858   3.126   5.091   2.171  0.0559 -0.1336 -0.0289
25655W        W43859  13.615   9.228  13.224 -0.0614  0.2386 -0.1555
25656W        W43860   4.168  18.073  14.332 -0.2419 -0.1239 -0.0475
25657W        W43861  16.893   0.770   1.619  0.1399  0.0779 -0.2667
25658W        W43862   0.491   0.391   0.242 -0.0731  0.4791  0.1448
25659W        W43863  11.931   4.095   3.079 -0.1324  0.0374 -0.1864
25660W        W43864   7.761   1.208   0.678  0.1914  0.1372  0.3476
25661W        W43865  11.777   8.865  11.956  0.0692  0.0243  0.3711
25662W        W43866   5.510  13.836   3.062  0.2375 -0.1525  0.0869
25663W        W43867  12.688   0.627   1.684  0.4256  0.1708  0.4437
25664W        W43868  10.348  15.612   2.542  0.0576  0.2323 -0.4322
25665W        W43869  11.792  13.803  12.066 -0.0231  0.0024  0.3129
25666W        W43870   0.341   5.693  13.189 -0.2844 -0.3643  0.2112
25667W        W43871   1.017  16.555   2.775 -0.1261  0.0058 -0.1290
25668W        W43872  13.826   9.632   3.805 -0.2472 -0.0505  0.1946
25669W        W43873  15.909   2.665  12.031  0.2712 -0.0325 -0.1455
25670W        W43874   9.016   6.688   4.233  0.1855 -0.2113  0.2303
25671W        W43875   7.122   1.266  11.880 -0.3852  0.0046  0.1152
25672W        W43876  18.590  17.230   4.460  0.0918 -0.0936 -0.1871
25673W        W43877  12.499   8.453   0.853 -0.0389  0.0611 -0.3733
25674W        W43878   4.595  15.113   4.028 -0.1248 -0.1859 -0.2652
25675W        W43879   8.620  11.207  10.128 -0.0626  0.2178  0.2943
25676W        W43880   8.825  18.709   3.754 -0.2191 -0.1731  0.3476
25677W        W43881   4.821  11.078  13.771 -0.0423 -0.0406  0.2654
25678W        W43882  11.744  15.639   2.641 -0.0977 -0.1106 -0.0555
25679W        W43883   5.503   4.082  14.781  0.0009 -0.0941  0.2650
25680W        W43884   0.448  16.202  10.542 -0.2424 -0.3457  0.1874
25681W        W43885   2.142   9.576   2.656  0.0399 -0.1740  0.0413
25682W        W43886  15.233  16.173  11.020 -0.2624 -0.3150 -0.1903
25683W        W43887   2.693  15.835  11.887  0.1099  0.2604  0.2129
25684W        W43888  14.299  10.469  10.849 -0.3627  0.2186 -0.1226
25685W        W43889  18.800   0.742  15.000 -0.2582  0.1054 -0.0683
25686W        W43890  14.384   5.694   2.889  0.0215  0.1570  0.2807
25687W        W43891  18.531   0.773   3.022  0.0876 -0.0378  0.0383
25688W        W43892  12.698   8.331   2.188 -0.0689 -0.0066 -0.2992
25689W        W43893  16.434  10.024  13.990  0.2361 -0.1498  0.2123
25690W        W43894   4.506  12.721   1.893  0.0844  0.2182 -0.2881
25691W        W43895   0.148  17.313  14.251 -0.1128  0.1601 -0.1071
25692W        W43896  12.380  18.379   0.262  0.0570 -0.2849  0.0410
25693W        W43897  13.457  17.729  11.480  0.0739 -0.1101 -0.1833
25694W        W43898   3.101  16.083  12.057 -0.2264 -0.5111 -0.1477
25695W        W43899   9.167  17.239   3.967 -0.0116  0.1722 -0.1646
25696W        W43900  12.823  10.876   1.202 -0.1394 -0.0373  0.1701
25697W        W43901  15.853  13.097   4.329 -0.0636 -0.1940  0.0387
25698W        W43902  16.142  11.387  10.953  0.1363  0.2439 -0.1418
25699W        W43903   9.715   8.735  14.406 -0.3462 -0.0007 -0.0746
25700W        W43904   2.302   4.086  14.310  0.0581 -0.0392 -0.0631
25701W        W43905  10.462  12.179  13.903  0.0730  0.1099  0.4020
25702W        W43906   0.324   2.528   0.554  0.1384  0.2281  0.0815
25703W        W43907   1.878   0.817  13.571  0.1074 -0.2749  0.4387
25704W        W43908  12.488   9.515  11.208  0.3003  0.2643  0.0624
25705W        W43909   7.050   1.610   2.050  0.0350 -0.1204  0.1046
25706W        W43910   4.632   6.947   1.702 -0.0638 -0.0084 -0.1202
25707W        W43911   8.743   4.459  13.569  0.2222  0.0594 -0.0579
25708W        W43912   6.022   8.904  11.152  0.1621  0.1690  0.0036
25709W        W43913   4.676   5.634   3.934  0.1049 -0.1190 -0.1370
25710W        W43914  10.038  12.348   2.156 -0.0232  0.3371  0.0627
25711W        W43915   3.654   1.283   4.364  0.2732  0.1219  0.2383
25712W        W43916   6.531   4.940   3.523  0.1248  0.0179 -0.0873
25713W        W43917  10.576  13.527  13.750 -0.3053  0.2548  0.0184
25714W        W43918  17.102   8.174  10.819 -0.0772  0.0218 -0.0800
25715W        W43919  17.087   0.063  11.651 -0.0569  0.2415 -0.2367
25716W        W43920  12.488   2.509  13.639 -0.5460 -0.2554 -0.1494
25717W        W43921  13.869  17.293  14.038  0.2196  0.1879 -0.1592
25718W        W43922   0.200  14.555   2.745 -0.1795  0.2378  0.0715
25719W        W43923   0.047  11.224   2.889  0.2149 -0.1741  0.0536
25720W        W43924  10.340   3.026  12.820 -0.1266  0.0779  0.1153
25721W        W43925  18.868  14.166  14.052  0.3812 -0.2719  0.0730
25722W        W43926  13.338  14.593  10.676  0.0178  0.1736  0.2621
25723W        W43927   9.841   3.937   0.460 -0.1034  0.0492 -0.0058
25724W        W43928   1.429   5.691   2.024  0.2567 -0.1883 -0.1511
25725W        W43929   6.364  10.577   4.777 -0.2029  0.2216 -0.1453
25726W        W43930  10.186   4.614   0.891  0.0149  0.2291 -0.0185
25727W        W43931  17.879   6.148  13.082  0.1088  0.3618  0.1412
25728W        W43932  14.729  15.863  11.733 -0.1322  0.2326  0.1642
25729W        W43933  18.383   2.584   4.151 -0.1089  0.5051  0.0067
25730W        W43934  16.054   7.017  14.307  0.0860 -0.1709  0.4449
25731W        W43935   8.046   6.867  10.810  0.0770  0.0098  0.1506
25732W        W43936  18.071   3.897   3.357  0.0986  0.0791 -0.0952
25733W        W43937   1.651   5.846  13.186 -0.0979 -0.1525 -0.0251
25734W        W43938   4.784   3.263   5.396 -0.2633  0.1820 -0.1077
25735W        W43939  14.284   2.557  13.682  0.1707  0.0242 -0.2512
25736W        W43940   8.766  15.235   0.935 -0.3488 -0.0802 -0.4916
25737W        W43941   4.190  17.821   2.259 -0.0143 -0.1692  0.1544
25738W        W43942   3.976   0.417  14.580 -0.1519  0.1971 -0.0087
25739W        W43943  14.161  16.321  13.620  0.3127  0.2828 -0.0633
25740W        W43944   3.556  18.084  12.291  0.2784  0.2628 -0.0329
25741W        W43945  11.586   0.037   3.195 -0.2803  0.0191  0.1403
25742W        W43946  12.822  14.552  14.826 -0.2471 -0.0295  0.3090
25743W        W43947  10.080  15.899   2.133 -0.0611  0.2950  0.3074
25744W        W43948  10.255  12.827  12.299  0.0794 -0.1962 -0.0439
25745W        W43949  12.122   2.499   1.624 -0.0954  0.3147  0.2601
25746W        W43950   3.400  12.164  13.381 -0.0512  0.1714 -0.1539
25747W        W43951  16.076   9.549  10.123  0.0625 -0.1287 -0.1831
25748W        W43952   1.078   6.961  13.906  0.0496 -0.1358  0.1909
25749W        W43953  10.238   8.384   5.654 -0.0383 -0.0408  0.0348
25750W        W43954   5.830   3.287   0.549  0.1044  0.2765 -0.0809
25751W        W43955  12.343   3.900  11.539  0.1270  0.0649 -0.0942
25752W        W43956   2.604  11.267   3.923 -0.0543 -0.1788  0.1042
25753W        W43957  14.196  13.293   2.307 -0.0405 -0.0930  0.1231
25754W        W43958  11.082   5.218   0.858 -0.1002  0.1146 -0.2012
25755W        W43959  16.316   6.176  11.432  0.0870 -0.0564  0.2314
25756W        W43960   0.122  17.110  12.119 -0.3041 -0.1381 -0.3899
25757W        W43961   4.148   2.379   4.679 -0.1341  0.0437  0.2144
25758W        W43962  16.092   3.907   1.344  0.2267  0.0471 -0.0892
25759W        W43963   9.784  17.028  13.396 -0.2905  0.1883 -0.1646
25760W        W43964  13.440  11.023   4.356 -0.0080  0.1183 -0.2335
25761W        W43965   4.284   0.390   5.116  0.1543  0.2668 -0.0931
25762W        W43966   9.344   0.674  11.691  0.0574 -0.0278  0.4632
25763W        W43967   3.532  10.417   1.426 -0.0282 -0.1097  0.1564
25764W        W43968   9.283   7.552   1.486  0.2353  0.0138 -0.3221
25765W        W43969   4.099  10.598  10.910  0.2527 -0.0947  0.1551
25766W        W43970  12.985   4.953  11.059  0.0722  0.2337  0.1562
25767W        W43971  16.420   7.198  12.642  0.0646 -0.3967  0.0877
25768W        W43972  14.795  14.014  14.372 -0.2348 -0.0246  0.2914
25769W        W43973   6.695  18.824   0.721 -0.0087 -0.1156 -0.1539
25770W        W43974   9.998   9.253   0.077  0.3222  0.0729 -0.1429
25771W        W43975   4.556   3.653  14.403 -0.0950  0.1313 -0.3306
25772W        W43976  13.895  18.810   0.834  0.1444 -0.0140 -0.2189
25773W        W43977  12.705   3.039   3.069 -0.2781  0.4193  0.3566
25774W        W43978  13.100  12.111   4.380  0.0906 -0.1076  0.1733
25775W        W43979   8.328   3.032  11.919  0.2017 -0.0538 -0.4844
25776W        W43980  15.307  10.160  11.709 -0.2441 -0.1629 -0.0084
25777W        W43981   2.670   1.797   0.545  0.2419 -0.1211 -0.2610
25778W        W43982  13.472  17.977  13.482 -0.1431  0.0921 -0.0001
25779W        W43983  17.257   6.981   3.117 -0.0015  0.0204 -0.2001
25780W        W43984   9.293  13.993  13.327  0.1721 -0.0794  0.5482
25781W        W43985   0.763  15.994   0.388 -0.0081  0.0437 -0.2528
25782W        W43986   4.325  13.764  11.509 -0.3424 -0.0843  0.0343
25783W        W43987   6.915   9.046   3.396  0.1536 -0.0779  0.2562
25784W        W43988  17.926  12.995  14.773 -0.2552  0.2032  0.0142
25785W        W43989   7.045  13.033  14.729 -0.1849 -0.0550  0.2164
25786W        W43990   6.932  12.687   0.852  0.2009  0.0283 -0.3330
25787W        W43991  12.272  13.201   1.271  0.1187  0.3034  0.1009
25788W        W43992  11.738  15.437  10.716  0.1394 -0.1100  0.1016
25789W        W43993   5.489  11.820  10.235 -0.3119  0.0143  0.1793
25790W        W43994   0.512  17.057  14.576 -0.4550 -0.0784  0.3099
25791W        W43995  17.740  15.503  13.536  0.0161  0.2776 -0.2218
25792W        W43996  18.188   6.451  10.892  0.0310  0.1492  0.1148
25793W        W43997   2.051  17.257   3.214 -0.0299  0.2660  0.2349
25794W        W43998  18.225   8.903  11.105  0.0591 -0.1679  0.0350
25795W        W43999   6.473   7.952  13.763  0.1160 -0.0620  0.0468
25796W        W44000   6.816   7.476  11.784  0.0124  0.1438 -0.4038
25797W        W44001  18.154   3.496   1.410 -0.0757  0.0083 -0.0019
25798W        W44002  14.637  18.230  13.317  0.1496 -0.0941  0.0119
25799W        W44003   8.063  14.371  11.149 -0.2339  0.0544 -0.0567
25800W        W44004  11.944  13.232  13.759 -0.2350 -0.2096 -0.0757
25801W        W44005  16.758  12.812   3.409 -0.1012 -0.0510  0.0947
25802W        W44006  14.265  16.845  10.580  0.1932  0.1320 -0.0763
25803W        W44007   1.045   4.959  10.251  0.1657  0.0604 -0.1128
25804W        W44008   9.030  14.156  12.067 -0.2533 -0.1769  0.0457
25805W        W44009   7.338  13.866   3.505 -0.0357 -0.1799 -0.0898
25806W        W44010   8.995  14.338   1.190  0.2513 -0.1213 -0.0764
25807W        W44011  11.450   0.024   3.710 -0.2096 -0.1615  0.2455
25808W        W44012   1.124  17.936  10.225  0.1253 -0.0348 -0.0357
25809W        W44013   0.760  14.368   1.312 -0.0150  0.3808 -0.1669
25810W        W44014   0.428  10.487  14.202 -0.0058 -0.1512 -0.0592
25811W        W44015  18.669  15.630   2.776 -0.0357 -0.3762 -0.0452
25812W        W44016   9.564   4.207   2.001  0.1418 -0.1113 -0.2318
25813W        W44017   9.257  16.231  11.835 -0.0663  0.0384  0.0782
25814W        W44018   2.561   7.360  14.750 -0.3498 -0.4342 -0.0493
25815W        W44019  10.540   5.790   2.732 -0.1179 -0.1033  0.1818
25816W        W44020   0.769   5.318  11.299 -0.0951 -0.2194 -0.2183
25817W        W44021  16.777   1.568   0.717 -0.0295 -0.0525 -0.2634
25818W        W44022   7.324   7.575  11.005 -0.0468 -0.0402  0.1217
25819W        W44023   7.695  17.871  12.541  0.1183  0.2714  0.0702
25820W        W44024  12.255   4.284  14.155 -0.1539  0.0829 -0.2277
25821W        W44025  17.773   6.289   4.076  0.1932  0.0742 -0.3223
25822W        W44026  14.956  16.117  13.730  0.0888  0.0203  0.0064
25823W        W44027   5.544  12.661  12.161 -0.2294  0.0891  0.3387
25824W        W44028  11.689  14.206   3.714 -0.0959  0.3240  0.1126
25825W        W44029  16.068   5.916  14.803 -0.1960  0.0600  0.0307
25826W        W44030  14.778   6.206   5.035  0.2782 -0.1174  0.1300
25827W        W44031  15.893   6.057   4.605 -0.1254 -0.0839 -0.0047
25828W        W44032   3.275  17.672   2.243  0.0590 -0.0182  0.0520
25829W        W44033   2.580   7.366   1.760 -0.2048 -0.0861  0.2954
25830W        W44034   5.547  18.350   1.560 -0.1971 -0.1374  0.1419
25831W        W44035   5.856  16.612  10.458  0.0420 -0.0036  0.5085
25832W        W44036   7.677   4.342   4.040 -0.0624  0.0933  0.3804
25833W        W44037   3.543   7.917  12.490  0.1358  0.1587 -0.2465
25834W        W44038   5.723  16.185   3.252 -0.2447  0.1639 -0.1258
25835W        W44039  16.958   8.627   3.621  0.1521  0.2832  0.1046
25836W        W44040  18.341  11.979  11.694 -0.2955 -0.1182  0.0440
25837W        W44041  15.935  12.966  12.577 -0.2771  0.0598 -0.2147
25838W        W44042  13.592  10.007  14.331  0.1157  0.2035 -0.1669
25839W        W44043  18.636  10.160  11.858  0.0382  0.0986  0.1268
25840W        W44044   7.214   4.975   4.098 -0.3451  0.1803 -0.0779
25841W        W44045  15.335  17.567   0.725 -0.2643 -0.1526  0.1044
25842W        W44046  11.890  16.417   1.543 -0.1213 -0.4369  0.1219
25843W        W44047   2.589  12.585  14.795 -0.1377 -0.0129 -0.2985
25844W        W44048  18.813   7.931   4.372 -0.1770  0.0131  0.1667
25845W        W44049   3.750   2.362   1.165  0.0448  0.3067  0.1534
25846W        W44050  18.093  17.091   4.047  0.0116 -0.0376  0.3311
25847W        W44051  15.952   1.792   3.513  0.1118 -0.0444 -0.0878
25848W        W44052  11.102  13.003   1.197  0.1539  0.0334 -0.0450
25849W        W44053  13.579   0.391  13.562  0.2978  0.2800  0.4273
25850W        W44054  10.940  11.997   3.261  0.1028 -0.0753 -0.0937
25851W        W44055   5.865   0.046   3.092 -0.0560  0.1927  0.0936
25852W        W44056  18.482   0.789  11.166 -0.2451  0.0825 -0.1496
25853W        W44057  18.719   9.110   4.117  0.1639 -0.0420 -0.0728
25854W        W44058  16.707  10.395   2.089 -0.1874  0.0564  0.0008
25855W        W44059  18.881   2.309   3.666  0.0364 -0.1000  0.0481
25856W        W44060  15.053   3.307   9.826  0.0422  0.1745  0.1131
25857W        W44061  14.133   8.390   4.189 -0.2242  0.0604 -0.0097
25858W        W44062  16.755   6.023   5.250  0.2300  0.1493 -0.1637
25859W        W44063  15.606   3.813   3.693  0.1079  0.2402  0.0134
25860W        W44064  18.771   9.528   2.359  0.1795  0.0320  0.1677
25861W        W44065   9.105  16.043  11.341  0.1760  0.1501 -0.0474
25862W        W44066   3.712   9.287   0.064 -0.1172  0.0070 -0.4431
25863W        W44067   4.258   6.338   0.688  0.1448  0.2683  0.1200
25864W        W44068   9.458   7.875  13.357  0.1582 -0.0820  0.0886
25865W        W44069   8.333  11.170  13.414  0.2295  0.0421  0.0943
25866W        W44070   4.232  14.407   0.101  0.1504 -0.3418  0.0339
25867W        W44071   0.332   0.526  13.941  0.3858  0.2296  0.2878
25868W        W44072   8.200   3.238   4.987 -0.2505  0.1592  0.4066
25869W        W44073   0.083   8.273   0.408 -0.0872  0.0526  0.0287
25870W        W44074   2.530  10.366   3.632  0.2754 -0.1512 -0.0466
25871W        W44075  10.629  12.648  11.115  0.2945 -0.0021  0.0214
25872W        W44076  18.235  10.974  13.667  0.4082 -0.0102 -0.3722
25873W        W44077   5.532   3.942  10.700 -0.1252 -0.0217 -0.0754
25874W        W44078   4.108  17.350   1.190  0.1993  0.0538  0.1338
25875W        W44079  15.897  18.209   2.655 -0.2279  0.2042 -0.0075
25876W        W44080  12.585  15.553   0.780 -0.1202  0.2696 -0.0768
25877W        W44081  10.623   5.031  12.737 -0.0212 -0.0688 -0.1551
25878W        W44082   9.565   0.713   2.987  0.1515  0.3381 -0.0472
25879W        W44083   9.359  16.081  10.906 -0.1475  0.0911 -0.1297
25880W        W44084   9.172   0.627   4.390  0.1164  0.1175 -0.0283
25881W        W44085   2.128  10.441   1.158 -0.0026  0.0964 -0.2563
25882W        W44086   7.016  13.189  13.236 -0.0528 -0.0644  0.2863
25883W        W44087   3.763   4.569  13.077  0.0313  0.0401 -0.1562
25884W        W44088   6.680  14.628  13.464  0.1535 -0.0904  0.0466
25885W        W44089  18.856  11.637   0.863 -0.0722 -0.0003  0.1052
25886W        W44090   3.749  13.733  13.956  0.1486 -0.0196  0.1269
25887W        W44091  10.486  17.537  12.263  0.1138 -0.2734 -0.1583
25888W        W44092  11.779  18.639  11.751 -0.1875  0.0830 -0.3784
25889W        W44093   6.136  15.736   9.682 -0.3415 -0.1714  0.1159
25890W        W44094  13.714  13.825  11.089 -0.2793 -0.4792 -0.2969
25891W        W44095  12.719   7.556  11.364 -0.2162  0.3012 -0.3353
25892W        W44096  16.326   7.249  12.128 -0.3057 -0.1753  0.0400
25893W        W44097  11.199   7.713  10.382  0.0092  0.1179  0.0798
25894W        W44098  11.569  12.590   4.068 -0.3776 -0.0479  0.2581
25895W        W44099   7.333  15.751   1.583  0.0983 -0.1233  0.1035
25896W        W44100   1.264   7.657   2.611 -0.1364  0.1637  0.1593
25897W        W44101   8.757   4.551   2.347  0.1206 -0.1173 -0.0118
25898W        W44102  14.446  11.892   4.834  0.2613  0.0967 -0.1391
25899W        W44103   5.490   9.517   2.218 -0.0160 -0.3671 -0.0222
25900W        W44104   2.708  13.876   2.898  0.1674 -0.1860 -0.3127
25901W        W44105   7.570  14.657  13.850 -0.0817  0.0064 -0.0400
25902W        W44106  11.004   9.471  13.400 -0.0567 -0.1468 -0.1751
25903W        W44107   9.477  13.730   5.579 -0.0406 -0.2068  0.0514
25904W        W44108  16.984   5.158   1.295 -0.1167 -0.0300  0.0383
25905W        W44109   4.995   1.933   0.023 -0.2467  0.0283 -0.2510
25906W        W44110  13.027   1.393   4.242 -0.0674  0.1518  0.2550
25907W        W44111   3.984   7.350   1.794  0.0672  0.0360 -0.0679
25908W        W44112  17.972   0.403   3.441 -0.2025  0.3814 -0.2114
25909W        W44113  14.890  13.838  12.386 -0.2104  0.4679  0.1387
25910W        W44114   1.637   0.919   0.598  0.1802  0.0243  0.0008
25911W        W44115  16.870  15.690   3.240 -0.1511  0.1911 -0.1391
25912W        W44116   1.642  16.107  11.840  0.4344 -0.3262  0.3056
25913W        W44117  12.631   5.409  13.619 -0.0464  0.2280 -0.2732
25914W        W44118   0.522  17.685  12.947 -0.2328  0.2235 -0.2521
25915W        W44119   1.063  18.719   2.989 -0.0249 -0.3846  0.0222
25916W        W44120   7.989   0.439  11.719  0.2261 -0.2304 -0.0813
25917W        W44121   3.653   2.647   1.730 -0.2312  0.1508 -0.2668
25918W        W44122  17.459   0.893  11.212 -0.1194  0.0069 -0.3402
25919W        W44123  12.979  18.666  12.201 -0.4616 -0.4297  0.2604
25920W        W44124  12.347   9.518   3.706  0.0055 -0.0862  0.1168
25921W        W44125   1.228  17.025  13.894 -0.1280 -0.1743  0.1357
25922W        W44126   8.981  17.954  11.356 -0.0005  0.1976 -0.0487
25923W        W44127   3.045   7.246  14.873  0.2053  0.0597  0.0475
25924W        W44128   4.797   8.530   1.860 -0.0841  0.2526  0.0887
25925W        W44129   9.484   5.792  14.233  0.1666 -0.0923 -0.1458
25926W        W44130  17.661   3.074  12.288  0.1066 -0.1202 -0.0133
25927W        W44131   8.443  14.665   2.969 -0.2925  0.0678 -0.0070
25928W        W44132   4.375   4.494   2.083 -0.3439  0.1841  0.0836
25929W        W44133  11.375   4.232  13.253 -0.1140  0.0671 -0.1006
25930W        W44134   0.581  11.578   2.738  0.1071 -0.1181  0.0769
25931W        W44135  11.155   8.686  14.819 -0.0569  0.2285 -0.0310
25932W        W44136  16.698  14.512   4.015 -0.2481 -0.0291  0.1584
25933W        W44137  14.075  13.972  10.688 -0.1542 -0.4610 -0.1214
25934W        W44138   8.465   7.621   0.266  0.0245 -0.4440 -0.2451
25935W        W44139  16.088   6.260   3.214 -0.1374 -0.0409 -0.0906
25936W        W44140  11.172   1.478   1.149 -0.1347 -0.2165  0.2406
25937W        W44141   1.537   6.508  11.872 -0.0786  0.1653 -0.1997
25938W        W44142   8.512   0.062   0.600  0.3455  0.1485  0.0275
25939W        W44143   3.626  12.966  11.461 -0.0919 -0.0288  0.1834
25940W        W44144  15.601  15.665   2.371  0.3351  0.0312  0.0190
25941W        W44145   9.092   3.284   3.726  0.2755 -0.2650 -0.0335
25942W        W44146  12.806   0.674   2.132  0.1574  0.0950 -0.1077
25943W        W44147   5.678   4.329  13.567 -0.1159 -0.3647 -0.0126
25944W        W44148   8.110  17.550   1.354  0.0282 -0.2724  0.1685
25945W        W44149  12.366   7.790   3.705  0.5669 -0.0283  0.0179
25946W        W44150   0.295   7.665   1.472 -0.0852 -0.1724  0.1457
25947W        W44151  15.892   7.484  12.280  0.3429  0.1835  0.1929
25948W        W44152  18.332   8.270   0.056  0.3274 -0.0595  0.1744
25949W        W44153   5.175  15.087   1.168 -0.0351  0.1805 -0.0178
25950W        W44154   3.582   9.381  12.152  0.0247 -0.5924  0.2837
25951W        W44155  18.440   5.468   3.097 -0.0468 -0.3217  0.3802
25952W        W44156   2.255  10.925   0.984  0.2589  0.1297 -0.0868
25953W        W44157  16.071  15.576   2.097  0.0493  0.0998  0.0072
25954W        W44158  11.339  14.539   1.313  0.1400  0.0165  0.1767
25955W        W44159  14.065  18.144   4.012  0.2324 -0.0882  0.0253
25956W        W44160   6.838   7.200  12.187  0.0053 -0.1495 -0.1321
25957W        W44161   0.889  11.302   3.438 -0.2122  0.1109 -0.3260
25958W        W44162  16.580  17.867   0.091  0.0206  0.1635 -0.2546
25959W        W44163  15.260   5.951  11.109 -0.2628 -0.1758 -0.0224
25960W        W44164   5.574   3.886  12.489  0.0792  0.0716  0.1269
25961W        W44165  10.714  11.638  11.851  0.0482 -0.1242 -0.1128
25962W        W44166   9.623  10.229   0.391  0.1257 -0.1397  0.4821
25963W        W44167  14.419   1.954  13.942 -0.2169 -0.1622 -0.0188
25964W        W44168  15.210   1.392   1.045 -0.2144 -0.1297 -0.0228
25965W        W44169   6.211   4.384   0.301  0.2795  0.1987 -0.2213
25966W        W44170  16.265  18.225   4.005 -0.2965  0.1070 -0.0937
25967W        W44171  16.106   2.174  14.000  0.1442  0.1412 -0.1357
25968W        W44172  14.255   8.020  14.492  0.0923 -0.0782 -0.1537
25969W        W44173   9.615   5.418   0.845  0.0066 -0.0879  0.0978
25970W        W44174  18.264   5.371   1.860 -0.1987  0.2912 -0.2374
25971W        W44175  13.203  11.222  10.980  0.2739 -0.0241  0.1121
25972W        W44176  11.425  10.077  12.805  0.2167 -0.0457 -0.1641
25973W        W44177  12.013  17.229   0.762  0.3848 -0.0455  0.1636
25974W        W44178   9.191  16.837  14.364 -0.1309 -0.0542  0.2390
25975W        W44179   1.556   8.461   3.157  0.1803 -0.0134  0.0449
25976W        W44180   6.971   8.385  14.483  0.1387  0.1827  0.1185
25977W        W44181  15.284  16.065   3.953 -0.0788 -0.0735 -0.0031
25978W        W44182   1.437   1.443   2.254  0.0476 -0.1513  0.2013
25979W        W44183   9.487   3.112  10.680 -0.0046  0.1818 -0.2081
25980W        W44184  17.189   1.574   1.678 -0.3528 -0.1934  0.2353
25981W        W44185   7.976  12.933   2.683 -0.0008 -0.2384  0.0498
25982W        W44186  17.919  11.069   4.870  0.2415 -0.1519  0.0498
25983W        W44187  10.389  14.953  14.051 -0.0550 -0.0837  0.0249
25984W        W44188  14.631   5.716  11.560  0.1233 -0.1348  0.1679
25985W        W44189  12.265  12.797  11.748  0.0961  0.0898 -0.1124
25986W        W44190  13.267   5.330  11.211 -0.0230  0.1674  0.0606
25987W        W44191  17.954  18.151   9.295 -0.1059  0.1316  0.3963
25988W        W44192  15.568   4.340  14.711 -0.0313  0.0477  0.0172
25989W        W44193   4.507   3.957  12.841 -0.1666  0.2591  0.0637
25990W        W44194   5.421   7.175  13.946  0.0527 -0.1148  0.0708
25991W        W44195  15.426  15.861  13.517 -0.0362  0.2090  0.0037
25992W        W44196  12.178   1.738   4.713  0.1157  0.0920 -0.4590
25993W        W44197   2.566   2.348   0.627  0.2357 -0.3586 -0.0238
25994W        W44198   4.586   2.191  13.286  0.0016 -0.0866 -0.5028
25995W        W44199  13.893   5.446  15.007  0.1030 -0.2557 -0.1014
25996W        W44200   5.234  12.913   4.314 -0.0448  0.3436  0.5156
25997W        W44201   8.028   2.095  14.253  0.0558  0.1485  0.4202
25998W        W44202   3.737   5.313   1.816 -0.2083 -0.0979  0.1348
25999W        W44203  14.642   0.032  11.973 -0.4827  0.3218  0.5184
26000W        W44204   6.226  18.474   3.341 -0.2643 -0.1955  0.2616
26001W        W44205  15.303   3.083   0.597 -0.0433 -0.1697  0.2367
26002W        W44206   1.558   1.218  14.819  0.1859 -0.0844 -0.1017
26003W        W44207   9.004  18.753   0.546  0.5626 -0.1080  0.2062
26004W        W44208   6.762   7.932   1.768 -0.2460  0.1095  0.1058
26005W        W44209   7.653  16.327  10.491 -0.1053  0.2287  0.1697
26006W        W44210  16.083   3.164   4.124 -0.2320  0.2321 -0.2402
26007W        W44211   9.109   4.572  13.320 -0.1334  0.0635 -0.0240
26008W        W44212   2.468  17.114   4.060  0.0128  0.0591 -0.1562
26009W        W44213  13.677   4.691  14.356  0.0091 -0.3255  0.1242
26010W        W44214  17.917  17.822  12.882 -0.0593 -0.2423  0.2681
26011W        W44215  14.896  12.256  12.577 -0.0674  0.2921  0.0142
26012W        W44216  18.751  13.802  14.930  0.3179  0.2419  0.0588
26013W        W44217   2.461  12.701   4.248 -0.3567 -0.0628 -0.0098
26014W        W44218   5.206   5.028   1.612  0.2350  0.0083  0.0192
26015W        W44219   9.361  12.463  11.145 -0.2139 -0.1537 -0.0590
26016W        W44220  17.590  16.856   0.594  0.0227  0.1360 -0.4156
26017W        W44221  12.813  17.306  13.560 -0.2598  0.3876  0.0265
26018W        W44222  17.482  13.878  11.982 -0.0604  0.0713  0.0097
26019W        W44223  10.736   3.515   2.195  0.0165 -0.0588 -0.0863
26020W        W44224  14.226   3.351  12.365  0.3230  0.0008  0.2414
26021W        W44225  11.532   8.559  14.338 -0.6101 -0.1990  0.0797
26022W        W44226  13.085   2.913  12.876  0.0005  0.1154 -0.0757
26023W        W44227   2.896   2.052   0.908 -0.0704 -0.1173 -0.3373
26024W        W44228  12.320   8.592   3.179 -0.2663 -0.4231  0.3604
26025W        W44229   0.665  10.200  12.808  0.0012 -0.3095 -0.2632
26026W        W44230  18.390  10.787  10.728  0.1161  0.1445 -0.0052
26027W        W44231   1.018  11.499  13.827  0.0756  0.1966 -0.3070
26028W        W44232  17.571  12.423  11.407  0.1700 -0.0106  0.1436
26029W        W44233   2.886   9.246   4.223  0.0511  0.0988  0.1977
26030W        W44234  17.802   6.777  12.210  0.0013  0.0691 -0.3446
26031W        W44235  12.030  11.125  10.054  0.0343 -0.0073 -0.0780
26032W        W44236   0.385   3.837   2.591  0.1080 -0.0575  0.3359
26033W        W44237   4.285  15.003  10.754 -0.0669 -0.3759 -0.5563
26034W        W44238  11.156  16.442   1.631  0.0117  0.3973 -0.0737
26035W        W44239  18.096   6.951  12.659 -0.0113 -0.0700  0.1804
26036W        W44240  17.296   7.680  13.921 -0.0741  0.2247  0.0281
26037W        W44241   0.667  15.916  12.312  0.2766 -0.0279 -0.2050
26038W        W44242  10.436   4.764  11.549  0.1228  0.0773 -0.1894
26039W        W44243  13.664  14.721   2.316 -0.1506  0.2430 -0.3387
26040W        W44244  14.423   5.786   2.071 -0.0455  0.1027 -0.0893
26041W        W44245   8.802   1.874  11.451 -0.1228  0.1475  0.2744
26042W        W44246  16.912   1.454  11.467  0.1342 -0.0544 -0.0095
26043W        W44247  13.160   9.927   4.323  0.0756  0.1422  0.0871
26044W        W44248   3.721  16.920  10.962 -0.1259  0.0894 -0.1021
26045W        W44249   6.656  18.826   1.243 -0.3160 -0.0164  0.3780
26046W        W44250  17.231  11.458   1.722  0.1986  0.0414  0.3735
26047W        W44251  13.926   0.945  14.587 -0.0270  0.1942  0.2894
26048W        W44252  18.295  12.631  14.974  0.1158 -0.0268  0.0308
26049W        W44253   4.124   1.492   1.250  0.0790 -0.2900 -0.1870
26050W        W44254   9.570   4.834  13.609  0.0320 -0.1776  0.5234
26051W        W44255   8.656   2.220  13.939 -0.0898 -0.2254  0.0337
26052W        W44256   2.506  16.040   1.898  0.2152  0.0477  0.2126
26053W        W44257   9.884   4.189  14.076  0.1621 -0.1843 -0.0889
26054W        W44258   3.849  15.132   3.432 -0.0585 -0.0564 -0.0517
26055W        W44259  14.179  18.478   1.364  0.0669 -0.2356 -0.1562
26056W        W44260  15.534  11.076   1.477  0.3962  0.0381  0.2067
26057W        W44261   6.378   6.301   1.318  0.0473 -0.0413  0.0842
26058W        W44262   4.450   4.044  14.742  0.1936  0.0778  0.0691
26059W        W44263  12.864  15.947   0.830 -0.2843  0.2311  0.2570
26060W        W44264  13.581   9.690   2.971  0.3940 -0.1529 -0.1197
26061W        W44265   5.168   4.317  11.643 -0.0110 -0.0839  0.1025
26062W        W44266  15.394  14.033  10.948 -0.2701 -0.0200 -0.0929
26063W        W44267   5.013   3.583   0.563  0.1713 -0.2706 -0.2598
26064W        W44268   7.900   6.507  11.698 -0.1221  0.1380  0.0382
26065W        W44269  11.036   8.928   3.238 -0.2076 -0.0532  0.1557
26066W        W44270  11.967  10.032  14.003  0.1540  0.0639  0.2403
26067W        W44271   4.466   1.665  13.425 -0.0330  0.2268  0.2383
26068W        W44272  15.346  11.896  14.827 -0.1637 -0.0105  0.1386
26069W        W44273  13.425   5.152  11.618  0.0733  0.1485 -0.4976
26070W        W44274  18.258   5.870   0.093 -0.1353 -0.1223 -0.1998
26071W        W44275  11.714   6.886   0.954  0.1109 -0.1621  0.1181
26072W        W44276   5.858  18.296  12.953 -0.4102 -0.1074  0.3678
26073W        W44277  14.536  13.003  11.841 -0.0126  0.2850  0.0938
26074W        W44278  15.890   8.044   3.739  0.0719  0.1126 -0.1192
26075W        W44279  18.095  17.073  10.540 -0.0655  0.1484  0.0079
26076W        W44280  15.669   4.624  14.080 -0.0842  0.4905 -0.3952
26077W        W44281   6.521  18.513  12.669 -0.0518  0.0342  0.2676
26078W        W44282   9.483   1.331   2.681 -0.0283  0.0638  0.1353
26079W        W44283  10.913   9.427   3.450  0.1190 -0.0402  0.2499
26080W        W44284  15.542   3.380   0.303 -0.1533 -0.1443 -0.2681
26081W        W44285   4.126   1.368   2.392 -0.1650 -0.0678  0.0224
26082W        W44286  12.937  17.792  13.445  0.0422 -0.1358 -0.1001
26083W        W44287   7.811  16.117   0.321 -0.3309 -0.2369 -0.1371
26084W        W44288  10.249  12.009   2.461  0.0572 -0.0779 -0.0100
26085W        W44289   6.418  12.768  13.584  0.1204  0.0924 -0.5212
26086W        W44290   2.666   7.723  12.003 -0.2405 -0.1437  0.0172
26087W        W44291  13.408   5.863  12.854 -0.3486 -0.2694 -0.1184
26088W        W44292   4.585  10.323  13.482 -0.1288 -0.1547 -0.3579
26089W        W44293   4.012  17.333   2.163 -0.0796 -0.0722  0.0488
26090W        W44294  16.994  11.531   3.621 -0.0734  0.2026  0.1181
26091W        W44295  15.038  12.448  14.774 -0.1843 -0.0990  0.0259
26092W        W44296   5.325  12.697   1.552 -0.3578  0.2291  0.2709
26093W        W44297   2.377   7.693  10.197 -0.2980 -0.0671 -0.1446
26094W        W44298   2.153   3.393   0.829  0.0393  0.0375 -0.0675
26095W        W44299   1.850   5.841  14.046 -0.0259 -0.0995 -0.2237
26096W        W44300   6.310  12.394   4.032  0.1623 -0.3173  0.2558
26097W        W44301  15.370   6.476  11.094 -0.3048  0.4076 -0.1916
26098W        W44302   8.872  14.441  10.690 -0.3799  0.0393  0.1400
26099W        W44303   7.164   5.765   2.453  0.0900 -0.1918 -0.1656
26100W        W44304  15.892  14.957   1.753  0.2755 -0.0460  0.0833
26101W        W44305   6.768  10.072  10.855 -0.0356  0.0620  0.0754
26102W        W44306   2.237   5.665   4.967 -0.4283 -0.1833 -0.1680
26103W        W44307   1.612  18.063   2.259  0.2289 -0.2362 -0.1253
26104W        W44308  14.745   8.633   3.799 -0.0822 -0.0575  0.2433
26105W        W44309  16.444  18.608   9.459  0.0056 -0.2850 -0.0246
26106W        W44310   9.900   9.223  12.389  0.0352 -0.1747 -0.1491
26107W        W44311  13.475  18.485  12.341  0.1795  0.2319  0.0737
26108W        W44312   4.076   8.611  12.285 -0.1635 -0.0716 -0.0543
26109W        W44313  12.196   2.440   2.553  0.2120 -0.0569 -0.1552
26110W        W44314   4.762   6.171  13.198  0.1644  0.0893 -0.3094
26111W        W44315  15.933   5.103  12.805 -0.0764  0.0294  0.1503
26112W        W44316  18.917   4.052  11.625 -0.0445  0.3237 -0.1444
26113W        W44317   3.980  13.325   1.531 -0.1941  0.1274  0.0538
26114W        W44318  10.089   8.927   2.147 -0.0599  0.1299 -0.0015
26115W        W44319  11.524  18.283  13.269 -0.0509 -0.0055  0.0837
26116W        W44320  18.125   3.692   4.617 -0.4497  0.2331  0.0738
26117W        W44321   9.591   3.666  11.367 -0.0785  0.1508  0.0506
26118W        W44322   7.825  10.907   3.806  0.0881 -0.1541  0.1251
26119W        W44323   4.914  16.440  10.990 -0.1305  0.2472  0.2524
26120W        W44324  17.878  16.211   0.808  0.2121  0.3326 -0.0340
26121W        W44325  14.192  17.386  14.455  0.3468  0.0273 -0.0017
26122W        W44326  17.273  17.793   2.539 -0.0505 -0.1800 -0.1962
26123W        W44327   2.121  12.331  14.747  0.0401 -0.0935  0.3658
26124W        W44328   8.415  13.575   2.085  0.0574  0.1950  0.2376
26125W        W44329   4.159  14.430  10.908  0.2160  0.0975  0.0377
26126W        W44330   8.148   5.076  13.534 -0.1527  0.0587  0.1619
26127W        W44331   7.302  14.469  14.811  0.1081  0.1544 -0.3096
26128W        W44332  15.359   0.539  13.464 -0.0128  0.1126 -0.3319
26129W        W44333   4.269  12.292  11.455  0.0562 -0.0553  0.0975
26130W        W44334   6.386  16.998   2.857 -0.1409  0.0742 -0.0502
26131W        W44335   0.762  18.218   1.897  0.0521 -0.2502  0.1103
26132W        W44336  14.997  17.528   1.837 -0.1109 -0.2858  0.3040
26133W        W44337   1.813  13.826  12.887 -0.0691 -0.0643  0.0464
26134W        W44338   7.881  16.659  14.568  0.2730  0.1635  0.1604
26135W        W44339  18.746  11.042  14.433 -0.0295 -0.0360 -0.1236
26136W        W44340   2.402   3.619   3.531 -0.1641 -0.1351  0.0084
26137W        W44341   0.383   2.451   3.857 -0.1208 -0.1264 -0.0514
26138W        W44342  11.053   7.097   0.046  0.0246 -0.1717 -0.3923
26139W        W44343  11.063  18.592  14.434  0.1152 -0.1334 -0.2171
26140W        W44344   3.138   2.827   2.314  0.1818 -0.1320 -0.0398
26141W        W44345   3.323  18.922  10.475 -0.2104 -0.0476  0.0171
26142W        W44346   7.194   4.773   0.658  0.0050 -0.2470  0.1667
26143W        W44347  12.489   8.846  10.855 -0.0238 -0.0731 -0.1021
26144W        W44348   4.019  11.828   3.559  0.0257 -0.2456 -0.1124
26145W        W44349   6.362   2.097  14.672  0.1336 -0.5130 -0.1248
26146W        W44350  11.192   9.346   2.484 -0.2413  0.2587  0.1939
26147W        W44351  18.745   0.449   4.198 -0.0766  0.0267  0.1795
26148W        W44352   6.913   4.120  12.239 -0.2477  0.0253 -0.1709
26149W        W44353  18.691  12.563   3.566  0.1005  0.1568 -0.0861
26150W        W44354   1.425  14.210   4.814  0.2323  0.1212  0.0821
26151W        W44355   6.990  14.388  13.234  0.1199 -0.2657  0.2284
26152W        W44356   8.011   0.974   3.640  0.0971  0.5265  0.2016
26153W        W44357  17.699  16.100   0.146  0.0374  0.1565 -0.1087
26154W        W44358  18.484   2.674   4.624 -0.1691  0.0409 -0.1839
26155W        W44359  16.347  17.478   3.396  0.0669  0.1964  0.0156
26156W        W44360   2.789  13.400   3.673  0.0425 -0.2029 -0.3084
26157W        W44361   5.502  18.672  14.259  0.1134 -0.2797 -0.1629
26158W        W44362  10.441   9.254  13.784  0.2318  0.2270 -0.2210
26159W        W44363  10.032   0.703  12.908  0.1020  0.0809  0.0251
26160W        W44364  12.099  17.292   4.117 -0.0862  0.0023  0.0357
26161W        W44365   3.859  18.267  13.546  0.1104 -0.2063 -0.2294
26162W        W44366   6.083   5.001  11.843  0.3816  0.0219  0.0613
26163W        W44367   6.752   9.354  10.424  0.3270 -0.0287 -0.0901
26164W        W44368   5.213  14.433   3.852 -0.0782  0.2757  0.1500
26165W        W44369   5.981  13.174   1.954  0.6377 -0.0921  0.1844
26166W        W44370  17.760   5.531   4.035  0.0754  0.0957 -0.2025
26167W        W44371   5.786   1.569   3.871 -0.1222  0.1615 -0.0356
26168W        W44372   8.708  13.808  12.058  0.0809  0.3206 -0.2077
26169W        W44373  18.906   9.405  11.274 -0.0461 -0.1897  0.0399
26170W        W44374   9.982  11.372   9.939 -0.3505 -0.0142  0.0929
26171W        W44375  16.966   6.436  13.743 -0.0873 -0.1530 -0.1203
26172W        W44376   3.070   9.053   2.769 -0.2402  0.3799  0.3907
26173W        W44377   6.545   5.121  12.030  0.2086  0.1141 -0.0748
26174W        W44378  10.439  16.433  13.732 -0.2969 -0.2734  0.0596
26175W        W44379   1.070   9.722  14.685 -0.3122  0.0981 -0.0221
26176W        W44380   3.583  17.272  11.951 -0.0499  0.0614  0.2618
26177W        W44381  16.767   2.331   2.087  0.0756 -0.1725  0.1052
26178W        W44382  13.497  17.108  11.011 -0.2390 -0.0509  0.0376
26179W        W44383   9.937  17.224   2.778  0.1154 -0.1211  0.1521
26180W        W44384   2.171   1.125  14.300 -0.0153  0.1331 -0.1966
26181W        W44385   0.205   7.488  12.765  0.0767  0.0754 -0.2414
26182W        W44386   2.822  10.743   3.420 -0.3062 -0.1945  0.2848
26183W        W44387  15.566   9.931   4.178  0.0738  0.2100 -0.1662
26184W        W44388   9.191  18.026  14.406 -0.2363 -0.1126  0.2038
26185W        W44389  13.762  18.148  14.020  0.0423  0.2060  0.2766
26186W        W44390  11.773   0.873   1.056  0.1468  0.1774  0.0663
26187W        W44391  12.607  11.190   4.874  0.1999 -0.1568  0.2378
26188W        W44392   5.193  12.059   3.596  0.2931  0.0162  0.1601
26189W        W44393  10.256  10.178  10.644  0.0281 -0.4388 -0.0609
26190W        W44394  18.502   1.802  10.984 -0.0648 -0.1897 -0.0334
26191W        W44395  16.999  18.346   2.971 -0.0269  0.1777 -0.1188
26192W        W44396   7.929  10.816   0.104  0.1760  0.0933 -0.1305
26193W        W44397  11.003  18.612  13.262  0.0474  0.1007  0.0398
26194W        W44398  17.217  13.462  13.317  0.0941 -0.2286 -0.3755
26195W        W44399  10.933   4.728   3.058  0.0637 -0.0178  0.0084
26196W        W44400   7.492   6.370   2.823  0.3421  0.0407  0.1069
26197W        W44401   9.491  10.930  13.024  0.0218  0.1987 -0.3974
26198W        W44402   7.352  15.687  12.134 -0.1649 -0.2639  0.0866
26199W        W44403  18.398  14.611   2.393 -0.0618 -0.0325  0.2698
26200W        W44404  12.030   0.111   3.052 -0.5469  0.1208 -0.1312
26201W        W44405  18.789   6.469  10.639 -0.1873 -0.0043 -0.1321
26202W        W44406  13.596   3.956   2.409  0.3232 -0.1698  0.2428
26203W        W44407  10.555   3.527   0.006  0.4104  0.1080 -0.1478
26204W        W44408   1.585  16.055   2.369  0.3666  0.0579 -0.3831
26205W        W44409  10.295  18.871  10.313  0.0653  0.0899 -0.2614
26206W        W44410   9.444  18.564  10.711  0.0390 -0.2496  0.0863
26207W        W44411   8.511   2.396   2.488 -0.2337 -0.3184 -0.4302
26208W        W44412  14.629   4.904  11.647  0.0437 -0.2430  0.0516
26209W        W44413  16.170   7.812  13.704 -0.0423 -0.0184  0.2684
26210W        W44414  13.966  17.472   0.503 -0.1961 -0.2498  0.0484
26211W        W44415  18.378   3.074  14.226  0.0675  0.0587 -0.5622
26212W        W44416   0.090   0.590   2.908  0.0776  0.0451  0.2408
26213W        W44417  11.706  13.700   0.007 -0.3476  0.3024  0.1099
26214W        W44418  16.181   8.959   3.522 -0.1232  0.0582 -0.1143
26215W        W44419  14.821   4.055   1.539  0.1542  0.1825 -0.4752
26216W        W44420  18.038   4.980  14.214 -0.1320 -0.1153 -0.0156
26217W        W44421  18.025   2.108   2.572  0.1594 -0.5359  0.0639
26218W        W44422  15.963  12.351  11.807 -0.0523  0.2415 -0.0676
26219W        W44423   0.679   6.365  13.586 -0.0981 -0.1864 -0.1999
26220W        W44424   3.623  14.188  13.324 -0.1207  0.3039  0.1965
26221W        W44425  14.799  11.874  12.978  0.2093 -0.3039 -0.0434
26222W        W44426  17.489  16.644   2.370 -0.1121 -0.0776  0.1988
26223W        W44427  14.996  17.326   2.372 -0.0428 -0.2455 -0.1293
26224W        W44428   2.076  13.728   0.853  0.2408 -0.2122 -0.0473
26225W        W44429  15.500   5.257   2.368 -0.3096  0.0050  0.1320
26226W        W44430   6.260  16.534   2.996 -0.0650  0.2440 -0.0265
26227W        W44431   4.853  14.636  14.332  0.0822 -0.1043  0.0685
26228W        W44432  15.229  15.515   0.962  0.1689 -0.1763  0.2461
26229W        W44433  10.358   2.604   1.144 -0.1543  0.3831  0.0090
26230W        W44434  13.357   5.516  14.587 -0.0315 -0.1552 -0.2204
26231W        W44435  14.164  12.636  11.985 -0.1869 -0.1107 -0.0706
26232W        W44436   5.584  14.983  11.070  0.0881  0.0470  0.0724
26233W        W44437   6.878  18.920  14.870 -0.4077 -0.2772  0.0734
26234W        W44438  18.648   5.965   3.108 -0.1682  0.1324 -0.1362
26235W        W44439   1.300   8.415  11.972  0.0873 -0.0105 -0.0723
26236W        W44440   5.809   4.355   1.208 -0.1695 -0.1868 -0.1511
26237W        W44441   6.345  12.386  12.228  0.2364  0.1566 -0.1714
26238W        W44442   4.616   5.231  13.564  0.0916 -0.1221 -0.0102
26239W        W44443  12.187  18.406  14.806  0.0200  0.2589  0.2212
26240W        W44444   7.181  13.227   2.668  0.1217  0.1158  0.0429
26241W        W44445   8.619   2.273  13.385  0.1059  0.0036  0.0189
26242W        W44446   6.865   4.351  11.598 -0.1559  0.1621  0.0307
26243W        W44447   4.198  10.623  13.489 -0.0146  0.0259 -0.0075
26244W        W44448  18.126   9.817   3.426 -0.2988 -0.1905 -0.0319
26245W        W44449  17.440  11.213   3.030 -0.0857 -0.0049 -0.2772
26246W        W44450  18.072  13.439   0.560 -0.0443 -0.1309  0.0565
26247W        W44451   5.561  16.902  14.770 -0.0562  0.5587 -0.0376
26248W        W44452   4.104  18.130   1.863 -0.1883 -0.3613 -0.1579
26249W        W44453  10.846   6.618   1.179 -0.2167 -0.1858 -0.1186
26250W        W44454  10.908   2.088  14.016  0.2446  0.0356  0.0476
26251W        W44455   4.383   1.924   4.517 -0.1240 -0.1514 -0.0368
26252W        W44456   1.052   6.025   3.821  0.3455  0.1872 -0.4086
26253W        W44457   8.118   1.162   2.109 -0.2658 -0.0970  0.4155
26254W        W44458  15.560   9.856  14.680  0.3286  0.0425  0.0554
26255W        W44459   8.664  16.806   0.290  0.2829  0.2302 -0.2944
26256W        W44460  14.144  13.542  12.682 -0.2250 -0.2151  0.0295
26257W        W44461   9.852   1.619   0.615  0.1193  0.1720 -0.0783
26258W        W44462  18.840   1.224   1.345 -0.0817  0.0399  0.4106
26259W        W44463   9.209   5.990  13.421 -0.1246 -0.1036  0.0880
26260W        W44464   3.768   5.230   4.111  0.0622 -0.0419  0.0132
26261W        W44465  11.357   3.168   0.806 -0.1104 -0.2681  0.1765
26262W        W44466   0.530  12.648  12.359 -0.0688  0.0830  0.3223
26263W        W44467  14.059  12.873   1.383 -0.1823 -0.1567 -0.2081
26264W        W44468   2.431   0.031   3.084  0.0621 -0.0002 -0.3366
26265W        W44469  13.374   5.257   4.175 -0.1534 -0.2878 -0.0625
26266W        W44470   0.026  18.625  14.087 -0.1725 -0.0140  0.0644
26267W        W44471   9.744  13.360   2.946  0.1256 -0.3247 -0.0145
26268W        W44472  11.284   3.434  12.848  0.0224  0.1569 -0.2445
26269W        W44473   7.697   3.970  11.834 -0.0663 -0.2333 -0.5254
26270W        W44474  17.180  18.467  11.776  0.1505  0.3541  0.1082
26271W        W44475   7.874   6.862  13.698  0.0226 -0.2010  0.0086
26272W        W44476   4.231  13.124   9.756 -0.0863  0.0522 -0.2720
26273W        W44477   7.792  12.620  11.037 -0.0330 -0.1890  0.0816
26274W        W44478   3.739   3.288  13.731  0.0517  0.0431  0.3165
26275W        W44479  17.617   3.034  13.656  0.2858 -0.1377 -0.0804
26276W        W44480   6.826  13.723   2.797 -0.3836  0.2345  0.0856
26277W        W44481   9.246  13.519  10.803 -0.2711 -0.1263  0.0342
26278W        W44482   4.158  13.454  12.000  0.2926  0.1855 -0.0609
26279W        W44483  12.054  17.894  14.620 -0.4306  0.0753 -0.1998
26280W        W44484  11.749   0.295   4.087  0.2475  0.1907  0.0851
26281W        W44485   6.677  14.382  14.858 -0.1941 -0.0411 -0.0249
26282W        W44486   8.631  15.439   4.231 -0.0620 -0.2746  0.0220
26283W        W44487   7.702   2.969   3.710 -0.1322  0.1144 -0.1566
26284W        W44488   6.769  11.341   1.309  0.2363  0.0502  0.1152
26285W        W44489  18.143   6.141   0.504 -0.1196 -0.1316 -0.0377
26286W        W44490   8.003   1.563  13.911 -0.1410  0.1130 -0.3265
26287W        W44491  16.694   8.721   4.627  0.0098  0.0942  0.2028
26288W        W44492   9.268  11.384   0.700  0.4409 -0.1633 -0.1296
26289W        W44493  10.412   6.798   2.997  0.0837  0.3347  0.0724
26290W        W44494  16.088   8.359   1.986  0.1610  0.1251 -0.3297
26291W        W44495  12.328  14.342  14.593  0.2539  0.2091 -0.2662
26292W        W44496   2.915   2.880  14.136  0.1204  0.2516  0.3022
26293W        W44497   6.450   6.304   3.645  0.0762  0.3023  0.1948
26294W        W44498  12.795   4.425   3.189  0.2009  0.2151  0.2034
26295W        W44499   5.856   7.366   1.587  0.1642  0.1306 -0.2468
26296W        W44500   6.092   6.138   2.420  0.3513 -0.1838 -0.0746
26297W        W44501   9.141  11.337   1.484  0.0849 -0.0985 -0.2208
26298W        W44502  12.505  15.069  12.285 -0.1826  0.3399  0.0384
26299W        W44503  18.076   4.860  10.926 -0.4197 -0.4153  0.0551
26300W        W44504   4.369   6.481   1.711  0.0378 -0.4084 -0.2937
26301W        W44505   2.876  14.525   3.899  0.1757  0.0880 -0.1000
26302W        W44506   9.891   1.186   4.731 -0.0832  0.0258  0.1778
26303W        W44507  12.294   4.586   0.629  0.0971 -0.1235  0.1021
26304W        W44508  11.227   1.153  10.785 -0.1598 -0.1492  0.1678
26305W        W44509  15.892   7.723  11.261  0.2821 -0.4748  0.0170
26306W        W44510  16.793  10.020  11.166  0.2155  0.0209 -0.5054
26307W        W44511  16.941   7.467   1.311  0.1480  0.2428  0.1395
26308W        W44512  15.911   7.278   1.332  0.0014  0.1574 -0.0837
26309W        W44513  13.023  17.302  11.771  0.0702  0.1954  0.1166
26310W        W44514  15.502  14.594  11.594  0.2631  0.4460  0.0153
26311W        W44515   9.751   1.882  11.706 -0.0544 -0.1164 -0.2419
26312W        W44516   9.648  18.882   2.773 -0.1955 -0.3422  0.0775
26313W        W44517  12.394   7.827   0.249  0.2486  0.0079  0.3143
26314W        W44518  10.820   5.688   3.541  0.1410 -0.2271 -0.1843
26315W        W44519  17.762   3.611   1.093 -0.1011 -0.1052 -0.1614
26316W        W44520   5.808  15.705  11.521 -0.0513  0.2056 -0.0845
26317W        W44521   5.198  11.330   4.819  0.3947 -0.1234 -0.2277
26318W        W44522   5.120   2.152   0.856  0.1077  0.2697 -0.2036
26319W        W44523  11.297   9.087   3.624  0.0188 -0.1597  0.1122
26320W        W44524   9.371  11.826   3.992  0.3035 -0.0675 -0.0385
26321W        W44525  10.524  17.608  11.379  0.1323  0.1027 -0.0596
26322W        W44526   4.275   2.054  11.468 -0.1268 -0.0177 -0.1970
26323W        W44527   2.780  13.230  11.987 -0.1992  0.0478 -0.1068
26324W        W44528   1.346   2.033  14.977 -0.1376 -0.0890  0.2324
26325W        W44529  17.739  17.600   9.675 -0.0068 -0.0932 -0.1167
26326W        W44530  16.965  16.226  13.708 -0.0417  0.0061 -0.0493
26327W        W44531   8.702   9.601  13.404 -0.0845 -0.0020 -0.1099
26328W        W44532  10.598  18.546   2.109  0.0366  0.0253  0.1561
26329W        W44533  10.550  18.303  13.038 -0.0796  0.2395  0.0065
26330W        W44534  11.677  17.990  12.927 -0.2729  0.2823  0.5153
26331W        W44535   6.328  13.701   2.710 -0.4113 -0.2357  0.0724
26332W        W44536  17.087  13.481   1.795  0.1162 -0.0074  0.2755
26333W        W44537  11.063   7.134   3.935 -0.1527  0.0831 -0.2112
26334W        W44538  14.219  16.916   2.572 -0.1265  0.1819 -0.3132
26335W        W44539   1.906   1.755  11.079  0.1481  0.2058 -0.2773
26336W        W44540   1.283  16.574   0.010 -0.1607 -0.3811 -0.5015
26337W        W44541  10.242  10.635   4.717 -0.2622 -0.0341 -0.1150
26338W        W44542  15.059  16.977  11.912 -0.0737  0.0996  0.1489
26339W        W44543  13.428   3.555  11.642  0.0231 -0.2503 -0.0866
26340W        W44544   8.768  17.206  14.533  0.1164  0.2088  0.1727
26341W        W44545   8.474  16.808  13.112 -0.1694  0.2575 -0.2341
26342W        W44546  11.802   0.163   0.363  0.4445 -0.2455 -0.0274
26343W        W44547   5.351   0.541  14.457  0.0555  0.0639  0.0009
26344W        W44548   0.681   7.028   1.951 -0.3615  0.3714 -0.2800
26345W        W44549  17.868  10.668  13.919  0.1234  0.1230 -0.0690
26346W        W44550   9.628   0.231   3.244 -0.1196 -0.0538  0.1650
26347W        W44551   6.072  12.627  11.855  0.1789 -0.1175 -0.1581
26348W        W44552   1.514  15.895   3.287  0.2177 -0.2071  0.6882
26349W        W44553  12.369   9.731  10.219  0.1818 -0.0485  0.5429
26350W        W44554  17.153  14.527   4.319 -0.1638  0.0479 -0.4019
26351W        W44555   1.895  15.397  14.822  0.3393  0.0184 -0.1194
26352W        W44556   3.191   1.294   4.121  0.0689 -0.1861  0.2321
26353W        W44557   7.074  17.462  13.920  0.0325  0.0044 -0.2681
26354W        W44558   8.179  11.412   2.998 -0.2684 -0.0260  0.0410
26355W        W44559  16.527   7.473  13.517  0.0531  0.0365  0.0904
26356W        W44560  14.458  12.664   3.390  0.0471  0.0656 -0.0107
26357W        W44561   3.290   8.007  15.010 -0.0623  0.1278  0.0412
26358W        W44562   8.155   2.524   2.987 -0.0115  0.0804  0.0417
26359W        W44563  17.278   5.758   0.548  0.1577  0.3759  0.3491
26360W        W44564   3.026   8.296   0.882  0.1000  0.0010  0.1342
26361W        W44565   0.934   1.196   2.996  0.2057  0.0735 -0.1346
26362W        W44566   6.168  16.923  11.700  0.0417 -0.0159 -0.1079
26363W        W44567  16.517   7.653   2.725  0.1198 -0.2318  0.1628
26364W        W44568   6.366  16.281  15.021 -0.0865  0.2337  0.1423
26365W        W44569  17.529  12.451   0.918  0.0621 -0.0099  0.1550
26366W        W44570   5.887   9.548   1.907 -0.0659  0.0670 -0.0376
26367W        W44571  17.700   0.884  10.785 -0.0091  0.0324  0.1330
26368W        W44572   9.870   0.737   3.396 -0.3541 -0.2427  0.0084
26369W        W44573  15.744  15.220   3.487 -0.1694 -0.0736 -0.2908
26370W        W44574  18.695  18.681  12.729  0.0239 -0.1404  0.1800
26371W        W44575   0.690   8.651  10.363 -0.3084 -0.1749  0.1843
26372W        W44576  16.192  10.983  11.882  0.1956 -0.1569  0.2314
26373W        W44577   7.642   5.279  11.319 -0.2050 -0.0251  0.1833
26374W        W44578  18.557  14.189   9.736 -0.1033  0.2392 -0.0013
26375W        W44579  16.148  17.856  12.512  0.1613 -0.3083  0.0184
26376W        W44580   2.337  18.892  10.627 -0.0739 -0.2618 -0.0065
26377W        W44581  18.215  10.693   3.314 -0.0729 -0.0309  0.0292
26378W        W44582  18.224  15.758  11.497  0.0497 -0.4278 -0.0295
26379W        W44583   7.148  11.962   2.545  0.0243  0.0602 -0.2511
26380W        W44584  18.860  17.005  13.774 -0.1152 -0.0699  0.0051
26381W        W44585   1.231  15.696  11.535  0.0612 -0.0504  0.2048
26382W        W44586   4.847   9.643   0.873 -0.0367 -0.0098  0.2594
26383W        W44587  13.429   7.795  14.313 -0.1246 -0.1430  0.1303
26384W        W44588   6.403  18.222  13.039 -0.4534 -0.3653 -0.2204
26385W        W44589   0.029   8.792  14.719 -0.0717  0.3029  0.0728
26386W        W44590  11.906  18.172  11.072 -0.4112  0.2227 -0.2873
26387W        W44591  15.595  10.066  14.086  0.1878  0.2285  0.1623
26388W        W44592   2.947  11.036   4.242  0.1391 -0.0585  0.1249
26389W        W44593   6.688  10.995   4.712  0.2308  0.0344  0.2014
26390W        W44594  11.782   3.155  12.716  0.3256 -0.0349 -0.1025
26391W        W44595   3.837  11.142   2.474 -0.1132  0.1379 -0.1219
26392W        W44596   9.092  13.468   4.558  0.3277 -0.0541  0.2396
26393W        W44597   0.526  11.093  14.921  0.5134  0.2543  0.0063
26394W        W44598   5.076  11.542  13.030 -0.2763 -0.4314  0.0233
26395W        W44599   2.483  13.009   3.786 -0.0654 -0.0277 -0.1753
26396W        W44600   9.903  10.002   3.031 -0.2922  0.2192  0.0904
26397W        W44601  10.873  12.048  14.897 -0.1020 -0.1852  0.0048
26398W        W44602   5.648   7.119  10.855 -0.1173 -0.1555 -0.0108
26399W        W44603  11.341  11.284   2.223  0.0510  0.3157  0.0238
26400W        W44604  17.814  16.325   2.236 -0.0884  0.3649  0.1023
26401W        W44605   1.370   9.242   1.598  0.0504  0.1837 -0.0523
26402W        W44606   5.835  11.940  13.305 -0.0564  0.0675  0.0219
26403W        W44607  17.360   2.869  12.637 -0.1756  0.0503 -0.0286
26404W        W44608  16.202   8.835   4.743  0.0468 -0.0573  0.2087
26405W        W44609  14.685   3.793  11.110  0.0161 -0.0161  0.1918
26406W        W44610   0.146  16.449  14.015  0.3334  0.2130 -0.1061
26407W        W44611  10.664  11.021  10.402 -0.0221  0.0453 -0.1593
26408W        W44612   8.034  11.852   1.763  0.1178 -0.1352  0.0760
26409W        W44613   9.893  14.045  11.638 -0.0194  0.2896  0.4007
26410W        W44614   3.888  11.355  14.496  0.0654 -0.0942  0.1065
26411W        W44615  15.493   0.135  11.352  0.0221 -0.3905  0.0777
26412W        W44616   0.955   6.834  12.104  0.2852  0.2709 -0.1897
26413W        W44617  10.190   3.619  14.608  0.1358 -0.0365 -0.2228
26414W        W44618   1.867  11.536   2.620  0.0972  0.3826  0.3789
26415W        W44619   8.272   9.368  11.390  0.2198  0.1198  0.0226
26416W        W44620   8.624   5.210   4.600 -0.0580 -0.0168 -0.0356
26417W        W44621  18.451   8.509  14.659 -0.0832 -0.0323  0.1837
26418W        W44622   8.810   0.843   2.985  0.0746 -0.2395 -0.0741
26419W        W44623  17.726   7.643   3.328 -0.3167 -0.1524 -0.0897
26420W        W44624  11.412   8.810  13.912 -0.0604 -0.3193 -0.0589
26421W        W44625  11.773  10.591   2.876  0.1069 -0.1734 -0.2037
26422W        W44626  18.857  12.108  13.540  0.2847 -0.3094 -0.2379
26423W        W44627   8.052  10.094   1.690  0.1579  0.0440 -0.0501
26424W        W44628  15.077   7.591   2.949  0.1446 -0.1772  0.0143
26425W        W44629  10.873  12.696   4.017  0.3050 -0.0092  0.0648
26426W        W44630   0.027   0.119   0.345 -0.0183 -0.3416  0.0239
26427W        W44631  17.105   7.216   4.157  0.4441 -0.1892  0.2032
26428W        W44632   7.505   0.643   2.433  0.1382 -0.1024  0.0703
26429W        W44633  13.130  14.046  12.254 -0.1878 -0.0650  0.0421
26430W        W44634  10.276  15.393   4.254  0.2689  0.3205  0.3787
26431W        W44635  12.107  12.499   0.409 -0.0345 -0.1754  0.1581
26432W        W44636  13.157  12.508   1.455  0.0461 -0.1379 -0.1351
26433W        W44637  15.215   4.744   0.356  0.1250 -0.5470 -0.1429
26434W        W44638   5.845  12.165  12.166 -0.0712 -0.3477  0.2959
26435W        W44639   4.506  16.829   2.733 -0.0606 -0.1005 -0.2829
26436W        W44640  10.341   4.414   3.149  0.1713 -0.0778 -0.0126
26437W        W44641  16.036  11.370   3.369  0.1718  0.2375  0.1270
26438W        W44642  16.740  11.851   0.930  0.3205 -0.0463  0.0890
26439W        W44643  16.644   3.007   4.190 -0.0376  0.2158  0.0862
26440W        W44644  18.645  10.150   2.032  0.1648  0.0011  0.1448
26441W        W44645   1.547   3.307   9.987  0.2551 -0.1382 -0.2039
26442W        W44646   8.742   0.545   1.195 -0.0482 -0.1595  0.0942
26443W        W44647   0.612   7.772   2.262  0.1978  0.0921  0.0204
26444W        W44648  10.998   1.956   0.189 -0.1454 -0.0286 -0.2542
26445W        W44649  18.753  16.224  11.592  0.0714  0.0514 -0.0759
26446W        W44650   4.547   2.363   4.988  0.3346  0.2840  0.1620
26447W        W44651   1.866  18.420  14.708  0.0905  0.2292 -0.0627
26448W        W44652  15.563   5.507  13.000  0.0341 -0.3874 -0.3559
26449W        W44653  13.922   2.476  13.341 -0.0800 -0.2496 -0.0432
26450W        W44654  10.343   9.491  12.470 -0.1122  0.4828  0.0352
26451W        W44655  13.860   0.783   2.664 -0.2815 -0.0653  0.1762
26452W        W44656   6.321   0.963  13.974  0.3119 -0.0309  0.2311
26453W        W44657  16.717  18.899   1.062 -0.2910 -0.1078 -0.4459
26454W        W44658   3.210  17.208   0.397 -0.0125 -0.0017  0.3797
26455W        W44659   9.395   1.057   3.920  0.2389  0.0225 -0.0444
26456W        W44660   0.816  11.380   1.134 -0.0567  0.3042  0.4738
26457W        W44661   4.636  11.033  11.922  0.1324 -0.0872 -0.3922
26458W        W44662  11.358   4.088  12.776 -0.1118 -0.1126 -0.1226
26459W        W44663  18.754   4.883  14.151  0.0004 -0.2063  0.0191
26460W        W44664  14.597   7.987   0.513 -0.2322 -0.1978  0.0404
26461W        W44665   6.692  11.266  11.855  0.1962  0.0095  0.3100
26462W        W44666   6.792  18.827   4.892 -0.4395  0.2518  0.0315
26463W        W44667   7.921   2.868  14.475 -0.0234 -0.1165  0.1386
26464W        W44668  10.417   6.569   4.138  0.0514  0.1047 -0.1663
26465W        W44669   8.068   8.075   2.273  0.1431 -0.0332  0.2709
26466W        W44670  12.401   5.362  12.846  0.0411  0.1855 -0.0869
26467W        W44671   6.219   4.971   3.056  0.1662  0.0269 -0.0165
26468W        W44672   1.656  14.713  12.674 -0.0511 -0.0878 -0.2432
26469W        W44673  16.362  12.160   0.132 -0.0312  0.0336  0.0193
26470W        W44674   3.522  15.283   3.808 -0.1406 -0.0152  0.1617
26471W        W44675   9.804  13.550   0.756 -0.2469  0.0055 -0.0575
26472W        W44676  15.998   7.221   3.998  0.0402 -0.2620 -0.1131
26473W        W44677   2.446   7.471  11.625  0.0733  0.3237  0.1235
26474W        W44678  15.860  18.439  11.825  0.0749  0.0290  0.2395
26475W        W44679   2.274  17.423  13.472  0.0649  0.4089  0.0824
26476W        W44680   1.151   2.997   3.987  0.0857 -0.0000  0.0182
26477W        W44681   5.104  15.035   3.565  0.0542 -0.0606  0.1205
26478W        W44682   5.399  12.319  13.078  0.4144 -0.0790 -0.1403
26479W        W44683  12.126   4.689   4.358 -0.1197  0.3635 -0.1254
26480W        W44684  11.078  16.124   0.498 -0.0307 -0.0108 -0.1655
26481W        W44685  12.818  10.417   0.960  0.1360  0.3090  0.2567
26482W        W44686  15.553   6.663  12.506 -0.0855  0.2633 -0.0756
26483W        W44687  10.658  11.527   3.264  0.0462  0.0998 -0.2481
26484W        W44688  16.915  17.046   4.103  0.1499 -0.0787  0.0698
26485W        W44689   6.163   3.835   5.365 -0.1647 -0.2142  0.1568
26486W        W44690   8.535  14.884  11.114 -0.0577 -0.1201  0.1476
26487W        W44691  14.269  18.902  12.982 -0.2541  0.0197 -0.6693
26488W        W44692   3.409   5.432  13.089 -0.1243 -0.0234 -0.2146
26489W        W44693   8.834   1.203  14.244  0.1882  0.2482 -0.0897
26490W        W44694  10.903  16.837   1.436  0.0828 -0.0560  0.0588
26491W        W44695  15.354  16.287   1.781  0.0534  0.0907  0.2137
26492W        W44696  18.156  15.262  12.199  0.3420  0.0784  0.2303
26493W        W44697  10.296  17.866  12.921 -0.2537  0.0682  0.5047
26494W        W44698   5.036  14.908  11.315  0.1607  0.1372  0.0384
26495W        W44699   3.308   2.186  12.954 -0.1645  0.2241 -0.3203
26496W        W44700  11.289  12.198   2.343  0.0770  0.1574 -0.0044
26497W        W44701   6.053  18.282   1.334 -0.1458  0.4071 -0.1317
26498W        W44702   2.980  12.139  11.923  0.4877 -0.0787  0.3078
26499W        W44703  18.916  12.616  13.695 -0.1627 -0.1074 -0.1819
26500W        W44704   4.523  12.613  11.191 -0.1352 -0.0481 -0.1118
26501W        W44705  10.980   5.576   1.212  0.3357 -0.3503  0.1763
26502W        W44706  11.111   2.712  13.935  0.0143  0.2368 -0.0527
26503W        W44707   2.876   5.165   1.751 -0.0122 -0.0939  0.0309
26504W        W44708  18.463  17.867   0.348 -0.0789 -0.0314 -0.2566
26505W        W44709   3.205   5.665  11.115  0.3142 -0.4736 -0.0488
26506W        W44710  15.959   4.067  11.667  0.0340 -0.0780  0.1863
26507W        W44711   4.080   7.100  14.153 -0.2148  0.0911 -0.0226
26508W        W44712   2.772  13.340   3.029  0.1054 -0.1836 -0.1963
26509W        W44713  11.511  15.775   4.593 -0.0835  0.0453 -0.0418
26510W        W44714  18.082   5.625   5.231  0.3490 -0.1937  0.2178
26511W        W44715   4.821   3.936   0.229  0.1922  0.1935  0.2915
26512W        W44716   1.065  12.773   9.894 -0.1219 -0.2502  0.1540
26513W        W44717   1.255   1.326   0.875  0.1465  0.0726  0.4602
26514W        W44718   1.698   1.712   2.601  0.1406  0.0300 -0.0630
26515W        W44719   8.575   1.571  12.843  0.1394  0.0753 -0.2150
26516W        W44720   5.735  10.068  14.918 -0.1064 -0.1784  0.1687
26517W        W44721   0.878  11.850   0.241 -0.2789 -0.1441 -0.3324
26518W        W44722   4.470  12.416  12.078 -0.2220 -0.2243 -0.2195
26519W        W44723   8.930   4.449  12.339 -0.1198  0.1763  0.1034
26520W        W44724   8.928   8.604  13.749 -0.0200  0.0897 -0.2544
26521W        W44725   1.836  17.522  11.986 -0.3958 -0.0905  0.0749
26522W        W44726  12.005   5.461   0.841 -0.3131 -0.0573 -0.2221
26523W        W44727   3.226  17.651   0.721 -0.0180  0.0049 -0.0741
26524W        W44728   4.385   0.166   3.098  0.0893 -0.1870  0.0695
26525W        W44729  14.895   2.425   0.383  0.1125  0.0073  0.1237
26526W        W44730   9.877  18.011   2.196 -0.0820 -0.0793 -0.2222
26527W        W44731  14.367   1.482   1.079  0.2556  0.1438  0.0916
26528W        W44732   9.894   8.102  13.224  0.2560  0.1691 -0.0101
26529W        W44733  18.806   8.932   4.674  0.0709 -0.1485  0.1188
26530W        W44734   1.626   5.855  12.530 -0.1829  0.1702 -0.0432
26531W        W44735   1.613  13.300   1.090 -0.3273  0.2729  0.1066
26532W        W44736   5.259  18.574   1.912 -0.0314 -0.0496  0.0296
26533W        W44737  15.025  15.969   1.000 -0.3277  0.0321  0.0789
26534W        W44738   2.607  17.603   3.967 -0.2253  0.3765 -0.1170
26535W        W44739  14.236   9.459   2.313  0.0169  0.0575  0.1520
26536W        W44740   7.564  17.112  14.571  0.3496 -0.0920 -0.2867
26537W        W44741  12.384  11.108  13.783 -0.0298 -0.0764  0.0242
26538W        W44742   2.968  17.038   3.964 -0.2154  0.0562 -0.2534
26539W        W44743   1.876   8.241   2.795 -0.1612 -0.2516 -0.1362
26540W        W44744   8.415  11.050   5.208 -0.1507  0.2450  0.1022
26541W        W44745  17.553   4.056   4.179  0.1886 -0.0211  0.0867
26542W        W44746  12.118  12.037   1.736  0.1846  0.0574  0.0746
26543W        W44747   7.127  10.917   4.474 -0.2332 -0.1788  0.3001
26544W        W44748   8.926  10.769   3.020  0.2993 -0.1323  0.0997
26545W        W44749   9.514  12.823   1.483  0.1950 -0.1768  0.0419
26546W        W44750  17.508   2.141   2.603 -0.2529  0.1184 -0.0464
26547W        W44751  13.678   7.014  14.977 -0.2114  0.2942  0.0071
26548W        W44752  18.705   2.079   4.111 -0.0498  0.0866 -0.3363
26549W        W44753  14.737  11.594   3.351  0.0055 -0.0105  0.1479
26550W        W44754   3.730   6.073   1.261  0.0757 -0.2409  0.0457
26551W        W44755  10.849  10.930   2.894  0.2957 -0.2048 -0.0922
26552W        W44756  18.799  17.499  13.748 -0.0912  0.4523 -0.2925
26553W        W44757  18.874   3.587   0.456  0.0756 -0.1508 -0.0443
26554W        W44758   5.232  16.737   4.400  0.1295 -0.0317 -0.2844
26555W        W44759  10.927  14.756   3.680 -0.2236  0.0209 -0.1614
26556W        W44760   0.165  18.139   1.968  0.0564 -0.0352 -0.2122
26557W        W44761   7.789  17.041   0.008  0.0393 -0.0230  0.1899
26558W        W44762   1.981   9.651   4.538  0.2201  0.0680  0.2282
26559W        W44763  17.898  17.524   1.317 -0.0107 -0.0485  0.0736
26560W        W44764  14.853   4.914   1.586 -0.0183 -0.1650  0.1111
26561W        W44765  17.110  15.752   4.098  0.0106  0.0289  0.0414
26562W        W44766   9.356  16.559   2.047 -0.0062 -0.2169 -0.0526
26563W        W44767   0.352   1.464   1.453 -0.0855 -0.0145  0.0772
26564W        W44768   3.155   3.050   0.973  0.0285  0.0933  0.2866
26565W        W44769   4.158  11.534   3.143 -0.0048  0.2619 -0.1457
26566W        W44770   9.944  18.260  13.839  0.4355  0.1710 -0.0238
26567W        W44771  10.991  14.595  12.079 -0.0124 -0.0032 -0.0205
26568W        W44772   4.500  16.890  12.110 -0.0623 -0.0673 -0.3209
26569W        W44773  17.081   4.992  13.683 -0.0549  0.0238  0.0487
26570W        W44774   8.990   7.067  14.626 -0.0020  0.3051 -0.1779
26571W        W44775   8.785   0.564   4.733  0.0258 -0.0558  0.3750
26572W        W44776   4.312   7.050   0.203 -0.0099  0.1946  0.1281
26573W        W44777  11.771  10.025   3.028 -0.2349 -0.0324  0.1420
26574W        W44778  10.119  14.442  11.470  0.2462 -0.3308 -0.2145
26575W        W44779  16.879   1.013  11.181  0.2344  0.1211 -0.0344
26576W        W44780   4.293  10.850  11.356  0.0061 -0.2472  0.0438
26577W        W44781  18.411   5.352   0.146 -0.0840  0.3019 -0.2218
26578W        W44782  14.439  14.370  11.670  0.1925  0.0214 -0.2176
26579W        W44783   2.122   9.927  11.826 -0.2485 -0.2318  0.3842
26580W        W44784   9.931  10.330   0.816  0.1284  0.1205  0.0813
26581W        W44785  13.068   4.624  13.932 -0.1985 -0.2518 -0.0873
26582W        W44786   7.191   2.504   1.767 -0.0009  0.0447 -0.0888
26583W        W44787   1.247  17.341   0.741 -0.0844  0.3949  0.1024
26584W        W44788  16.004  16.667  11.387  0.1256  0.0507  0.1376
26585W        W44789   9.244   3.235  13.001 -0.0595  0.0375 -0.0531
26586W        W44790   7.839  12.872   5.146 -0.3972 -0.2462 -0.1319
26587W        W44791  10.530  14.405   1.485  0.0396  0.0667  0.3889
26588W        W44792  14.500  17.380  12.283 -0.1170  0.0046 -0.0466
26589W        W44793   3.355   6.020  12.294 -0.0467  0.2440 -0.2298
26590W        W44794  10.201   7.831   1.753 -0.0415  0.1471 -0.0305
26591W        W44795  12.266   4.494  13.601 -0.0256 -0.2101  0.0121
26592W        W44796  16.323   5.227  11.350  0.2479 -0.1222 -0.0034
26593W        W44797   6.083   2.722  11.539 -0.1344  0.1090 -0.3921
26594W        W44798   1.366  12.959  14.808 -0.2960  0.0609 -0.0939
26595W        W44799  16.553  11.364   3.237 -0.2506  0.0413 -0.3461
26596W        W44800  17.931  13.826   3.949 -0.0666 -0.3334  0.3880
26597W        W44801   9.604  14.328  14.868  0.0122  0.0332  0.3287
26598W        W44802   8.431  16.089  11.761 -0.3906  0.4927  0.2183
26599W        W44803   8.300   6.910  13.312  0.0037 -0.1134  0.1336
26600W        W44804   4.152  13.116  12.379 -0.2543 -0.3183 -0.0199
26601W        W44805  12.223   6.718   1.734  0.0919 -0.0300  0.0810
26602W        W44806   2.492  14.260  11.767  0.1847  0.1177 -0.1203
26603W        W44807  13.554   9.521  12.442  0.2269  0.0863  0.0542
26604W        W44808   5.179  11.411   9.609 -0.2477 -0.0793  0.0159
26605W        W44809  11.980   4.486   9.213 -0.0654 -0.1582  0.1815
26606W        W44810   1.898  11.656  14.461  0.0198  0.0232  0.1068
26607W        W44811  10.734   5.436   0.522  0.0561 -0.1554  0.3044
26608W        W44812   0.335   7.368  14.618  0.1439 -0.1578 -0.0839
26609W        W44813  18.127  15.835   3.036 -0.3807  0.2430 -0.1905
26610W        W44814   2.730  15.627  12.408 -0.3305 -0.0771  0.0937
26611W        W44815  10.795   6.377   0.726  0.1905  0.4084 -0.3398
26612W        W44816   2.691  17.103  14.540 -0.2491 -0.0208 -0.0488
26613W        W44817   3.491   7.108   0.246 -0.1546 -0.2170 -0.2451
26614W        W44818  11.160   8.430   3.413 -0.0001  0.3853 -0.0819
26615W        W44819   2.163   0.145   3.602  0.0223  0.0440  0.3117
26616W        W44820  16.172   0.193   0.623 -0.0902 -0.0519  0.0525
26617W        W44821   0.003  14.088   1.881 -0.3246  0.4201  0.0496
26618W        W44822   2.888   5.025  13.283  0.0840  0.0716 -0.2493
26619W        W44823   1.893  14.550   3.129  0.0646 -0.1185 -0.2325
26620W        W44824   1.778   4.119   2.276 -0.1219 -0.0806  0.2643
26621W        W44825   5.145   7.018   3.468  0.0918  0.1075 -0.3071
26622W        W44826  11.664  13.209  12.950  0.1872 -0.0928  0.1863
26623W        W44827   6.124   5.484   2.918  0.0599  0.1036  0.4226
26624W        W44828  15.426   7.526  12.533  0.0218 -0.2071 -0.1479
26625W        W44829   0.923   8.328   4.660 -0.3460 -0.0152 -0.2232
26626W        W44830   9.683   4.585   1.161 -0.2136  0.2266 -0.0171
26627W        W44831   6.748  17.795  13.591  0.2705 -0.4349 -0.0699
26628W        W44832  18.516   3.648  12.291 -0.2007  0.0108 -0.1926
26629W        W44833  13.374  10.546   2.667  0.2495 -0.4415  0.0586
26630W        W44834  13.991   5.866   0.494 -0.2464 -0.2709  0.2853
26631W        W44835   1.156   0.166   0.993  0.1015 -0.1066  0.2601
26632W        W44836  14.849  18.558  11.688 -0.1102 -0.0623  0.6522
26633W        W44837  10.259  15.713   0.140  0.2521  0.2791  0.2571
26634W        W44838  13.747   1.927   5.154  0.0429 -0.0366  0.4115
26635W        W44839  18.032  10.718  11.039 -0.0921  0.2537  0.1757
26636W        W44840   7.488  16.124  14.496 -0.0063  0.1474 -0.3220
26637W        W44841  14.834  14.257  10.896 -0.1099 -0.0585  0.2422
26638W        W44842   7.070  15.865   4.598 -0.0117 -0.1024  0.0429
26639W        W44843   3.152  18.779  11.950  0.0283  0.1458  0.1911
26640W        W44844   7.287  16.431   2.494 -0.0887  0.0757  0.1965
26641W        W44845   9.289  15.688  13.669  0.0494  0.0637 -0.2681
26642W        W44846   9.329   7.596   0.966 -0.0708  0.1404 -0.0514
26643W        W44847  11.312   8.093   2.265 -0.0630  0.1940  0.1944
26644W        W44848  14.791   1.091  10.830 -0.2341  0.2716 -0.1737
26645W        W44849   4.444  16.375  12.003  0.1423  0.1412 -0.2782
26646W        W44850   5.673  10.940   2.652  0.0109  0.1533  0.0991
26647W        W44851   4.686  16.691   1.792  0.0581  0.1582 -0.2745
26648W        W44852  17.010  10.205   0.496 -0.1670  0.0614  0.1415
26649W        W44853  12.989  17.574  10.602  0.1412  0.1075  0.3423
26650W        W44854   6.596   1.302   0.792  0.0661  0.1948 -0.3186
26651W        W44855   6.315  13.679   0.657  0.4080 -0.1921  0.3160
26652W        W44856   8.054   1.460   2.757 -0.1323  0.2264  0.0555
26653W        W44857  16.573   0.594   5.183  0.5817 -0.2447  0.1643
26654W        W44858  11.574   3.940  13.638  0.3004  0.0747  0.0070
26655W        W44859   2.188  14.592   2.749  0.0107  0.1062  0.0645
26656W        W44860  11.993  15.942   1.760  0.1112 -0.0970  0.3232
26657W        W44861   7.674   9.197  13.566 -0.2004 -0.1641  0.0178
26658W        W44862   5.752  17.228   4.483  0.1421 -0.3579  0.1053
26659W        W44863   9.886   5.530  11.722  0.1850  0.2145 -0.0004
26660W        W44864   9.518   6.857   4.146 -0.0354 -0.2624 -0.2633
26661W        W44865  17.491   0.767  14.177 -0.1186 -0.1022  0.0383
26662W        W44866  16.301  11.428   3.846  0.1524 -0.0280  0.2168
26663W        W44867  15.472  10.398  13.721  0.1525 -0.4869  0.2610
26664W        W44868  13.869   8.468  13.380 -0.1004  0.2924 -0.1503
26665W        W44869  15.270   0.986  13.237  0.2405 -0.0952 -0.1649
26666W        W44870   9.153   8.932  11.167 -0.1372  0.0743  0.2559
26667W        W44871   8.890  15.889  11.971  0.0737 -0.1950 -0.4460
26668W        W44872   9.240  14.104  14.514 -0.2101  0.1947 -0.3868
26669W        W44873  17.944  13.833  12.670 -0.1282 -0.1137 -0.2419
26670W        W44874  14.169  16.900   1.617  0.0533 -0.2113 -0.1150
26671W        W44875  10.039   6.418   1.709 -0.2574  0.1385  0.1103
26672W        W44876  16.758   8.140  13.418 -0.0253 -0.1879 -0.1543
26673W        W44877   2.456  15.362  12.722 -0.1767  0.1460 -0.0890
26674W        W44878   6.540   2.078  14.023 -0.3678  0.4149  0.0743
26675W        W44879  15.894  13.086  11.883 -0.0768  0.1320 -0.0355
26676W        W44880   5.487  18.237  11.257 -0.1892 -0.0381 -0.3844
26677W        W44881  17.314  13.418   0.142 -0.1734  0.2755 -0.0354
26678W        W44882  13.982   2.440  12.825  0.0452  0.0923 -0.1320
26679W        W44883  10.638   1.534   1.019  0.2688  0.1823 -0.3074
26680W        W44884   4.755   7.259  11.183 -0.1712 -0.1142 -0.2768
26681W        W44885  15.940   0.778  12.255  0.0346 -0.3600  0.0404
26682W        W44886  15.338  15.740   4.668 -0.3469 -0.1324  0.0900
26683W        W44887  11.887  15.361   2.235  0.0206  0.0381  0.1383
26684W        W44888   6.736  18.516   5.337  0.0834 -0.3702 -0.4506
26685W        W44889  11.835  16.164   2.442 -0.0463  0.0590  0.1820
26686W        W44890   1.807  10.243  14.259  0.1121 -0.1275 -0.0053
26687W        W44891   9.178  14.463  11.660 -0.2784 -0.1321 -0.1448
26688W        W44892   3.069  10.223   0.115 -0.2218  0.1666 -0.0504
26689W        W44893   7.476   3.706   0.929  0.0354  0.1422 -0.2336
26690W        W44894  10.519  12.804  13.501  0.0374 -0.2356 -0.0923
26691W        W44895   7.769   3.283   0.930  0.4357  0.0598 -0.0684
26692W        W44896   5.149  15.874   1.800  0.0332 -0.1148 -0.2480
26693W        W44897   2.074  17.042   1.459 -0.1101  0.1711 -0.3682
26694W        W44898  18.524   1.259   3.560  0.1075 -0.1858 -0.0864
26695W        W44899  11.890   5.164  14.258 -0.0481  0.1659  0.0605
26696W        W44900  13.249   8.040   0.303 -0.1808 -0.0701  0.0141
26697W        W44901   0.182  12.930   4.186  0.1003 -0.1187 -0.3304
26698W        W44902  17.700   3.361  14.714 -0.3895 -0.2011 -0.1644
26699W        W44903  12.661   0.245  14.689  0.0655 -0.0350 -0.2091
26700W        W44904   3.109  17.345   4.895  0.1134  0.0107 -0.2058
26701W        W44905   8.049   8.303   5.008  0.0890 -0.1984 -0.0148
26702W        W44906   8.442   8.535   2.307  0.3684  0.0284 -0.0051
26703W        W44907   8.571  18.761  11.646  0.1210  0.0679  0.2314
26704W        W44908  16.896  16.339   2.857  0.3439 -0.1599  0.0769
26705W        W44909   6.765  18.275   0.622 -0.1816 -0.0242  0.4744
26706W        W44910   9.253   4.479  10.838 -0.0215  0.1062 -0.2873
26707W        W44911  18.423  11.267  10.209  0.1255 -0.1074 -0.1866
26708W        W44912   8.083  18.846  12.528  0.0228  0.1441 -0.1440
26709W        W44913   4.931   0.116   3.852  0.3508 -0.0605  0.5268
26710W        W44914  18.509   9.918   0.095 -0.0908  0.0285 -0.0307
26711W        W44915   1.070  16.446  10.825  0.1302  0.0638  0.2969
26712W        W44916   1.508  10.349  11.238 -0.0209 -0.0832 -0.0701
26713W        W44917   1.660  12.680   2.290 -0.1405 -0.1121 -0.0031
26714W        W44918   2.644  11.024  14.691 -0.2104 -0.2236  0.0335
26715W        W44919   7.801  12.809  14.942 -0.2293  0.0215  0.2244
26716W        W44920  12.133  16.453  12.366 -0.1305 -0.0276 -0.0682
26717W        W44921  11.197   5.227   2.907  0.1995  0.2251 -0.0925
26718W        W44922  13.050  11.692   1.719 -0.1165  0.0239 -0.1921
26719W        W44923  18.623  13.117   0.951 -0.1203  0.3437 -0.0429
26720W        W44924  17.503   7.642   1.624  0.1390 -0.3296  0.0126
26721W        W44925   6.233  18.947  12.188  0.1208  0.1523 -0.2230
26722W        W44926  12.756   0.203  13.690  0.0326  0.0146  0.3554
26723W        W44927  10.660   3.786  13.340 -0.1120 -0.0459  0.2063
26724W        W44928   0.698  18.286  11.966 -0.6812  0.1017 -0.1133
26725W        W44929   4.063   2.400   1.572  0.1697  0.0134  0.0162
26726W        W44930   3.434  17.926  11.804  0.0133  0.1502 -0.0514
26727W        W44931   2.977   7.305  13.466  0.0770 -0.1361  0.0832
26728W        W44932   0.419  10.462  13.150  0.2846  0.1916  0.1235
26729W        W44933  17.711  14.602   2.831 -0.2083  0.1665 -0.3648
26730W        W44934  10.761   0.899  10.136 -0.1292  0.2344 -0.0179
26731W        W44935   1.390   1.685   1.876 -0.0451 -0.1318 -0.0954
26732W        W44936  15.158  10.595  12.573 -0.1596 -0.0379 -0.1793
26733W        W44937  13.416   9.309   3.677  0.0469  0.0974 -0.0390
26734W        W44938   8.710   6.895  14.158 -0.0992 -0.2145  0.1263
26735W        W44939   2.845  10.545  14.614 -0.2437  0.3548  0.0323
26736W        W44940  11.006  14.569   3.238 -0.3491 -0.0189  0.1224
26737W        W44941   4.910  18.820   0.408 -0.1814 -0.3816  0.0246
26738W        W44942   1.317  16.063  14.814  0.0316  0.0686 -0.2679
26739W        W44943  12.812  11.480   2.622 -0.1077  0.1162 -0.0257
26740W        W44944  17.920   0.094   2.763  0.1235  0.1573  0.1512
26741W        W44945  11.723   4.326  14.473  0.0820 -0.0718  0.2853
26742W        W44946   4.767  17.925  10.157 -0.1159 -0.0028 -0.0513
26743W        W44947  12.953   2.767   2.116 -0.2932  0.1886  0.2415
26744W        W44948  15.957  17.547  14.415  0.1797  0.1217  0.1980
26745W        W44949  11.413  11.558  12.838 -0.2550 -0.0178  0.2818
26746W        W44950   2.927   5.579   0.258  0.2739 -0.2935  0.1270
26747W        W44951   5.881   3.727  10.392 -0.2091 -0.4365  0.2824
26748W        W44952   4.502   9.087  14.150 -0.0398  0.1284 -0.5685
26749W        W44953  11.903   4.169  13.294  0.0351  0.1513 -0.2406
26750W        W44954   0.462  12.188  12.165  0.3377 -0.0780 -0.0869
26751W        W44955   8.522  12.168  11.132  0.1605  0.1106  0.1784
26752W        W44956   3.877  18.566   3.759  0.0048 -0.3709 -0.3656
26753W        W44957   4.658  16.751   4.467  0.1193 -0.0418  0.1444
26754W        W44958  15.156   5.074  12.910 -0.1259 -0.5351 -0.1223
26755W        W44959  14.830  12.842  10.834 -0.1447  0.2496 -0.0591
26756W        W44960  10.236  14.943   0.068  0.0295  0.1031  0.0737
26757W        W44961   4.364   9.540  13.792  0.2226 -0.0658  0.1569
26758W        W44962   6.786   5.063   0.673 -0.0075 -0.1338 -0.2456
26759W        W44963  17.166  15.527   0.369  0.1287  0.0860  0.1169
26760W        W44964  16.125   5.628  10.140 -0.2632 -0.2359 -0.0504
26761W        W44965  13.221   4.728  13.451  0.3357 -0.1482  0.1564
26762W        W44966   5.147  17.611  11.580  0.0977  0.1270  0.0283
26763W        W44967  18.471   0.714   2.006  0.2094  0.5199 -0.1479
26764W        W44968  12.716   1.147   9.363 -0.3431 -0.0173 -0.0066
26765W        W44969   0.021  16.841  10.452  0.1269  0.0895 -0.2819
26766W        W44970  13.179  10.244  14.129  0.0333  0.1060 -0.0927
26767W        W44971   0.434   2.396   0.989  0.0669 -0.0525  0.0776
26768W        W44972  13.442   9.511   4.140 -0.1298 -0.1088  0.1940
26769W        W44973   2.847   3.362   0.678 -0.1209  0.0841 -0.2435
26770W        W44974  15.799   8.114  11.592  0.3212  0.1185 -0.1316
26771W        W44975   6.783  18.638   0.236  0.0324 -0.0503  0.2276
26772W        W44976   1.050   3.006   9.746  0.0329 -0.0296  0.3023
26773W        W44977  15.254  10.019  10.998  0.2695 -0.3126  0.1560
26774W        W44978  14.708  12.878   0.431  0.2315  0.2025  0.0605
26775W        W44979   6.521  12.726   3.673 -0.3071  0.0439  0.1832
26776W        W44980   8.816  18.543   2.858 -0.1707  0.0198  0.1077
26777W        W44981  18.367   9.958   2.973 -0.0861  0.0572 -0.2154
26778W        W44982   5.542  12.056  15.030 -0.0519  0.0981  0.1984
26779W        W44983   2.849   3.386   3.584  0.2947 -0.2166  0.2313
26780W        W44984  18.602  16.419  14.086 -0.1266  0.0307  0.1298
26781W        W44985  12.898   4.110  12.962  0.0745 -0.2054 -0.0627
26782W        W44986  11.063   3.641  12.444 -0.2138 -0.1295 -0.3691
26783W        W44987  18.849   2.338  12.367  0.2113  0.0175 -0.1556
26784W        W44988  18.290   8.333  12.182 -0.3238 -0.0848  0.1595
26785W        W44989  10.444   7.340   2.096 -0.0882  0.1228  0.0728
26786W        W44990  14.256   7.675  12.979 -0.2627  0.1222  0.0891
26787W        W44991   4.999   9.676   1.421  0.1596 -0.1425  0.1529
26788W        W44992   6.468  15.465   4.439  0.1751  0.2975  0.0322
26789W        W44993   3.911  18.690   2.218  0.2384  0.2142 -0.0874
26790W        W44994   0.895   0.176   0.522 -0.1445  0.0121  0.6113
26791W        W44995   6.367   3.478   4.512 -0.1220  0.0699  0.1745
26792W        W44996   9.239   7.527  12.558  0.1687  0.0553 -0.1055
26793W        W44997   6.683   9.964  14.793  0.2391 -0.1691  0.1253
26794W        W44998  16.949   7.755   2.299 -0.0535  0.1312 -0.0602
26795W        W44999  15.689  16.353   4.061 -0.0139 -0.2741  0.0286
26796W        W45000  13.284  17.515  13.735  0.1399 -0.3418  0.1008
26797W        W45001   6.510  14.263  10.699 -0.0234 -0.2384 -0.1574
26798W        W45002  16.731   3.431  13.672 -0.0253  0.0151 -0.2467
26799W        W45003   7.053  16.137  12.133 -0.0847 -0.1318  0.1830
26800W        W45004   0.240  10.838  14.553 -0.3495  0.2530 -0.1233
26801W        W45005  13.131  18.895  13.480  0.1221 -0.1048 -0.0559
26802W        W45006  12.901   4.821  11.649 -0.1393 -0.1716  0.2772
26803W        W45007   7.794  10.447   2.091  0.2737 -0.1536  0.1167
26804W        W45008   5.065  13.819  11.684 -0.0612  0.0345 -0.1900
26805W        W45009  13.323  16.886   3.932 -0.1743 -0.2254 -0.2302
26806W        W45010   7.370   2.871  12.582 -0.1868 -0.2296  0.0652
26807W        W45011   8.930  11.296  10.941 -0.2429 -0.2745  0.0481
26808W        W45012   8.095   8.883   1.001 -0.1846  0.0908  0.0628
26809W        W45013  17.616   9.294  11.680 -0.0969  0.0736  0.0829
26810W        W45014   8.110  14.303   2.517  0.3967  0.1369  0.0079
26811W        W45015   8.999   7.508   1.927 -0.2013  0.3043  0.4695
26812W        W45016   4.494   3.215   4.095 -0.1673 -0.2919  0.3166
26813W        W45017  17.222  11.906  14.570 -0.1175  0.2305 -0.0643
26814W        W45018   0.032  10.189   2.571  0.2637  0.0745 -0.1462
26815W        W45019   5.253  12.695  11.339  0.1147 -0.0586  0.0301
26816W        W45020   8.467   0.205   2.581 -0.0313  0.3029 -0.4115
26817W        W45021   9.500   9.980  12.673  0.3335  0.1114  0.0101
26818W        W45022  18.345  16.328   0.435 -0.0781  0.2458  0.2320
26819W        W45023  15.338   3.461   2.703  0.3482 -0.1277 -0.1767
26820W        W45024   8.489   8.148  12.993  0.3549  0.1310 -0.2574
26821W        W45025   5.806   9.117  10.172  0.1458 -0.1658  0.2276
26822W        W45026   9.148  15.393  12.237  0.2473  0.0258 -0.0823
26823W        W45027  18.142   4.321  11.193 -0.2914 -0.1128  0.0267
26824W        W45028  11.506   9.001  11.528  0.2248  0.0443  0.0378
26825W        W45029  14.268  18.156  10.296  0.3247  0.1564 -0.4349
26826W        W45030  12.230  18.091   3.530  0.4008 -0.2444 -0.1130
26827W        W45031  10.816   1.153   2.903 -0.0672 -0.1729 -0.2660
26828W        W45032   7.396  15.461   3.647  0.1066  0.0776 -0.1719
26829W        W45033  11.634  16.774   0.806 -0.2224  0.3266  0.1792
26830W        W45034   3.526   6.352   3.761 -0.1798  0.2406  0.0206
26831W        W45035  14.545  14.297   2.364 -0.0966  0.2408  0.3258
26832W        W45036  15.895   9.471   3.575 -0.0820 -0.3638  0.0953
26833W        W45037   6.774   4.643  11.981  0.2994  0.0039  0.0241
26834W        W45038  10.024   3.621   3.182  0.0379  0.1572  0.0108
26835W        W45039   9.465  13.137  14.281 -0.0821 -0.0634 -0.0060
26836W        W45040   9.882   7.909  11.252 -0.1060 -0.0799 -0.0513
26837W        W45041  15.533  17.525  11.648 -0.0034 -0.1804 -0.2497
26838W        W45042   7.754   8.017  11.735  0.2419 -0.0532  0.1443
26839W        W45043  11.316   0.140   0.593 -0.2731 -0.1301 -0.2408
26840W        W45044   1.946   6.548  11.030  0.2907 -0.1172 -0.3697
26841W        W45045   3.222  14.908   3.948 -0.2779 -0.0181  0.2187
26842W        W45046  12.155   3.632   5.213  0.2667  0.0507 -0.2369
26843W        W45047   1.512   4.123  14.691 -0.2499  0.1549  0.1801
26844W        W45048   4.977   4.703  14.526 -0.1012  0.1186  0.0845
26845W        W45049   2.408   4.498  12.422 -0.2164 -0.2230  0.2080
26846W        W45050  17.805  10.632   2.835  0.0453  0.2051  0.0975
26847W        W45051   4.764   5.185   1.403 -0.0279 -0.2422  0.0360
26848W        W45052  15.449   9.452   1.914 -0.4156  0.6511 -0.2030
26849W        W45053   6.064  15.916  13.675  0.0376  0.1711  0.0302
26850W        W45054   3.116  16.945   2.602  0.0066  0.4550 -0.1052
26851W        W45055   8.908  13.337   3.299 -0.1194  0.1509 -0.2711
26852W        W45056   9.740   7.677   1.600 -0.0886 -0.0126 -0.1970
26853W        W45057   0.697   6.392   3.060  0.1144  0.1328 -0.2014
26854W        W45058   1.249   6.690   0.819 -0.1820  0.1002 -0.2039
26855W        W45059   4.079   2.054  13.382  0.1971 -0.0241 -0.0375
26856W        W45060   7.270   4.070   3.480 -0.0133 -0.1102  0.6040
26857W        W45061   3.910  17.734   0.694 -0.0019 -0.0391 -0.0673
26858W        W45062  14.877   7.227   1.469  0.0169  0.0825 -0.1028
26859W        W45063   2.340   0.191   4.636  0.1867  0.0939 -0.0194
26860W        W45064  12.119  16.123   3.338 -0.3762  0.2929 -0.1436
26861W        W45065   6.191  16.333  11.980  0.0899  0.1987 -0.3323
26862W        W45066  17.423   0.482  11.725  0.0089 -0.0627 -0.2676
26863W        W45067   9.605   7.221   1.814  0.0616  0.0201 -0.0456
26864W        W45068  15.214   1.900  10.692 -0.3300 -0.1284 -0.0706
26865W        W45069   8.715  14.346  12.444  0.2215  0.4235  0.1973
26866W        W45070  14.456  16.976   1.213  0.3291  0.2781  0.1251
26867W        W45071  13.013   6.094  14.063 -0.0038  0.4830 -0.2523
26868W        W45072   6.373   2.436  12.773 -0.2005  0.1759 -0.1411
26869W        W45073   5.564  17.806   5.150 -0.0678 -0.1275 -0.3561
26870W        W45074   3.823   0.292   4.281  0.2148 -0.1995  0.1053
26871W        W45075   2.968   0.509  14.426  0.3293  0.0253 -0.2273
26872W        W45076  18.017   2.716  12.360 -0.3255 -0.0018  0.0138
26873W        W45077  15.679   7.982   0.840  0.1409  0.1892 -0.1118
26874W        W45078   0.837   7.076  13.484 -0.2011 -0.3575  0.3308
26875W        W45079   4.568   0.938   2.061 -0.1052  0.0165 -0.0687
26876W        W45080   8.802   8.549   3.319  0.1740  0.1856 -0.1031
26877W        W45081  13.557   4.639  13.796 -0.0183  0.1678 -0.2442
26878W        W45082  11.611   4.863  13.986 -0.0692 -0.0332  0.0727
26879W        W45083   9.859   5.528  14.435 -0.0319 -0.1380  0.0865
26880W        W45084   3.232   1.696  11.280 -0.0249  0.1621  0.1642
26881W        W45085   7.191  16.001  11.224  0.0986 -0.1249  0.0795
26882W        W45086   2.774  16.965  12.141 -0.1030  0.2352 -0.0663
26883W        W45087   9.783   5.548  12.634  0.1171 -0.1332  0.2188
26884W        W45088   1.279   6.001  12.890  0.1136  0.0138 -0.1611
26885W        W45089  17.624   2.503  13.674  0.0483 -0.0277  0.1982
26886W        W45090   2.222   1.979   1.600  0.1968 -0.1020  0.2177
26887W        W45091   7.830   5.691  11.616 -0.3706 -0.2890 -0.0518
26888W        W45092   7.424  18.187   0.840  0.1102 -0.0084 -0.1741
26889W        W45093  11.722   6.128  12.862 -0.0644  0.1195  0.0967
26890W        W45094   8.589   1.116   0.281 -0.0422 -0.0938  0.3398
26891W        W45095   8.178   0.408   3.428 -0.2690  0.2481 -0.0456
26892W        W45096  13.788   6.422   1.709  0.1384  0.2084 -0.1594
26893W        W45097  10.684   7.376   4.127  0.1739  0.1433  0.3694
26894W        W45098   5.375   1.334   4.112  0.0721  0.0984 -0.3191
26895W        W45099   8.140  17.743   4.376  0.4032  0.3126 -0.1343
26896W        W45100  10.969   6.433   4.764 -0.2882 -0.2099 -0.2099
26897W        W45101  10.350   9.825   0.043 -0.2702  0.2970 -0.2781
26898W        W45102   8.137   9.346   4.036 -0.3343  0.0089 -0.1883
26899W        W45103   4.783  18.279  12.690 -0.0393 -0.1332 -0.1079
26900W        W45104  18.893   0.259   9.897  0.0275  0.0262 -0.5033
26901W        W45105   3.093  15.831  11.638 -0.0106  0.2622  0.0301
26902W        W45106   9.221   4.460  12.774  0.0448  0.0817 -0.1018
26903W        W45107  18.741  18.686  12.076  0.2092  0.0514  0.3997
26904W        W45108   1.842   8.392  11.824  0.0861 -0.0511 -0.1683
26905W        W45109  17.269  11.093  13.515  0.1639  0.0095  0.0351
26906W        W45110  15.390  16.353   3.067  0.3518 -0.1144 -0.0888
26907W        W45111   4.708  18.132   4.425 -0.2101  0.0514  0.1314
26908W        W45112   6.375   2.779  12.323 -0.0729 -0.1174  0.1531
26909W        W45113   0.141  11.749  14.109 -0.1843  0.0678 -0.0009
26910W        W45114   8.051   2.236   4.271  0.3324  0.0218  0.0443
26911W        W45115   2.705  12.224   2.080 -0.0446 -0.2899 -0.2134
26912W        W45116   2.411   4.967  13.090 -0.1519 -0.0276  0.3603
26913W        W45117   9.633  17.519   9.814  0.0372 -0.3653 -0.1144
26914W        W45118   3.466   4.744   3.055  0.0735 -0.2691 -0.2023
26915W        W45119   2.298  18.604   3.391 -0.5253 -0.1667 -0.1113
26916W        W45120   4.495  17.588  14.016 -0.1424  0.1891 -0.0811
26917W        W45121  15.728  13.456  12.300 -0.0661  0.3505 -0.1084
26918W        W45122  11.065  18.837  12.341 -0.0717  0.0377  0.1473
26919W        W45123  15.672   4.847   0.575  0.1058  0.2897 -0.1704
26920W        W45124   5.888   2.598  12.309  0.4026 -0.0261  0.2184
26921W        W45125   6.364   5.873  13.594 -0.0750  0.0695  0.0236
26922W        W45126  12.504   7.895   4.675 -0.4125 -0.0600 -0.2637
26923W        W45127   8.490  16.064  13.451 -0.0779 -0.2580 -0.1017
26924W        W45128  11.108  12.875  11.170 -0.1671  0.3260  0.0535
26925W        W45129   9.265   1.523  13.990 -0.2718  0.0057 -0.0487
26926W        W45130   3.805   5.761   2.020 -0.0304  0.0286 -0.1027
26927W        W45131  16.952  13.206   0.987 -0.1432 -0.2847  0.1072
26928W        W45132   6.162   7.412   3.331  0.2662  0.1708 -0.0017
26929W        W45133   6.607  15.713   0.207  0.0609 -0.0382  0.1057
26930W        W45134  18.747  15.581   1.659 -0.0882  0.0111 -0.1961
26931W        W45135   1.336  12.184  12.627  0.1752  0.2671  0.0840
26932W        W45136   6.334   4.612  11.699 -0.4490  0.1986 -0.1302
26933W        W45137  17.746   3.895   2.891  0.0625 -0.0906  0.2860
26934W        W45138  15.968   3.456  11.673  0.0176 -0.1013  0.0921
26935W        W45139  15.373  12.192   4.930 -0.0668 -0.0257 -0.1453
26936W        W45140   5.226  12.510   3.844 -0.0910  0.1211  0.2169
26937W        W45141   2.721   0.961  12.581  0.0081  0.2522 -0.0843
26938W        W45142   8.886   0.410  12.756  0.1352 -0.0195  0.0485
26939W        W45143   2.160  18.697   0.971 -0.2539 -0.2138  0.0133
26940W        W45144  10.004   5.054   0.872  0.2336 -0.2585  0.2688
26941W        W45145  13.501  14.824  10.259  0.0574  0.3475  0.0721
26942W        W45146  18.853  13.286   2.801  0.2086 -0.4101  0.4554
26943W        W45147  10.064  12.947  14.282  0.0053  0.4872 -0.1098
26944W        W45148  13.564  18.031   2.067 -0.0680 -0.1281  0.0241
26945W        W45149   6.141  14.168  15.021 -0.0455  0.1467  0.1689
26946W        W45150   5.075  13.432  11.965 -0.2574  0.2128  0.1173
26947W        W45151  17.593  15.873   3.841  0.1632  0.3508  0.2508
26948W        W45152   1.111   4.558   3.034 -0.2780 -0.0876  0.1501
26949W        W45153   3.909  15.643   2.333  0.0443 -0.1229  0.2631
26950W        W45154   6.891   7.124  14.130  0.1420  0.2922  0.2230
26951W        W45155  13.076   2.828   5.364 -0.2514 -0.1533  0.1983
26952W        W45156   3.743  16.021   2.082  0.0105  0.2477  0.1332
26953W        W45157  10.935  14.855  13.807 -0.0079  0.1059  0.0441
26954W        W45158  17.439  15.839   1.715 -0.0436 -0.3448 -0.0110
26955W        W45159   0.930  11.263   0.543 -0.0175 -0.0042 -0.0179
26956W        W45160   7.330   7.666  12.835  0.1913  0.2927 -0.2179
26957W        W45161  12.943   0.001   3.553 -0.0245  0.3128 -0.2098
26958W        W45162  10.701  15.301  11.096 -0.0953  0.1152  0.0323
26959W        W45163   2.793  17.783   1.226  0.1135 -0.1738  0.0033
26960W        W45164  13.235   1.771  12.904 -0.0913 -0.3993  0.0613
26961W        W45165   7.246  17.980   4.248 -0.3440  0.3516  0.2933
26962W        W45166   6.033  14.164  12.428  0.0891  0.1884  0.0593
26963W        W45167   0.164   6.634   0.421  0.1011 -0.1633  0.0444
26964W        W45168  16.990   0.141   0.046  0.1087 -0.0870 -0.0426
26965W        W45169   1.872  12.906   3.233 -0.0160  0.0498  0.0485
26966W        W45170  16.284  13.086  11.211 -0.0253  0.1300  0.1057
26967W        W45171  11.765  11.557   1.884 -0.0558 -0.0263  0.1559
26968W        W45172   2.262   8.219   1.763  0.4130 -0.4539 -0.1923
26969W        W45173  12.087  16.807  13.733  0.1749  0.3808 -0.1592
26970W        W45174   7.116   3.846   4.279 -0.0351  0.0020  0.0759
26971W        W45175   9.880   5.115  14.875  0.2781  0.0972 -0.0480
26972W        W45176  17.895  16.753  10.078  0.2049 -0.2568  0.3103
26973W        W45177  13.041  16.689  11.764 -0.2500 -0.1858  0.1408
26974W        W45178   1.274  16.963  10.091  0.2717 -0.1088  0.1039
26975W        W45179  14.313   2.144  14.572 -0.0132 -0.1246  0.1270
26976W        W45180  17.313  14.960   1.716  0.2358 -0.3771  0.2311
26977W        W45181  17.440  15.748  13.934  0.1403 -0.0567 -0.1207
26978W        W45182   1.909   2.007  13.058  0.1539  0.0326  0.0206
26979W        W45183  14.615   4.126  14.696  0.1947  0.0558  0.2819
26980W        W45184  13.608   8.415  12.883 -0.0090 -0.0029  0.1430
26981W        W45185  12.185  10.840  12.746  0.1484  0.0356 -0.1545
26982W        W45186   0.507  16.547   3.701  0.2366 -0.1418 -0.2920
26983W        W45187   2.330  11.613   2.817 -0.2150 -0.0718 -0.2121
26984W        W45188  13.495   2.261  14.136  0.2264 -0.1150  0.2600
26985W        W45189  15.801   5.318  11.604 -0.1658  0.1721 -0.1539
26986W        W45190   3.945  14.833  11.193 -0.3612 -0.3200  0.0089
26987W        W45191   2.250  16.431  12.663  0.4769 -0.1438 -0.1289
26988W        W45192  17.889  11.532  11.104  0.0626  0.1323  0.4475
26989W        W45193  10.241  14.201  12.311  0.1134  0.1181 -0.1790
26990W        W45194   0.782  12.612   2.894  0.1595  0.1682 -0.3250
26991W        W45195   3.495  12.244   3.441 -0.2934 -0.2089 -0.3855
26992W        W45196   0.190  12.406  11.291  0.1786  0.2364  0.1309
26993W        W45197   9.784   5.354   2.705 -0.1353 -0.1949 -0.0166
26994W        W45198  14.587  10.127   1.093 -0.1295  0.0794 -0.2358
26995W        W45199  18.310   1.526   1.378 -0.1815 -0.0077 -0.0454
26996W        W45200   1.934  15.041   1.520  0.1436 -0.1336 -0.1689
26997W        W45201  10.982   5.949  13.967 -0.0976  0.0973  0.4126
26998W        W45202   9.538  11.625  10.112  0.0859 -0.0703 -0.3187
26999W        W45203   0.317  14.725  12.028 -0.0208  0.4508 -0.1062
27000W        W45204   6.065  17.692   2.052  0.2320 -0.3135 -0.0093
27001W        W45205  10.808  15.663   2.680  0.0226 -0.0498 -0.1515
27002W        W45206   6.757   7.017   2.267  0.0378 -0.2575 -0.1118
27003W        W45207  17.448   6.078  12.142  0.1469 -0.0229  0.1004
27004W        W45208   2.583   4.453   2.935  0.3394  0.0672 -0.1770
27005W        W45209   8.785   5.981   2.081  0.2208  0.0209 -0.3604
27006W        W45210  17.232  17.866  10.823 -0.2431  0.0351  0.2947
27007W        W45211   9.655   0.446  14.685 -0.3491 -0.1883  0.0594
27008W        W45212  18.700  13.052  12.547  0.1500 -0.0468  0.0947
27009W        W45213  12.567   5.661   0.918 -0.1291  0.1963 -0.1263
27010W        W45214   7.858  15.231  11.495  0.2403  0.2629 -0.0457
27011W        W45215  10.868  17.676  13.717 -0.2341 -0.0481  0.1793
27012W        W45216   7.294  12.216  13.485  0.2173  0.2507 -0.0565
27013W        W45217   6.761   7.404   1.799 -0.1623  0.2680 -0.1749
27014W        W45218  16.613  15.872   2.870  0.1917  0.1565 -0.1902
27015W        W45219   6.119   2.317   0.656 -0.1600  0.0793 -0.2555
27016W        W45220  10.221  16.785  10.282 -0.3039 -0.1272  0.1844
27017W        W45221   9.224  16.073   1.085 -0.1459  0.0509  0.1252
27018W        W45222  16.473  12.377  12.423  0.0511 -0.1594 -0.2051
27019W        W45223   4.030   6.360  14.748 -0.1214  0.1389 -0.0499
27020W        W45224   8.711  16.807  11.979  0.3645  0.3520  0.2887
27021W        W45225  14.585   4.622  12.071  0.1125 -0.4850  0.0597
27022W        W45226  13.358  10.675   0.109 -0.1384  0.2213 -0.2333
27023W        W45227   0.155   5.092  13.735 -0.0157  0.1214  0.0565
27024W        W45228  18.659  16.657   4.812 -0.1755  0.0855  0.0128
27025W        W45229  10.900   3.189   1.873  0.1209 -0.2098 -0.1534
27026W        W45230  11.382  11.654   2.999  0.1603 -0.0756 -0.1201
27027W        W45231  18.639  14.285  11.437  0.0200  0.0127  0.1950
27028W        W45232  12.651   2.722  12.599 -0.0746 -0.0458  0.2460
27029W        W45233  10.728   1.967   9.564 -0.0737  0.2702 -0.1803
27030W        W45234   4.914  15.251  14.805 -0.2974  0.2411  0.1085
27031W        W45235   8.644   6.721   0.560 -0.1526 -0.2836 -0.2507
27032W        W45236   9.908   5.385   2.174 -0.1262  0.0759 -0.0072
27033W        W45237   6.391   3.391  11.625  0.0485 -0.3140 -0.2210
27034W        W45238   2.545  12.788  14.048  0.0524  0.0643  0.0365
27035W        W45239  17.191   6.450  14.994  0.0990 -0.1308 -0.2500
27036W        W45240  11.973   9.593   2.112 -0.0412  0.0887 -0.1570
27037W        W45241   1.518   6.381  12.396 -0.1115 -0.0124  0.0453
27038W        W45242   0.952  12.165   3.262 -0.0015 -0.2716 -0.1221
27039W        W45243  12.575  13.198  13.153 -0.1322  0.1046  0.1013
27040W        W45244  15.647   3.927   2.799 -0.0885  0.0146  0.5391
27041W        W45245   4.106  15.291  14.323 -0.0643  0.3400 -0.1783
27042W        W45246   9.445  16.985   0.677  0.0293  0.0279  0.0294
27043W        W45247   1.024   0.435  14.506 -0.2653  0.0077 -0.0431
27044W        W45248  18.902  14.533  12.322  0.1767  0.0735  0.0496
27045W        W45249  14.837  16.045   2.482 -0.1242 -0.0551  0.2290
27046W        W45250  17.683   7.302  14.602 -0.1375 -0.5556  0.0756
27047W        W45251   6.185  18.461   3.904  0.0231 -0.0108  0.0674
27048W        W45252   8.017  12.324   1.456  0.3294 -0.1585  0.0273
27049W        W45253   9.188  14.589  12.221 -0.2411 -0.2007  0.1254
27050W        W45254   5.420  15.291  11.434  0.0931 -0.0520 -0.0243
27051W        W45255   6.168  17.351   2.472 -0.0682  0.0722 -0.2464
27052W        W45256   8.780  15.976  10.944  0.2672 -0.1121  0.0888
27053W        W45257  18.005   7.092  13.589 -0.0527  0.2309  0.1644
27054W        W45258  15.521   3.836   2.258 -0.1860  0.0119 -0.1624
27055W        W45259   8.242   9.538  14.329  0.1167 -0.1776  0.0716
27056W        W45260   7.387   1.733   2.472 -0.1440 -0.1113 -0.2092
27057W        W45261  17.153  17.290   2.513 -0.0941  0.0498 -0.1181
27058W        W45262   3.139  17.782  10.549 -0.1431  0.4005 -0.3005
27059W        W45263   7.470   7.983   3.325 -0.1618  0.0868  0.1211
27060W        W45264  16.296  16.272  11.111 -0.0130 -0.0950  0.1043
27061W        W45265  10.106   8.614  14.712 -0.2025 -0.0072  0.1871
27062W        W45266  18.212  18.906   3.484  0.2192 -0.1772  0.0168
27063W        W45267   5.695  11.829   3.451 -0.1353 -0.0447  0.0268
27064W        W45268  17.085   1.584  12.872 -0.2140  0.0576  0.0989
27065W        W45269   8.266   0.760   1.195  0.1234 -0.1438 -0.3276
27066W        W45270  16.982   2.837   1.017  0.0177 -0.0511  0.0822
27067W        W45271   2.400   6.871  12.893  0.2532  0.1680 -0.0328
27068W        W45272  11.003  12.267  12.443  0.1220 -0.3399 -0.0521
27069W        W45273   4.467  10.753   0.982  0.2541  0.2533  0.3026
27070W        W45274   8.088   1.668   3.565  0.3265 -0.0853  0.5181
27071W        W45275   2.529   1.049   3.313 -0.3464  0.1595  0.0883
27072W        W45276  17.305  16.230  11.260  0.1665  0.2620  0.2102
27073W        W45277  17.864   1.533  12.371  0.0849  0.0711  0.2605
27074W        W45278   4.372  10.702  10.445  0.1925 -0.1901  0.1798
27075W        W45279   2.871   6.517  11.586  0.1892 -0.2592 -0.4007
27076W        W45280   9.626  11.651  10.568  0.0883 -0.0371  0.1696
27077W        W45281  13.977  14.150   0.790  0.2441  0.0069  0.1016
27078W        W45282   0.928   3.903  12.309  0.0108  0.1169  0.1507
27079W        W45283  16.287  12.718   9.688 -0.1730 -0.0812 -0.1391
27080W        W45284   1.383   2.712  14.179  0.0500 -0.0243 -0.4940
27081W        W45285  15.937  15.571  10.665 -0.0631 -0.0431  0.2235
27082W        W45286  14.363   4.785   3.933  0.0932  0.1067  0.2887
27083W        W45287  17.821   6.193   3.470 -0.0531  0.1156  0.1649
27084W        W45288  12.170  11.201   3.144 -0.0035  0.1091  0.2860
27085W        W45289  17.108  12.333  13.130 -0.1683 -0.1566 -0.0905
27086W        W45290  12.370  13.925   1.212 -0.1506  0.0771 -0.3011
27087W        W45291  14.756  16.137   0.600 -0.0793 -0.0366  0.0720
27088W        W45292   4.492   8.886  14.634  0.1551 -0.1453 -0.0754
27089W        W45293  11.813   6.167   1.922 -0.2112 -0.1477 -0.0255
27090W        W45294   3.180   7.616  14.615 -0.1916 -0.2677 -0.0943
27091W        W45295  10.601  10.552   2.120 -0.1816  0.2552  0.0507
27092W        W45296  13.217   1.912  13.994 -0.0815 -0.2271 -0.0096
27093W        W45297   7.132   7.087   2.940 -0.1957 -0.1424  0.0308
27094W        W45298   0.698  15.811  10.329 -0.0918  0.0244 -0.1826
27095W        W45299   1.156  15.496   4.470 -0.1460 -0.1102 -0.0164
27096W        W45300  14.078  15.088   0.145  0.3307 -0.0547 -0.0712
27097W        W45301   1.738   0.834  11.519 -0.3501  0.3816  0.3020
27098W        W45302  18.779   4.126  13.387  0.3188 -0.1171 -0.0827
27099W        W45303  16.768   6.885   2.781 -0.0879  0.0801  0.0735
27100W        W45304   3.064  13.860   1.886 -0.1697  0.0729 -0.2470
27101W        W45305   5.786  11.317  10.886 -0.0053  0.0331  0.3675
27102W        W45306   8.075   1.144   4.719  0.2357 -0.2505 -0.0843
27103W        W45307   5.562   1.720   1.343  0.0509 -0.1451 -0.4359
27104W        W45308   3.985   4.868  12.770  0.2269 -0.3459  0.1472
27105W        W45309  13.666  12.287  12.060  0.3046 -0.0684  0.0021
27106W        W45310   2.096   8.405  13.700 -0.0904  0.1256  0.3843
27107W        W45311  14.234   1.704   2.346  0.0329 -0.2183  0.2795
27108W        W45312  18.022  13.747   1.793 -0.2079 -0.0423 -0.4435
27109W        W45313   7.646  11.405   1.802 -0.0671 -0.2018 -0.3440
27110W        W45314   5.990  12.096   3.856  0.0122  0.0133 -0.1686
27111W        W45315   9.033   6.671  11.486  0.2402  0.0730 -0.2958
27112W        W45316  17.451   7.322   1.153 -0.1722 -0.1103 -0.1570
27113W        W45317   4.185   1.104   4.147  0.1562  0.0274 -0.1598
27114W        W45318  16.369   0.044   3.580 -0.2281  0.2981 -0.2540
27115W        W45319  18.178  10.672   4.656 -0.2863 -0.0537  0.0351
27116W        W45320   8.488   0.375  13.872 -0.0925  0.0431  0.1404
27117W        W45321   6.115   7.866   3.129 -0.1071 -0.2393  0.1699
27118W        W45322   3.528  12.471   2.398  0.2249  0.3955 -0.4800
27119W        W45323  15.574   4.088   5.313  0.1786 -0.3384  0.0625
27120W        W45324  13.392   2.954   0.702 -0.2734 -0.2923 -0.1915
27121W        W45325  18.133  11.189  11.839  0.2585  0.1641 -0.2679
27122W        W45326  13.047   7.669  12.629  0.2904  0.0734  0.0107
27123W        W45327  15.843  12.727  13.830  0.1079 -0.0539 -0.4687
27124W        W45328  10.766   2.691   4.299  0.4231 -0.0958  0.0293
27125W        W45329   2.643  15.626   5.139 -0.1916 -0.0202 -0.1282
27126W        W45330  11.735  15.045   0.495  0.2199 -0.1897  0.0696
27127W        W45331   6.280  12.815  14.059  0.4326 -0.2124  0.0312
27128W        W45332  11.349  12.927   0.144 -0.1114  0.2493  0.1219
27129W        W45333   6.940  17.452   0.708 -0.4376 -0.2755  0.2734
27130W        W45334   0.116   4.662   2.992  0.2629 -0.1886 -0.0634
27131W        W45335  11.677  17.468  12.748  0.2097  0.3781 -0.0966
27132W        W45336  13.058   3.149   2.540 -0.0266 -0.0872  0.2561
27133W        W45337   2.003   1.501   0.578 -0.0070  0.2919  0.0317
27134W        W45338   1.575   2.205   0.871 -0.1987 -0.4002  0.1151
27135W        W45339   7.935  14.386   3.788  0.1315  0.0861  0.1293
27136W        W45340  17.510  11.211   4.471 -0.2067  0.1348 -0.5020
27137W        W45341   9.764   2.577   1.036 -0.0447 -0.1273  0.1948
27138W        W45342  10.876  10.800  14.241 -0.0122 -0.2738  0.0041
27139W        W45343   3.457   7.728   4.396 -0.2438  0.0199 -0.0510
27140W        W45344  17.241  16.672   4.081  0.1712 -0.0560 -0.0863
27141W        W45345   7.691  17.425   1.696 -0.0329  0.0199  0.1087
27142W        W45346   0.492  10.623   1.027 -0.0351 -0.2383  0.2376
27143W        W45347   2.734  14.133  12.523 -0.1767  0.2585 -0.1023
27144W        W45348  18.731   8.947  11.161 -0.0071 -0.2169 -0.3487
27145W        W45349  16.151  15.726  11.934  0.2479 -0.2972  0.0005
27146W        W45350   0.314  15.197  14.435  0.1420  0.0741 -0.2256
27147W        W45351  14.029  10.781   3.621  0.0899 -0.1230  0.1607
27148W        W45352  13.830   9.960  11.745  0.1377  0.1979  0.0094
27149W        W45353   6.565   1.721   4.411  0.0964  0.2218  0.2581
27150W        W45354   7.788  17.694   2.940  0.0029 -0.1614 -0.2451
27151W        W45355  12.812   8.707   1.841 -0.0158 -0.0332 -0.2503
27152W        W45356   0.803   0.874   2.634 -0.1530  0.1885  0.0172
27153W        W45357  10.669   6.220  11.027 -0.1397 -0.0314  0.0144
27154W        W45358   3.591  15.293   3.015  0.3570 -0.3752  0.2067
27155W        W45359  18.355  10.461   2.867 -0.0522 -0.3071 -0.1528
27156W        W45360   4.313  12.201  13.884 -0.0930 -0.1716  0.2151
27157W        W45361   1.229  18.947  14.757 -0.2178  0.1621 -0.1550
27158W        W45362  10.795   0.661   1.246  0.2966  0.0836  0.1861
27159W        W45363   5.338  17.993   3.163 -0.4095 -0.0373  0.0909
27160W        W45364   9.574  17.134  12.219  0.1640 -0.2423  0.0638
27161W        W45365   0.647  10.960  13.724 -0.2716 -0.3843 -0.1038
27162W        W45366  13.423  18.572  14.171 -0.0772 -0.1079 -0.0976
27163W        W45367  12.602   4.862   4.299  0.2173 -0.1576  0.0473
27164W        W45368   4.509   3.438  11.706 -0.1292 -0.0424 -0.0059
27165W        W45369   3.547  17.852   1.044 -0.0538 -0.0924  0.2231
27166W        W45370  17.662  15.290  13.992 -0.1196 -0.0127 -0.0569
27167W        W45371  12.943  14.912   2.864 -0.0179 -0.0154  0.1935
27168W        W45372   0.985   6.462   4.045  0.0494 -0.2154 -0.1252
27169W        W45373  15.003  14.813   1.858 -0.2595 -0.2463 -0.1962
27170W        W45374   8.196   4.980   1.867 -0.0793 -0.0177 -0.2437
27171W        W45375   1.495   1.697  13.052  0.2706  0.1333  0.0312
27172W        W45376  10.241   8.269  11.290  0.1632 -0.0230  0.0140
27173W        W45377   9.486  16.552  15.026 -0.0579 -0.1174  0.1499
27174W        W45378   3.958  15.476   5.333 -0.0779  0.0604  0.0635
27175W        W45379  10.288  14.211   1.057 -0.0867  0.0077 -0.0635
27176W        W45380  15.256  14.492  11.139  0.0912  0.1074  0.1374
27177W        W45381  14.874  16.416  11.964 -0.2050 -0.1705 -0.2865
27178W        W45382   6.548  17.352   4.334  0.0659 -0.1610  0.1271
27179W        W45383  14.236   7.877  11.325 -0.2916  0.1822 -0.0137
27180W        W45384  13.358  16.029   1.146  0.0195  0.0907 -0.1134
27181W        W45385   0.221  11.783   4.550 -0.2264 -0.0913  0.0438
27182W        W45386  12.949  10.350   2.555  0.3297 -0.1660  0.0585
27183W        W45387   8.070   4.468  10.597 -0.3331 -0.0626 -0.0748
27184W        W45388   1.043  14.555   3.543 -0.0814  0.0479 -0.0131
27185W        W45389   7.839  16.946   3.516  0.2112  0.0383  0.1810
27186W        W45390  12.253   7.685   2.816 -0.0243 -0.0370 -0.1381
27187W        W45391   2.778   6.441  11.091 -0.0582 -0.1710  0.5565
27188W        W45392   2.351  13.129  11.809 -0.3158  0.1923  0.2351
27189W        W45393   9.055  16.560   4.207  0.3029  0.0065  0.1010
27190W        W45394  17.237  13.963   0.713 -0.1056  0.1302 -0.1825
27191W        W45395   5.698   9.470  10.599  0.0163  0.2323  0.2669
27192W        W45396   3.611  18.738  12.157 -0.2726 -0.1179 -0.2059
27193W        W45397   4.826   5.555  12.037 -0.0381 -0.0072 -0.5487
27194W        W45398   5.144  11.757  14.152 -0.0597  0.2141 -0.1237
27195W        W45399   1.449  13.636   1.486 -0.1529  0.2839  0.4034
27196W        W45400   1.261   2.854   0.490  0.0872  0.3896 -0.2287
27197W        W45401  15.696   0.109   9.435  0.1488 -0.0500 -0.0222
27198W        W45402  15.694   3.496  12.600  0.3474 -0.0584  0.0417
27199W        W45403  12.275   2.204   3.898 -0.1755  0.1414  0.3793
27200W        W45404  13.513   8.850  11.727 -0.1175  0.0329 -0.1678
27201W        W45405   7.631  17.983  11.753 -0.1290  0.2493 -0.0180
27202W        W45406   0.617   4.214  12.639 -0.0330  0.0766 -0.0158
27203W        W45407  14.984  10.345  11.377  0.1331  0.1196  0.1919
27204W        W45408  15.678   7.641  11.788 -0.0192  0.0518  0.1051
27205W        W45409   9.487   4.307  14.960  0.0639 -0.0125 -0.0432
27206W        W45410  17.820   9.378   0.981 -0.0617 -0.0927  0.1927
27207W        W45411   8.758  14.773   0.684  0.2820  0.0476 -0.0321
27208W        W45412   6.599  17.648   2.095  0.2555 -0.1950 -0.0071
27209W        W45413   4.810   9.381   4.028 -0.2455 -0.0556  0.0301
27210W        W45414   5.664   0.690  14.975  0.2125  0.0344  0.0181
27211W        W45415   7.392  14.102  12.944  0.1327  0.0068 -0.0959
27212W        W45416  11.069   0.377  12.487 -0.0415 -0.0260 -0.0982
27213W        W45417  16.283  11.842   2.052 -0.1541  0.0278  0.0990
27214W        W45418  18.630  11.846   2.848  0.0503  0.0173  0.1441
27215W        W45419   4.974   1.116   1.077  0.4217  0.0756  0.2580
27216W        W45420   5.311  11.523  11.575 -0.2058 -0.2657  0.0350
27217W        W45421   6.105  14.048   2.414 -0.1779  0.2898 -0.1079
27218W        W45422  12.067   1.982   2.467  0.1452 -0.0216 -0.1056
27219W        W45423  14.150   2.710   3.361 -0.2125  0.0775 -0.0395
27220W        W45424   5.619  16.594   1.579  0.1863  0.1069  0.0021
27221W        W45425  11.666   4.025   0.319 -0.0731  0.0421  0.1374
27222W        W45426  18.255  13.069  12.936  0.0430 -0.1257  0.3112
27223W        W45427   1.224  18.413  11.937 -0.0981  0.0788 -0.2717
27224W        W45428   9.422   4.223  12.068  0.1209 -0.0373 -0.2381
27225W        W45429   9.404  16.255   2.462 -0.3611 -0.0659  0.0256
27226W        W45430   0.475   4.975   3.250  0.2292 -0.0038  0.2779
27227W        W45431   2.940  13.996  14.444  0.0398 -0.0601  0.0750
27228W        W45432   5.573   7.127  14.395 -0.3437  0.3459  0.2646
27229W        W45433  17.191  17.314  13.284  0.1274 -0.1025  0.1365
27230W        W45434  10.792   6.859  13.545 -0.1042  0.2267  0.1118
27231W        W45435  17.797   7.640  11.080 -0.1175 -0.0407  0.4324
27232W        W45436  14.725  16.894   0.123 -0.1321 -0.0308  0.1389
27233W        W45437   3.206   8.090   4.600 -0.4452 -0.0260  0.0778
27234W        W45438  13.540   6.565   0.810 -0.1586 -0.0518  0.0453
27235W        W45439   7.971   9.604  11.746 -0.2134 -0.0093 -0.0309
27236W        W45440  10.474   6.948   2.401  0.2606  0.3180 -0.0604
27237W        W45441   4.835   7.600   2.938 -0.3962  0.0934 -0.1269
27238W        W45442  14.907   8.077   1.891 -0.1758 -0.0939 -0.1252
27239W        W45443   2.196   1.925   4.289 -0.1482 -0.1634 -0.1201
27240W        W45444  10.772  14.828   1.555 -0.0772  0.2811  0.3877
27241W        W45445  15.152   4.606  14.896 -0.0633  0.0012 -0.0899
27242W        W45446  11.185   2.616   3.436  0.1015  0.0800 -0.2364
27243W        W45447   5.459   2.891   0.590 -0.0074 -0.2490  0.0549
27244W        W45448   8.382   6.648   4.921  0.1449 -0.2870  0.2326
27245W        W45449   5.160   1.680   2.266  0.0760  0.2075 -0.2852
27246W        W45450   1.596  17.141   9.484  0.1511  0.2219 -0.1677
27247W        W45451   1.881   6.762  12.667  0.0198  0.2248  0.0254
27248W        W45452   9.974   7.043  14.469  0.1888 -0.1326 -0.0268
27249W        W45453  10.429   4.396   0.089 -0.0583  0.1152  0.0794
27250W        W45454   6.490   4.809  10.286  0.0679 -0.0571  0.0495
27251W        W45455  10.256  13.132  13.777 -0.0195  0.1822  0.2139
27252W        W45456   9.786   8.578   3.459 -0.3035  0.0364 -0.2202
27253W        W45457   2.959  13.633   0.969 -0.2023  0.0259  0.0246
27254W        W45458   5.271   2.008  12.608  0.0551 -0.1984 -0.1422
27255W        W45459   9.593  15.236  12.061 -0.0599 -0.1181  0.0014
27256W        W45460   0.569   8.804  13.540 -0.4152  0.2128  0.2761
27257W        W45461   5.456  15.598  11.911  0.2852 -0.0958  0.1046
27258W        W45462  15.903   1.884  11.863 -0.1954 -0.0648 -0.1115
27259W        W45463   8.513  12.948  14.506  0.1824  0.0328  0.1782
27260W        W45464   9.329  11.547  11.159 -0.0520 -0.1325  0.2845
27261W        W45465   7.159  16.193  14.912 -0.0387 -0.0366 -0.1213
27262W        W45466   0.096   6.962  12.853  0.2133 -0.3133  0.3249
27263W        W45467  15.270   4.175  11.073 -0.3806  0.1336 -0.2411
27264W        W45468  11.850   4.217   4.432 -0.0350 -0.0150  0.2613
27265W        W45469   1.132  12.659   1.282 -0.0399 -0.2367  0.0033
27266W        W45470  18.149   1.657   2.739 -0.2225  0.0782  0.0714
27267W        W45471   9.820  13.608   1.233  0.0058 -0.4004  0.0590
27268W        W45472  17.045   7.129   2.131  0.1459  0.1673  0.0568
27269W        W45473  17.464  12.559   1.609 -0.0597 -0.2457  0.1194
27270W        W45474   6.360  17.379  10.629  0.0385  0.0805 -0.0636
27271W        W45475   9.765   7.675  12.987  0.0664  0.0003  0.0458
27272W        W45476   7.944   5.779   0.339  0.0167  0.1918  0.1826
27273W        W45477   3.473   8.354   1.150  0.0634  0.1427  0.0299
27274W        W45478   9.662   6.505   2.019 -0.3365  0.1566 -0.0015
27275W        W45479  16.208   9.494   4.884  0.1833 -0.0958  0.3158
27276W        W45480  14.192   6.145  11.474  0.1465 -0.2519  0.2963
27277W        W45481   0.853   1.210  13.567  0.0683 -0.2207 -0.1291
27278W        W45482  12.137   2.076  13.548  0.1370 -0.0772  0.5976
27279W        W45483  11.037   8.841  10.906 -0.1697  0.1894  0.0417
27280W        W45484  13.854   3.884   0.485 -0.0139  0.2447  0.2075
27281W        W45485   1.856  13.460   4.303 -0.2231  0.1549 -0.1271
27282W        W45486  11.858  13.559  13.377 -0.2639  0.4551 -0.1958
27283W        W45487   5.814   5.324  14.277 -0.2517  0.4283 -0.1652
27284W        W45488  15.667  10.708  12.470 -0.0203  0.0217  0.0522
27285W        W45489  14.502   1.577  14.281  0.1044 -0.1045 -0.1915
27286W        W45490  18.820   7.480   2.462 -0.0169  0.0151 -0.2219
27287W        W45491  16.448  10.651   0.977 -0.0567 -0.0405 -0.0558
27288W        W45492  11.095   3.911  10.846 -0.1809 -0.1242  0.2041
27289W        W45493  15.347   5.558   2.997 -0.2284 -0.0158  0.2374
27290W        W45494  14.415  18.762   0.752  0.2620  0.0814 -0.1213
27291W        W45495   9.855  11.266  12.903 -0.1351  0.2289 -0.0435
27292W        W45496   3.015  15.475  14.111 -0.2559 -0.1059  0.2272
27293W        W45497  11.907   6.728  12.417 -0.0327  0.1067  0.0139
27294W        W45498   5.417  13.412   0.383  0.2542 -0.1323  0.3081
27295W        W45499   4.453  16.159   5.296 -0.5716 -0.1262 -0.0028
27296W        W45500   3.838   7.208  12.584  0.2299 -0.1179  0.1569
27297W        W45501  14.994   4.099  13.870 -0.2594  0.0538 -0.0816
27298W        W45502   5.409   7.083  12.650  0.1816  0.2826  0.2555
27299W        W45503   5.483  17.024   3.569 -0.0449 -0.0442 -0.3292
27300W        W45504   8.937  14.056   4.376  0.1947  0.1316  0.2094
27301W        W45505   7.187   1.073  12.637 -0.7031  0.1121 -0.1297
27302W        W45506  11.121   3.953   1.960  0.0073 -0.0961 -0.1398
27303W        W45507   0.305  14.630  10.931 -0.0720 -0.0812 -0.2030
27304W        W45508  18.596   8.745  13.502 -0.1939 -0.0468 -0.1427
27305W        W45509  11.389   8.404  13.026 -0.0549  0.0653 -0.2612
27306W        W45510  12.285  17.801  12.279 -0.2248 -0.1565 -0.1722
27307W        W45511   9.125  10.815  12.704 -0.4158 -0.0632  0.1251
27308W        W45512  14.968   7.180  12.978  0.1163  0.1817 -0.3134
27309W        W45513  11.973  14.870   3.007  0.1680 -0.2206  0.0808
27310W        W45514  15.923   7.791   0.417  0.0886  0.1313 -0.0970
27311W        W45515  16.252   4.766   0.489  0.0982 -0.0888 -0.0028
27312W        W45516   7.139  14.071   2.516 -0.4983 -0.1083  0.1924
27313W        W45517   2.729  14.188  10.286  0.0392  0.2423  0.0797
27314W        W45518  12.679  17.906   2.466  0.0064  0.2306 -0.2174
27315W        W45519   1.907  15.616   1.334 -0.2041 -0.2963 -0.1688
27316W        W45520  12.800  13.105   1.475  0.3333  0.2688  0.0912
27317W        W45521  12.466  17.639   1.296 -0.3428  0.0929  0.2184
27318W        W45522   7.190  15.968   3.683  0.0211 -0.0298 -0.0244
27319W        W45523  16.027   3.908  13.329  0.1959 -0.1688  0.1402
27320W        W45524  16.597  18.887  11.391  0.1403 -0.3781 -0.0943
27321W        W45525   6.600   1.401   2.388 -0.0112  0.0493  0.5498
27322W        W45526  16.687  15.575   3.733 -0.3025  0.0728  0.2016
27323W        W45527   1.918   9.767  14.442  0.0136 -0.2004  0.2439
27324W        W45528  17.714  18.228   0.581  0.1378 -0.3383  0.1630
27325W        W45529   1.474  12.213   2.352  0.0966 -0.0205 -0.0393
27326W        W45530  15.979   5.611  10.708 -0.1019  0.2842  0.0532
27327W        W45531   0.219  15.002   3.418 -0.0319  0.0253 -0.0273
27328W        W45532   4.900   0.345   0.306 -0.5201 -0.0690 -0.0567
27329W        W45533   5.861   3.615  10.951  0.0324  0.2427  0.0911
27330W        W45534  17.059  12.596  12.259  0.0685 -0.0290  0.0586
27331W        W45535   3.106  18.583   1.146  0.0829 -0.0782 -0.0408
27332W        W45536   5.453  13.880   1.658  0.0491 -0.2380  0.0372
27333W        W45537   3.076  14.115   4.238 -0.2884 -0.0851  0.0150
27334W        W45538   2.628  14.402   4.307 -0.1587  0.0173 -0.0785
27335W        W45539  18.453   4.334   0.378  0.1141  0.2706 -0.2004
27336W        W45540   8.448   9.593   0.271 -0.4284 -0.1855  0.1454
27337W        W45541  18.936   0.922  12.600 -0.2282 -0.2004 -0.3784
27338W        W45542   0.806   7.595   0.550 -0.0010 -0.0055 -0.0209
27339W        W45543   6.140   4.224   4.937  0.3046 -0.1960  0.0014
27340W        W45544   1.407   3.835   2.544  0.2855  0.0321 -0.0526
27341W        W45545  17.657  14.416   4.065  0.1564 -0.0950 -0.1437
27342W        W45546  14.439   5.964   4.657 -0.0265 -0.0897 -0.0500
27343W        W45547   5.214   6.794  11.955  0.2460  0.0430  0.3907
27344W        W45548  13.739   8.695  12.150  0.1013 -0.1567  0.2582
27345W        W45549  10.137   8.247   0.951 -0.0467  0.1141 -0.0469
27346W        W45550   8.547   8.039  11.475  0.1975  0.0438  0.0090
27347W        W45551  15.259   5.395  14.494 -0.0576 -0.2700  0.1365
27348W        W45552   4.351   8.479   3.153 -0.0795 -0.0493 -0.0681
27349W        W45553   2.491   5.032  14.233 -0.0517  0.0142 -0.0450
27350W        W45554   7.185   6.167   3.191 -0.0115 -0.1851 -0.2842
27351W        W45555  13.233  13.882   3.549 -0.3799  0.2343 -0.2140
27352W        W45556   8.868  17.876   1.981 -0.0782  0.2134 -0.0335
27353W        W45557  17.303  12.607  14.214 -0.1270  0.1603  0.2572
27354W        W45558   7.694  10.845  14.264  0.0507 -0.1750  0.1086
27355W        W45559   8.528  12.911   3.412  0.0709  0.0483  0.1011
27356W        W45560   2.525   0.183  13.303 -0.0081  0.2162 -0.0742
27357W        W45561   3.187   8.755  13.698  0.0994 -0.1242 -0.1700
27358W        W45562   6.737  14.440   2.216 -0.1042  0.1443  0.3493
27359W        W45563  10.558   3.438   3.110  0.0673 -0.2762 -0.2130
27360W        W45564  14.300   6.510   3.913  0.2399  0.2299  0.0074
27361W        W45565   1.485   1.632   3.196 -0.1233  0.0528  0.0302
27362W        W45566  10.678  13.656  11.822  0.0015  0.2015  0.0740
27363W        W45567  15.279   4.986   4.469 -0.1045 -0.1825  0.1729
27364W        W45568   1.317  11.384  14.868  0.1220  0.0751 -0.1189
27365W        W45569  10.341  16.289   4.320  0.1000  0.1334  0.2979
27366W        W45570   4.747  17.626   1.584 -0.1459  0.1123  0.1032
27367W        W45571   5.093  15.171  11.809  0.2205 -0.0383  0.2861
27368W        W45572   5.791  11.810  10.630 -0.3483  0.2850 -0.4528
27369W        W45573   2.220   2.397   0.259 -0.2902  0.0865  0.2000
27370W        W45574  14.217   8.042   9.959 -0.1823  0.1700 -0.1086
27371W        W45575   7.354   1.268   2.349  0.0135 -0.0060 -0.3266
27372W        W45576   7.640  11.442   3.766  0.0921 -0.1109  0.4957
27373W        W45577  10.789   2.434  14.428  0.2578 -0.1442 -0.2787
27374W        W45578  10.504  14.041  14.731 -0.0369 -0.0190  0.5113
27375W        W45579   2.896   1.795   1.446  0.3528  0.0437  0.2050
27376W        W45580   2.662   6.215  14.063 -0.2267  0.1518  0.3984
27377W        W45581  13.300   2.067   0.126  0.0780 -0.0922 -0.1952
27378W        W45582  14.698  10.755   0.967 -0.0433 -0.3056  0.2400
27379W        W45583   9.879  15.982  14.903  0.1069 -0.0672  0.1487
27380W        W45584   1.534   0.850   2.054 -0.0638  0.0119  0.2684
27381W        W45585   6.777   7.994  11.620 -0.1813  0.1253 -0.0642
27382W        W45586   4.307   1.220  13.252  0.2271 -0.0715 -0.3626
27383W        W45587  12.155  16.477  10.522  0.0944  0.1367  0.1966
27384W        W45588  14.078   7.985   3.810  0.2127 -0.1012  0.0164
27385W        W45589  11.703   5.705   1.765 -0.0296  0.2068 -0.0722
27386W        W45590   3.019   0.737  11.669  0.0710  0.1809 -0.0288
27387W        W45591   5.690  10.228  11.671 -0.2768  0.0088  0.2244
27388W        W45592  13.257   5.387  12.099  0.0049  0.1609 -0.0691
27389W        W45593  12.620  13.183  11.947  0.0958  0.2442  0.1944
27390W        W45594  16.787   8.632  14.365 -0.1461  0.1521 -0.0065
27391W        W45595  13.555  16.977   1.191 -0.0334  0.0317  0.2336
27392W        W45596  13.400   8.203  13.341 -0.4599 -0.2005  0.3384
27393W        W45597  13.847  14.642   3.336 -0.0891  0.1245  0.2053
27394W        W45598  16.633   9.903   0.335  0.1534  0.3411  0.3351
27395W        W45599   3.539  13.403  10.950  0.0034 -0.0837 -0.1545
27396W        W45600   8.981   6.260  11.839  0.2040 -0.0114  0.2967
27397W        W45601  13.794  10.424   0.022 -0.4993  0.0926 -0.0624
27398W        W45602   1.734   7.584   2.469 -0.3315  0.2415  0.1110
27399W        W45603  17.049   9.186   0.721  0.0578 -0.0086 -0.0182
27400W        W45604  16.198   8.833   0.536 -0.0220 -0.2398  0.0096
27401W        W45605  18.039   1.705  11.375  0.1171 -0.3206 -0.0236
27402W        W45606  11.715  13.232  14.851 -0.1157 -0.1800 -0.2509
27403W        W45607   7.412   7.551  10.297  0.1766  0.3927  0.0414
27404W        W45608   8.743  13.500   0.228  0.1360 -0.2508  0.4222
27405W        W45609   1.827   9.747  15.005  0.2770 -0.0114 -0.0621
27406W        W45610   0.093  11.592  12.255 -0.0604  0.0571 -0.0125
27407W        W45611   9.165   1.775  14.943 -0.0169 -0.1930  0.1728
27408W        W45612  11.361   4.719  11.560  0.0532 -0.0585 -0.1444
27409W        W45613  14.676   4.537   1.223 -0.2305  0.5242 -0.0443
27410W        W45614   5.686   2.065   4.296  0.1153 -0.3766  0.0500
27411W        W45615  17.812   3.610  12.093 -0.5952 -0.1815 -0.1304
27412W        W45616  14.365  12.812  11.057 -0.0357 -0.3137  0.2380
27413W        W45617   4.473   5.979   3.048 -0.1858 -0.0339 -0.2847
27414W        W45618   9.459  13.356   1.527 -0.2626  0.0035  0.0330
27415W        W45619  11.826  10.659  11.370  0.1695 -0.2533 -0.0544
27416W        W45620  13.529  11.931   4.424 -0.1638 -0.0232 -0.2184
27417W        W45621   5.797   5.999  13.895  0.0750 -0.5026 -0.1819
27418W        W45622  13.977  12.218   0.790 -0.0912 -0.0030  0.3114
27419W        W45623   5.123   8.666   2.541  0.1218  0.1614 -0.1833
27420W        W45624   9.094  12.829  14.588 -0.0727 -0.1015  0.1474
27421W        W45625   6.168   1.643  12.248 -0.0324  0.1536 -0.3680
27422W        W45626  14.149   2.372  11.588  0.3181  0.2045  0.0703
27423W        W45627  15.237   0.573  11.475 -0.3482  0.0970  0.2589
27424W        W45628   4.177   2.839   3.208 -0.0113  0.0555  0.2043
27425W        W45629   4.782   3.718  11.184 -0.1828  0.2031  0.4204
27426W        W45630   5.790  16.309   2.499 -0.1105 -0.0776  0.4020
27427W        W45631   9.998  15.782  11.365 -0.0058  0.1988  0.1036
27428W        W45632   1.745  10.370   3.007  0.1480 -0.2956  0.1117
27429W        W45633   1.698   3.964   0.560 -0.1593 -0.4699  0.1406
27430W        W45634   3.889  12.115   4.953  0.1736 -0.1486  0.1632
27431W        W45635  13.517  16.587   0.561 -0.1266  0.2650 -0.0033
27432W        W45636  11.766  15.974  10.631 -0.2031 -0.0775 -0.0774
27433W        W45637   1.957  16.757   3.097  0.1486  0.1835 -0.0519
27434W        W45638   1.785   6.549   0.388  0.0093 -0.2794 -0.2125
27435W        W45639  10.122   6.087  10.929 -0.0265 -0.3720  0.4688
27436W        W45640  11.698  15.895  11.104 -0.0102 -0.0216  0.1202
27437W        W45641  10.710   0.558   3.224  0.1739 -0.0095 -0.2468
27438W        W45642   4.722  13.123   0.862 -0.2011 -0.1183  0.0668
27439W        W45643   7.058  17.740  12.646 -0.2525  0.2182 -0.1045
27440W        W45644  17.443   0.552  14.996  0.0617 -0.0647  0.3057
27441W        W45645  12.019  13.284  11.489  0.1585 -0.2107  0.1781
27442W        W45646  10.363  12.963  11.825 -0.1656  0.3870  0.0581
27443W        W45647  10.139   0.582  14.745 -0.2415  0.1241 -0.0440
27444W        W45648  17.683   2.354   3.514  0.1984 -0.2412 -0.0379
27445W        W45649  14.953   9.865  11.460  0.0042 -0.1672  0.2538
27446W        W45650   2.040  15.298   2.143  0.3506  0.1093  0.0295
27447W        W45651   1.363  11.775   2.501  0.0453 -0.3714 -0.3535
27448W        W45652   9.955   9.734  13.033 -0.3062  0.3210  0.0545
27449W        W45653   0.556   3.903  10.983 -0.2045 -0.0675 -0.4604
27450W        W45654   6.080   4.154  12.075 -0.0652  0.1535  0.0985
27451W        W45655   5.461   6.657  14.720 -0.0491 -0.0186 -0.3681
27452W        W45656  14.115   8.541   2.871  0.0750 -0.1785 -0.5887
27453W        W45657   2.076  11.043   0.503 -0.1037 -0.1029 -0.0592
27454W        W45658  16.159   2.294  11.673 -0.4276 -0.1344 -0.0133
27455W        W45659   5.124  17.894  11.132 -0.0579 -0.3217  0.2706
27456W        W45660   4.968  14.929   0.230 -0.1652  0.1435 -0.2694
27457W        W45661  15.254   5.071  13.997  0.0364  0.2830  0.1106
27458W        W45662   2.634   3.748   5.183  0.1848 -0.2261 -0.0248
27459W        W45663  18.617  15.089  13.449  0.3954  0.2294  0.1892
27460W        W45664  17.246   2.522   3.318 -0.1140 -0.0563  0.0005
27461W        W45665   7.085  11.149   3.621 -0.0527  0.0166 -0.0336
27462W        W45666   3.457  12.552   0.344  0.1701 -0.0447 -0.1922
27463W        W45667   7.554   1.952   1.184 -0.1568  0.1051 -0.1869
27464W        W45668   9.466   6.260   0.990 -0.0682  0.1148 -0.0774
27465W        W45669  14.196   8.222   0.208  0.4572  0.0790  0.0191
27466W        W45670   0.171  13.277   3.408  0.0714  0.0399  0.0250
27467W        W45671   8.389  18.617  14.399  0.0255  0.2958  0.0351
27468W        W45672   8.725  13.305   4.261  0.0106 -0.2090  0.3755
27469W        W45673  17.614   6.741   0.128 -0.1274  0.1105 -0.1671
27470W        W45674  18.340  11.699   1.212  0.0890 -0.3362  0.4321
27471W        W45675  13.471   2.485  11.830  0.1744  0.0003 -0.1855
27472W        W45676   9.260   2.774  13.312  0.0666  0.2575 -0.0419
27473W        W45677  14.617  12.832   9.298  0.2388  0.0799 -0.2056
27474W        W45678   6.798   9.977  11.446  0.3000 -0.0596  0.1457
27475W        W45679   1.565   6.832   5.114 -0.2023  0.1528 -0.2142
27476W        W45680   2.594  18.164  12.901  0.2437  0.1925  0.0254
27477W        W45681   2.624  18.689  13.071 -0.1604  0.2452 -0.0216
27478W        W45682   4.250   1.213  14.862  0.5025 -0.1249  0.0262
27479W        W45683   0.326  15.511  13.967  0.1162  0.0410  0.0992
27480W        W45684  15.161   9.458   0.730  0.0735  0.3951  0.0572
27481W        W45685   6.425   1.055   0.413 -0.1252  0.3105 -0.0960
27482W        W45686   8.417   8.475   1.019  0.0549  0.0705 -0.0299
27483W        W45687   5.194   5.495   1.402  0.1061 -0.0989 -0.2813
27484W        W45688  15.281  17.955  11.771 -0.2929  0.0355  0.4230
27485W        W45689  16.910   3.539  10.566 -0.1599  0.1448 -0.2619
27486W        W45690   5.780   0.520   2.821  0.1863  0.0362  0.2333
27487W        W45691  15.749   7.573  13.665 -0.0376 -0.0768  0.4862
27488W        W45692  17.859  10.583   0.266  0.1482  0.0590  0.1767
27489W        W45693  10.369  18.635   4.331 -0.0847  0.1942 -0.2450
27490W        W45694   4.364   8.129  10.864 -0.0081 -0.1550  0.0407
27491W        W45695   6.284   9.826   4.320 -0.0427  0.0594 -0.3025
27492W        W45696  14.965   3.997   0.779 -0.0394  0.2001  0.0282
27493W        W45697   2.269  17.631   0.751  0.1850  0.3510 -0.1627
27494W        W45698   9.557  11.938  11.013  0.1147 -0.0523 -0.1268
27495W        W45699  15.125  15.556   5.089 -0.1176 -0.4979  0.0146
27496W        W45700  15.790   2.061  11.384  0.0794 -0.0980  0.2832
27497W        W45701  13.389   4.608   3.038  0.1379  0.2309  0.3039
27498W        W45702  18.137  14.564  13.811 -0.1853 -0.2335  0.0271
27499W        W45703   7.530  13.622   2.681  0.0857 -0.0303 -0.2361
27500W        W45704  10.767   0.235   0.868  0.3633 -0.2395  0.1497
27501W        W45705  15.733   8.994   4.681  0.1950  0.1762 -0.0136
27502W        W45706   7.126   6.278  13.729  0.0336  0.0367 -0.1723
27503W        W45707   5.330  10.194  12.933  0.1011  0.1778 -0.1172
27504W        W45708  10.303   3.121  14.849  0.0956 -0.0446  0.0420
27505W        W45709  17.829  11.781   0.995  0.2594  0.0020 -0.0570
27506W        W45710  11.863  11.138  13.964  0.1241 -0.0520  0.0247
27507W        W45711   7.945   8.087   3.609  0.0716 -0.1858  0.0722
27508W        W45712   1.900   2.435  11.767  0.0890 -0.1926 -0.2423
27509W        W45713   8.642   4.776   2.793 -0.0356 -0.1753 -0.0503
27510W        W45714   6.799   8.009   4.816  0.0134  0.0050 -0.0487
27511W        W45715  17.406  14.215   0.307  0.0699  0.1423 -0.0403
27512W        W45716   4.909   9.475   0.173 -0.0167  0.2749 -0.3796
27513W        W45717  14.255   3.804  13.117 -0.0577 -0.2664  0.2029
27514W        W45718  16.532   0.181  13.760 -0.4680 -0.2975 -0.1458
27515W        W45719   3.283   0.766   9.464 -0.0878 -0.0514  0.2046
27516W        W45720   8.035  11.893   3.777 -0.0618  0.0465 -0.0358
27517W        W45721   2.952   7.244   3.343  0.0824 -0.4196  0.2994
27518W        W45722  17.953  12.672   0.784  0.0637  0.0379 -0.1160
27519W        W45723   4.931   6.459  13.864  0.2366  0.0976  0.4446
27520W        W45724  11.785  14.538  14.419  0.2661  0.0280  0.1154
27521W        W45725  18.482   2.237  14.021 -0.0014 -0.2995  0.2338
27522W        W45726  13.498   9.886  13.839  0.3372 -0.2179  0.1265
27523W        W45727   7.556   5.136   0.602 -0.0313  0.2640 -0.1155
27524W        W45728  17.814   3.134   0.964 -0.0447 -0.0799  0.2312
27525W        W45729  17.714   7.105   4.296 -0.0067  0.1989 -0.1009
27526W        W45730   0.224  10.189  13.519  0.1035  0.3087  0.1189
27527W        W45731   5.212  17.101   2.246 -0.2450 -0.2459 -0.0632
27528W        W45732   8.482  15.977  14.793  0.0845  0.3270 -0.0117
27529W        W45733  17.631  15.006  11.324  0.4083  0.1985 -0.1689
27530W        W45734  13.524   5.583   4.599  0.4200  0.1333  0.3426
27531W        W45735   9.845   3.097   3.137 -0.1209  0.0980  0.1653
27532W        W45736   8.383   0.268   4.530  0.2107  0.1083 -0.0693
27533W        W45737   0.929   1.532  11.382 -0.1248  0.0857  0.1376
27534W        W45738   9.872  12.204  11.652 -0.1588  0.2198  0.0969
27535W        W45739  17.112   2.983  11.158  0.0508  0.0591  0.1099
27536W        W45740   7.939   3.658   0.514 -0.0918  0.0938 -0.0581
27537W        W45741   0.990   2.928  14.563  0.0445 -0.0365 -0.1002
27538W        W45742  12.802  16.444   2.756  0.3787  0.0494  0.0922
27539W        W45743   2.600   4.943   2.944  0.1730  0.1070  0.0418
27540W        W45744  18.007   6.716   3.339 -0.0353  0.1939 -0.2178
27541W        W45745   8.174  17.536   3.799  0.0197  0.0839  0.0567
27542W        W45746  10.871   3.799   3.596 -0.1524  0.0539 -0.2530
27543W        W45747  13.598  15.118   0.456  0.0205 -0.2742  0.0612
27544W        W45748  10.573  12.063  12.163  0.1244  0.1673 -0.1838
27545W        W45749   5.308  16.589   3.345 -0.2404  0.1061 -0.0070
27546W        W45750   2.783  16.075   2.895  0.1616 -0.0144 -0.0240
27547W        W45751  12.613   1.142   3.951  0.0417  0.2895 -0.0615
27548W        W45752   7.746   8.776  14.143 -0.1453 -0.0463 -0.1055
27549W        W45753  15.101  17.122   0.444  0.2259 -0.2375  0.1540
27550W        W45754  18.038   9.185  10.753 -0.1473  0.1322 -0.1495
27551W        W45755   9.661  10.955  12.496  0.3024 -0.0705  0.2693
27552W        W45756  11.573  13.543  13.963  0.2691  0.2092 -0.0219
27553W        W45757   5.054  13.504  14.402 -0.2095 -0.1097 -0.1109
27554W        W45758   2.315   1.733  14.869 -0.2105 -0.0610 -0.0356
27555W        W45759   4.579   1.300  14.460 -0.2077  0.3722  0.2015
27556W        W45760   4.285   1.879  10.997 -0.0315  0.0228  0.3433
27557W        W45761   2.393   0.498   2.486  0.1807  0.2516  0.0116
27558W        W45762  12.908  16.066   3.900  0.3819  0.0169 -0.1103
27559W        W45763  17.665   1.491   1.767  0.1844  0.0623 -0.1068
27560W        W45764   2.911  17.343   2.379  0.2010  0.1826  0.1245
27561W        W45765  17.185   5.435   3.033 -0.3223 -0.0055  0.1036
27562W        W45766   3.822  15.948   0.520  0.1762  0.4279 -0.3154
27563W        W45767  15.066  11.012   3.267 -0.1648  0.3271  0.2907
27564W        W45768   8.754   8.518   1.575  0.0237  0.0411  0.1387
27565W        W45769   1.415  16.239  11.175 -0.2433  0.4227 -0.0555
27566W        W45770  11.280  12.276  14.280  0.2935 -0.2323 -0.0973
27567W        W45771   7.938   7.855   3.168  0.1970  0.0134  0.0705
27568W        W45772  12.647  10.643   0.469 -0.0531  0.1339  0.2284
27569W        W45773  12.814  15.403  11.509  0.2522 -0.2547 -0.1220
27570W        W45774   8.187  17.049  14.376 -0.0750  0.2997  0.1291
27571W        W45775  12.842   6.622  10.656 -0.2674  0.0904  0.1625
27572W        W45776   0.334  14.873  12.517 -0.1489  0.0978 -0.0222
27573W        W45777  18.154   7.012  10.960  0.2465 -0.2229 -0.4142
27574W        W45778  12.141   0.866   2.838 -0.2823  0.1480 -0.3034
27575W        W45779  18.359  11.767   1.904 -0.0766 -0.3670  0.1722
27576W        W45780   4.991  18.557   5.893  0.1730 -0.1223  0.0964
27577W        W45781   1.624  12.335   4.073  0.3070  0.0140 -0.0981
27578W        W45782  12.830   4.254   2.711  0.2339  0.0686  0.0863
27579W        W45783  16.002   0.582  14.707 -0.0106  0.1636 -0.0315
27580W        W45784  16.613   9.077  10.939 -0.0373 -0.0266 -0.0578
27581W        W45785   4.337   2.680   4.188  0.2131 -0.0886 -0.1382
27582W        W45786  13.102   2.161  13.243 -0.1793 -0.1765 -0.0157
27583W        W45787  11.514  18.601  10.495  0.1571  0.2419  0.0003
27584W        W45788   8.421   1.978   3.696  0.2263  0.0462  0.2037
27585W        W45789  16.493  11.351  14.154 -0.0946 -0.3491  0.0889
27586W        W45790  10.807  16.349   1.962  0.4302  0.1995  0.1654
27587W        W45791   0.798  17.571  13.301  0.0876 -0.2502 -0.0951
27588W        W45792   0.533   7.689   3.787 -0.1701 -0.1648  0.0306
27589W        W45793  18.718  10.815  13.830  0.1759  0.1336  0.3198
27590W        W45794   9.492   0.640   0.512 -0.0653 -0.5247 -0.0283
27591W        W45795  16.336   5.741  11.059 -0.0995  0.0993  0.0363
27592W        W45796   7.677   9.606   1.884  0.2690  0.1007  0.0224
27593W        W45797  15.600  15.511  11.067  0.1595 -0.0545  0.3160
27594W        W45798   1.720   5.681   4.946 -0.2260  0.1242 -0.1623
27595W        W45799   6.614   0.636  14.224 -0.2425  0.0724 -0.3457
27596W        W45800   7.185  17.725  11.767  0.0563  0.3335  0.0592
27597W        W45801  10.529  14.910   3.379  0.4411  0.1921 -0.0700
27598W        W45802  17.373   7.278  13.516 -0.0429  0.0418 -0.5024
27599W        W45803  15.953  11.034   0.281 -0.1399 -0.0581 -0.2463
27600W        W45804   9.735   5.741   0.346 -0.0165  0.0064  0.1016
27601W        W45805  14.915  12.817   4.009  0.1133  0.2565  0.3028
27602W        W45806  12.016  10.682  13.807 -0.3641 -0.1751  0.2275
27603W        W45807   4.579  18.920  12.055 -0.2013  0.1656  0.0197
27604W        W45808   5.367  12.492   0.874 -0.0012 -0.0832 -0.0997
27605W        W45809  10.554   7.362   3.087  0.3410  0.3153 -0.0115
27606W        W45810   3.501   0.250  13.413  0.2975 -0.0530 -0.0248
27607W        W45811   7.299   8.873  13.106 -0.1909 -0.1283  0.1094
27608W        W45812  11.604  15.967   3.785 -0.0731 -0.3130 -0.1771
27609W        W45813   5.669   3.547   1.378  0.0909 -0.0429 -0.2934
27610W        W45814  14.339  10.801  13.417 -0.2039  0.0627  0.2953
27611W        W45815   0.969   5.100   1.216 -0.0535 -0.1012  0.0529
27612W        W45816   4.292  14.309  14.625  0.0535  0.2817 -0.0999
27613W        W45817   8.614   0.714  11.031 -0.2998  0.2104 -0.0519
27614W        W45818  17.843  12.791   1.298  0.1741  0.1684  0.0915
27615W        W45819  12.395   3.956   3.406  0.1224 -0.1320  0.0737
27616W        W45820  12.498   4.817  12.824  0.1970  0.2767 -0.1779
27617W        W45821  18.288  18.455  11.831 -0.0715  0.0772  0.1975
27618W        W45822   2.428   9.612  11.628 -0.1358  0.4434 -0.1467
27619W        W45823  16.201   0.562   2.346  0.0834 -0.3852  0.1411
27620W        W45824  11.513   8.335   1.864 -0.1573  0.1229 -0.0775
27621W        W45825   1.898  18.002  13.979  0.1631 -0.0789 -0.0998
27622W        W45826  11.969   6.217   3.276  0.1901 -0.2799  0.2337
27623W        W45827   8.466  15.677  13.760 -0.0387  0.0015 -0.3718
27624W        W45828   0.860  10.302   2.383  0.0415  0.1091 -0.0308
27625W        W45829   3.595  10.516  12.346  0.4921 -0.0788 -0.2388
27626W        W45830  11.263   6.352   4.376  0.0136 -0.1938 -0.1286
27627W        W45831   7.086  12.612  13.281  0.3105  0.1606  0.1457
27628W        W45832   8.727  17.120  10.106  0.1390 -0.2229  0.0838
27629W        W45833   7.437  14.121   0.464  0.0889 -0.0938 -0.1665
27630W        W45834   6.754   8.814   1.198 -0.2905 -0.0808  0.0374
27631W        W45835  16.369  10.190  12.525 -0.1334  0.3961 -0.4268
27632W        W45836   3.511  11.860   4.695  0.3346 -0.0679 -0.0480
27633W        W45837  14.465   7.726   4.443 -0.0615 -0.1625  0.1390
27634W        W45838  11.542  16.889  11.155  0.1487  0.3194  0.1103
27635W        W45839  11.592  18.180  13.855 -0.1473  0.0165  0.1968
27636W        W45840  10.713   9.449   4.776  0.0150 -0.1493  0.3656
27637W        W45841   8.073   6.953   4.465 -0.1106  0.0743 -0.0489
27638W        W45842   7.812  18.795   3.824 -0.0179  0.1241 -0.1480
27639W        W45843  11.843  14.108  14.667  0.1996  0.0960  0.2555
27640W        W45844  17.677   1.766  11.064 -0.1313  0.2307 -0.0166
27641W        W45845   1.087   1.188   3.501 -0.2727 -0.0085 -0.2845
27642W        W45846   7.942  10.273  11.259  0.3635 -0.0676 -0.2089
27643W        W45847  11.262  17.902   0.702 -0.0867 -0.0231  0.1110
27644W        W45848   7.077  10.264  15.017 -0.0101 -0.3315 -0.3089
27645W        W45849  12.642   5.108   2.019  0.1120 -0.2717 -0.0030
27646W        W45850   4.140   0.830   0.126 -0.1343 -0.2200  0.0078
27647W        W45851   9.844  18.019   0.913  0.2811  0.2184  0.2011
27648W        W45852  18.884   4.475  13.768  0.2052 -0.1291  0.1105
27649W        W45853  14.341  16.005   1.774 -0.4636  0.1558 -0.0699
27650W        W45854   1.145   3.585   4.037 -0.1503  0.1466 -0.1849
27651W        W45855  11.500   8.905   0.329  0.2613  0.1486  0.1182
27652W        W45856   1.354   1.885   1.199  0.1725 -0.1211 -0.3557
27653W        W45857   1.053   4.777  12.066 -0.3387  0.0762 -0.1094
27654W        W45858   7.324  12.945   5.523 -0.1335  0.1196 -0.0853
27655W        W45859  11.591  11.164  11.240 -0.2531 -0.0295 -0.0463
27656W        W45860  14.516   5.283  11.349 -0.0215  0.3646  0.1258
27657W        W45861   7.910   3.923   4.104  0.2338  0.1878 -0.1253
27658W        W45862   9.698  15.514   2.634 -0.1942 -0.2325 -0.0990
27659W        W45863   0.693  11.389  13.522 -0.0497  0.1088  0.1936
27660W        W45864   5.918  10.474   2.498 -0.2446 -0.0231  0.3226
27661W        W45865   4.780   5.850   4.395 -0.1503 -0.1035  0.2010
27662W        W45866   7.593   4.035   5.006 -0.4792  0.0209  0.3991
27663W        W45867   2.003  16.458   0.707  0.1087 -0.2880 -0.1506
27664W        W45868   4.827  12.797   3.969  0.0356 -0.1457 -0.1208
27665W        W45869   7.647  18.695  14.649  0.3427  0.2802 -0.4259
27666W        W45870  13.325   1.100   3.962  0.0737 -0.0934 -0.2214
27667W        W45871  14.323  16.063   3.639 -0.4162  0.1712 -0.3082
27668W        W45872  13.426  16.757  12.576  0.1670 -0.1621  0.1103
27669W        W45873  14.858  11.047  13.488  0.1671  0.0802 -0.1814
27670W        W45874  13.528   5.079  15.005 -0.0773  0.0292  0.1705
27671W        W45875   1.092  10.767  11.202 -0.0066  0.0728  0.0225
27672W        W45876  12.877   0.124   1.812 -0.0022 -0.2420  0.2442
27673W        W45877  17.087  14.789  14.200 -0.0376 -0.3401  0.1949
27674W        W45878  11.456   9.200  13.504 -0.0273  0.1580  0.3089
27675W        W45879  15.132  15.543  13.293 -0.0586  0.0734 -0.1513
27676W        W45880   7.898  10.310   0.735 -0.1387  0.0906  0.2549
27677W        W45881   9.737   7.944   3.114  0.0748 -0.1418  0.0066
27678W        W45882  18.716   8.037  11.151 -0.0325  0.0733 -0.0522
27679W        W45883   4.770   8.917   3.088 -0.1441 -0.3592  0.1736
27680W        W45884   4.830  15.441   1.683  0.1597 -0.0543 -0.2545
27681W        W45885  11.808   3.186   0.299 -0.1263  0.0658 -0.1331
27682W        W45886   0.898  13.773   2.309 -0.1229 -0.1478 -0.1704
27683W        W45887  16.410   0.277   2.751  0.1270  0.4067  0.0388
27684W        W45888  17.191   5.538   4.053 -0.2196  0.1209  0.2569
27685W        W45889   4.513   5.375   3.481  0.2182  0.0118  0.0001
27686W        W45890  16.749  15.179  10.852  0.0385 -0.1043 -0.0723
27687W        W45891   0.926  16.785  10.463  0.1307 -0.1635 -0.1067
27688W        W45892   0.450   8.778  11.669  0.0538 -0.1470  0.0433
27689W        W45893   2.816  13.406   2.141 -0.0120 -0.1375  0.0209
27690W        W45894  14.405  10.802   5.682  0.1810  0.2839  0.1657
27691W        W45895   1.204   9.523   5.639 -0.0581 -0.0357  0.0118
27692W        W45896   4.473  18.517  14.229 -0.0279 -0.1991 -0.1072
27693W        W45897   4.507  10.896  12.754  0.2667  0.1579 -0.1086
27694W        W45898  16.693   2.908   0.619  0.3151 -0.0821 -0.0748
27695W        W45899  10.678  14.893  13.335  0.2334 -0.3240 -0.0272
27696W        W45900   6.025  14.922   2.444 -0.2335  0.1210 -0.4038
27697W        W45901   3.115   5.112   5.115  0.1567  0.1861  0.4124
27698W        W45902  18.350   2.086   0.731 -0.1532 -0.1236  0.0875
27699W        W45903   0.180   9.009   0.181  0.3295 -0.0309  0.1253
27700W        W45904  11.509   1.535   4.024  0.3447 -0.2138  0.0383
27701W        W45905  15.340   2.212  11.136 -0.2658  0.0150  0.1006
27702W        W45906   2.277   2.964   4.358 -0.0046  0.1065 -0.0588
27703W        W45907  11.634  16.026   0.242  0.0444  0.1667 -0.0257
27704W        W45908  11.366   6.619   1.291 -0.1793 -0.0906 -0.0650
27705W        W45909  11.301   5.775   1.563  0.0519  0.1830 -0.1639
27706W        W45910   9.791  13.388   0.301 -0.3384  0.0817  0.0271
27707W        W45911  16.994  10.773   2.250  0.3465  0.1148  0.0701
27708W        W45912   3.419   4.875  11.018 -0.0103 -0.3055 -0.1354
27709W        W45913  15.323   0.021   3.450 -0.0956  0.0793 -0.0630
27710W        W45914   4.019   5.683   1.427 -0.1248  0.1045  0.0326
27711W        W45915   5.285   6.308   3.734  0.2431  0.1958  0.1106
27712W        W45916  10.606  18.225   1.393 -0.1499 -0.0946 -0.1842
27713W        W45917  14.577  18.545  12.152  0.0883 -0.1152  0.3213
27714W        W45918   8.137  11.194   2.541 -0.1178  0.3384 -0.2697
27715W        W45919   2.259   7.067   3.796 -0.0379  0.2227  0.1726
27716W        W45920   8.685   5.769  11.640  0.2248  0.0210  0.0389
27717W        W45921   3.122  10.104  11.065  0.0423  0.0862 -0.0418
27718W        W45922  17.073   5.166   4.813 -0.0756  0.2828 -0.0168
27719W        W45923  11.971  13.736  14.106 -0.5029 -0.0075  0.2850
27720W        W45924   9.207  11.276   3.870 -0.1898 -0.0671  0.0312
27721W        W45925   7.388   5.738  13.969  0.0456  0.2255 -0.2255
27722W        W45926   8.706  11.226  14.696 -0.1633  0.2577 -0.0474
27723W        W45927  16.033   3.352  13.015 -0.0120 -0.3646  0.0838
27724W        W45928  13.824   4.254   1.187  0.0912 -0.2966  0.0106
27725W        W45929   7.085   5.854   4.816  0.3866  0.1713  0.2399
27726W        W45930  17.292   6.988   2.606 -0.0787 -0.0946 -0.2208
27727W        W45931  16.851   9.646   4.790 -0.0570  0.0662  0.1603
27728W        W45932  15.305  14.735   2.893 -0.0068 -0.3337  0.0877
27729W        W45933   7.075  18.268   3.451 -0.0917  0.2177  0.0027
27730W        W45934   5.494  16.721   1.004 -0.0560 -0.0616  0.2045
27731W        W45935  14.403   6.098  11.931  0.2147  0.1724 -0.0796
27732W        W45936   7.505  14.307  12.471  0.0749 -0.1393 -0.2352
27733W        W45937   1.280   6.701   2.939 -0.0084 -0.1286  0.0084
27734W        W45938   1.400  11.633  14.460 -0.1269  0.0965  0.1258
27735W        W45939  15.669   9.660   2.783  0.0938  0.1784 -0.0525
27736W        W45940   0.742   4.550  14.916 -0.1327  0.1380  0.1719
27737W        W45941  14.963  11.022   0.235 -0.1950  0.2397  0.0882
27738W        W45942   7.550   8.436   2.657 -0.0326  0.1419 -0.0495
27739W        W45943  12.913   7.703   0.415 -0.1287  0.2463 -0.2825
27740W        W45944  14.422  13.675   0.164 -0.0216 -0.0532 -0.1380
27741W        W45945  14.257  17.862  14.725 -0.0018 -0.0227  0.0204
27742W        W45946  17.224   9.323   2.513 -0.0723 -0.2822 -0.1644
27743W        W45947  12.832  17.082   0.137 -0.0957 -0.2477  0.2184
27744W        W45948  16.217   1.975  11.144 -0.0442  0.1221  0.2724
27745W        W45949   8.264  18.842   3.419 -0.0696  0.2643  0.5612
27746W        W45950  15.822   2.223  10.130 -0.1953  0.1492 -0.1314
27747W        W45951  13.845   8.598   3.875 -0.1784  0.0518  0.0636
27748W        W45952   5.892   4.239  12.607 -0.0307  0.1377 -0.1932
27749W        W45953  17.798   2.846   0.557 -0.0699 -0.2971  0.0509
27750W        W45954  12.184  13.266   4.001  0.0803 -0.1530  0.3273
27751W        W45955  13.385  14.649   4.004  0.2958 -0.1538 -0.0290
27752W        W45956   7.897   2.335  11.432  0.0292  0.0765 -0.0836
27753W        W45957   8.043  16.516  11.131  0.1122  0.1776  0.1224
27754W        W45958  15.981  17.139  14.083 -0.0922 -0.0817 -0.3709
27755W        W45959  10.076   0.129  11.044  0.0230 -0.3315 -0.1968
27756W        W45960  13.819  18.917   3.613  0.0761  0.1195 -0.1013
27757W        W45961   3.640   0.511   2.656 -0.0622 -0.0122 -0.1340
27758W        W45962   1.074   7.997  13.769 -0.0824  0.1899 -0.3176
27759W        W45963   9.897  12.890   1.805 -0.2839 -0.0009 -0.3783
27760W        W45964  10.365   4.433  11.945 -0.0220 -0.3042 -0.1429
27761W        W45965  18.020  10.765  14.835  0.1976  0.3171 -0.0637
27762W        W45966   4.834  18.558   0.878 -0.0990 -0.2318 -0.1953
27763W        W45967   3.309   1.927   1.225  0.2190 -0.1774 -0.1605
27764W        W45968  10.793   1.261  11.436 -0.0118 -0.0876 -0.1578
27765W        W45969  18.119  17.291   2.763  0.0396  0.1248 -0.1357
27766W        W45970  13.962  15.229  14.202  0.2127 -0.0634 -0.1569
27767W        W45971   5.589   9.353  12.224 -0.1652 -0.0313  0.2173
27768W        W45972   0.974   1.631   4.273  0.2990 -0.0747  0.0753
27769W        W45973   2.436   4.673  11.827  0.0895  0.0753  0.0803
27770W        W45974   7.801   6.145  10.061  0.0890  0.0796  0.0560
27771W        W45975   4.159   2.988   0.576  0.3640  0.0693  0.1081
27772W        W45976  18.682  11.294  12.936  0.2173  0.1790 -0.0516
27773W        W45977  12.106   1.308   2.329 -0.0782 -0.0753 -0.2533
27774W        W45978   6.065   5.026   4.742 -0.1900 -0.0779 -0.3263
27775W        W45979   9.110  18.402  12.660  0.1062 -0.1795  0.2402
27776W        W45980  15.310  13.631  12.094  0.1899  0.0290 -0.2782
27777W        W45981  14.147   5.869   1.057  0.1437 -0.0434 -0.0963
27778W        W45982  16.150  16.474  11.941  0.0214  0.4140 -0.0159
27779W        W45983   4.735   5.911   2.236  0.0073 -0.2735 -0.1122
27780W        W45984   5.790   4.038  14.314  0.1969  0.1642  0.1771
27781W        W45985  15.550  16.803  13.516  0.0307  0.1347  0.0887
27782W        W45986   9.181  17.258  10.183  0.0578  0.2191  0.0811
27783W        W45987   2.974  12.476  13.366  0.0100 -0.0532  0.0984
27784W        W45988  10.472   6.822   1.446 -0.0230  0.2876  0.1848
27785W        W45989   3.517  15.489   0.989 -0.0349  0.2506  0.3136
27786W        W45990   3.804  13.534   1.965  0.2597 -0.1599  0.2349
27787W        W45991  13.020  13.428   1.216 -0.2145 -0.2345 -0.1659
27788W        W45992   3.954  17.166   1.662 -0.0660  0.2011  0.3970
27789W        W45993  14.444  11.788  14.352 -0.1445  0.0966 -0.4417
27790W        W45994  16.366  16.944  11.996 -0.1932 -0.0327 -0.1266
27791W        W45995   3.695  15.016   1.296 -0.1951  0.1564 -0.3030
27792W        W45996   1.086  14.114   3.815  0.1885  0.3646  0.2614
27793W        W45997   5.018   5.022  13.343  0.0706  0.2452  0.0197
27794W        W45998  16.555   9.168   2.972 -0.3156 -0.0240 -0.1061
27795W        W45999  13.672  16.251  14.958 -0.2352  0.0311 -0.4054
27796W        W46000   8.791  13.783  14.415  0.0099  0.1929 -0.0154
27797W        W46001   3.722   5.031   0.187  0.0786  0.4020 -0.3250
27798W        W46002   6.116   4.604   2.709  0.1373  0.1863 -0.4392
27799W        W46003  13.598   9.124   4.534 -0.0297  0.0103  0.2017
27800W        W46004   0.454   3.552  12.333 -0.1153 -0.0500  0.1623
27801W        W46005   3.253  16.194  11.156  0.0184 -0.0637  0.2872
27802W        W46006  10.653   7.390  14.870 -0.1827 -0.1477  0.1918
27803W        W46007   9.411   6.379  11.528  0.2809  0.0151 -0.2214
27804W        W46008  13.628  17.556   2.268 -0.0420 -0.0015  0.3153
27805W        W46009  18.193   3.285  11.987 -0.1991 -0.2304  0.0753
27806W        W46010  17.449  14.140   4.437 -0.2074  0.1292  0.1097
27807W        W46011   6.766   8.935  11.634  0.0531  0.3614  0.0863
27808W        W46012   6.647  14.708  12.190 -0.0832  0.0494  0.0382
27809W        W46013   5.635  15.242   2.345 -0.1623 -0.1233 -0.3495
27810W        W46014   2.874   2.139   5.420 -0.2773  0.2373  0.2043
27811W        W46015   2.319   2.071  12.072  0.0639  0.0664 -0.1517
27812W        W46016   9.102   3.676   4.285  0.1872  0.0782 -0.1292
27813W        W46017  17.147   9.879   1.824  0.1453  0.1558 -0.3081
27814W        W46018   9.968  12.803   4.241  0.0361 -0.2710  0.0746
27815W        W46019  10.707  12.612  12.595  0.0776  0.0437  0.1767
27816W        W46020   4.600  15.451  10.957  0.3439 -0.1826  0.0337
27817W        W46021   9.406   9.681   4.045 -0.0854 -0.0904  0.2979
27818W        W46022  18.521   1.165   1.728 -0.1495 -0.0583 -0.0195
27819W        W46023   4.266   2.279   3.277  0.2520 -0.1145 -0.0163
27820W        W46024   5.329  13.011  11.826  0.0270  0.0078  0.0606
27821W        W46025  13.125  18.905   0.486 -0.0412  0.1219  0.0243
27822W        W46026   6.748  15.962  14.861  0.0240  0.0087  0.2225
27823W        W46027  14.945  18.542  12.590 -0.0728 -0.0673  0.2415
27824W        W46028  16.305   3.783   2.292 -0.6003 -0.2259  0.1634
27825W        W46029   4.598   1.604   4.883 -0.3520 -0.1752 -0.0340
27826W        W46030   4.329  14.319  13.368 -0.3076  0.0856  0.1678
27827W        W46031  13.345  14.721   1.929  0.0742  0.1297  0.3765
27828W        W46032  10.215   2.584   0.241 -0.1459 -0.0943  0.1464
27829W        W46033   1.917  12.681  12.905  0.0724  0.0176 -0.0264
27830W        W46034  13.680   2.606   3.205 -0.3327 -0.3101 -0.0595
27831W        W46035  15.814   7.935   4.650 -0.1209 -0.1839 -0.1193
27832W        W46036  13.387   5.087  13.709 -0.1444  0.2020  0.0129
27833W        W46037  15.293   1.007  10.711 -0.1324 -0.2937 -0.0072
27834W        W46038  15.025  14.479  12.558  0.0807  0.0746 -0.0182
27835W        W46039   1.861   5.687   3.948 -0.0474  0.1707  0.0796
27836W        W46040   8.118  18.012   5.874 -0.4005  0.2895  0.0362
27837W        W46041   7.026  18.166   5.539  0.0364 -0.0781 -0.0422
27838W        W46042   6.123   8.252  11.107  0.1271  0.1095 -0.1463
27839W        W46043  10.210  16.246   0.679 -0.0675 -0.2151  0.0804
27840W        W46044   4.401   0.170  11.668  0.2311 -0.0797  0.0480
27841W        W46045   1.371   7.643   1.419 -0.3884 -0.0918 -0.1836
27842W        W46046   6.609   2.034   1.167  0.1145 -0.0110  0.3109
27843W        W46047   1.395   7.830  13.383  0.0578 -0.1145 -0.0766
27844W        W46048  15.731   7.481   1.741  0.0136  0.1767 -0.2164
27845W        W46049   1.811  17.645   0.060  0.3253 -0.3491 -0.0435
27846W        W46050  11.097  15.277   2.759 -0.0319 -0.1672  0.0168
27847W        W46051   6.028   7.496   4.683  0.2335 -0.0450 -0.2772
27848W        W46052  16.182   9.173  12.439  0.0091 -0.1779 -0.1083
27849W        W46053  10.672   6.374  12.907 -0.2531  0.1020  0.0578
27850W        W46054  15.258   0.487  12.436  0.2352 -0.1963 -0.1566
27851W        W46055   2.193   6.555   3.916  0.0250 -0.1522  0.1505
27852W        W46056  12.538  16.509  12.911  0.0526  0.0274 -0.2755
27853W        W46057  14.769   2.532  13.393 -0.0857 -0.0341  0.2450
27854W        W46058  14.154  15.291   4.297  0.1686 -0.1140  0.1346
27855W        W46059  18.398   0.924   1.233  0.0239  0.0167 -0.0557
27856W        W46060   2.501  10.779  10.905 -0.2628  0.0947 -0.4603
27857W        W46061  18.165   3.221   0.625  0.2085  0.0024 -0.0260
27858W        W46062   5.987   7.928  13.987 -0.0125 -0.1900 -0.1807
27859W        W46063   5.794  13.193  13.839 -0.0163  0.1134 -0.3970
27860W        W46064   1.692   2.342   3.432  0.1075 -0.0443  0.1425
27861W        W46065  14.100  13.393  14.788  0.5148 -0.0200  0.1020
27862W        W46066   8.128   1.095  13.755  0.0325 -0.0903 -0.4862
27863W        W46067   0.157  12.851  12.860  0.0251 -0.1736  0.0698
27864W        W46068  14.576   2.288  12.001 -0.0409 -0.0858 -0.1637
27865W        W46069   8.758   9.973  11.835 -0.2433 -0.3401  0.0535
27866W        W46070  15.433   7.201   4.780  0.3467 -0.0890 -0.3377
27867W        W46071  11.691  12.526   2.323  0.0401  0.1334  0.0825
27868W        W46072   9.860   0.966  13.392 -0.1327 -0.1010  0.0665
27869W        W46073   5.147   0.807   4.545 -0.0935  0.2010 -0.0012
27870W        W46074  11.466  16.723   1.364  0.2767 -0.2180  0.1731
27871W        W46075   7.116  16.842   2.282 -0.0341 -0.3654  0.0582
27872W        W46076  18.283  16.827   4.519  0.0237 -0.0701 -0.1344
27873W        W46077   8.138   2.468  14.626  0.1027 -0.0786 -0.3150
27874W        W46078  11.372  14.890  12.095 -0.0938 -0.1904 -0.0196
27875W        W46079  16.980  16.452  14.914 -0.0290  0.0172 -0.0364
27876W        W46080   7.943   8.293  12.989  0.0069  0.1367  0.1419
27877W        W46081   1.919   3.372  15.019 -0.0523  0.0558  0.1773
27878W        W46082  11.072   6.048   3.932  0.2279 -0.0779 -0.1378
27879W        W46083  18.612  18.318   0.569 -0.1048 -0.3911  0.1070
27880W        W46084   3.652  18.180   3.496  0.4111  0.1252  0.0316
27881W        W46085   5.700   3.102   2.201 -0.2022 -0.2590 -0.1605
27882W        W46086  14.957   3.014   2.567  0.0545  0.2356 -0.0875
27883W        W46087  16.787   5.199  11.700  0.0779  0.0341  0.3444
27884W        W46088   3.615  17.858  13.650 -0.1970 -0.3964  0.0662
27885W        W46089  15.611   2.364  13.868  0.0146  0.1931  0.2863
27886W        W46090  11.953  17.119  13.052  0.0609  0.0765 -0.1324
27887W        W46091   7.680   0.934  13.579 -0.0884  0.1609 -0.1737
27888W        W46092   9.989  14.136  14.615  0.1553 -0.3875 -0.0764
27889W        W46093   0.330  12.793  14.996  0.1484 -0.0680  0.2047
27890W        W46094  13.374  11.589  11.463 -0.2865  0.0562 -0.1620
27891W        W46095  17.631  10.955   3.818 -0.0043  0.4099  0.1079
27892W        W46096   6.873   8.641  14.085  0.1908 -0.2936 -0.2103
27893W        W46097  15.204   9.725   3.236 -0.3970  0.2177  0.3596
27894W        W46098  16.283  17.645  12.966  0.0226 -0.0933  0.1912
27895W        W46099  15.091  18.774   2.938  0.0506 -0.2015  0.1178
27896W        W46100  13.042   2.706   0.124  0.0135  0.0085 -0.2283
27897W        W46101   1.676   0.582   4.593 -0.2302  0.7030  0.0227
27898W        W46102   8.481  14.264   4.530  0.0742  0.0185 -0.1640
27899W        W46103   9.711  13.720  13.128 -0.1701 -0.0002 -0.0601
27900W        W46104  14.748  15.328  14.152 -0.0549 -0.1111  0.1845
27901W        W46105  11.017  16.488   5.272  0.1377 -0.0886 -0.1601
27902W        W46106  11.462   2.099   4.257 -0.0422 -0.1222 -0.2474
27903W        W46107  16.630   5.499  13.244 -0.1247 -0.0654  0.2226
27904W        W46108   9.495   9.755   9.758 -0.2457 -0.1291  0.0602
27905W        W46109  13.880  18.591  12.877 -0.0869 -0.6311  0.0433
27906W        W46110   5.799   1.210  14.951  0.1992  0.1527 -0.1997
27907W        W46111  17.931  14.414   2.380  0.3224  0.0339  0.0346
27908W        W46112   8.744   1.613  14.577  0.0472 -0.2023 -0.1495
27909W        W46113  13.596   5.674   0.325  0.1030  0.4272  0.2255
27910W        W46114   0.908   1.121  12.104 -0.2324 -0.2004 -0.3017
27911W        W46115   5.570   8.232   2.420 -0.1925 -0.1572 -0.0651
27912W        W46116   7.570  16.680   4.816  0.2539  0.0410 -0.2261
27913W        W46117  14.246  15.708   1.272  0.2116 -0.0926 -0.0199
27914W        W46118   1.715   8.530   0.555  0.0793 -0.4742 -0.2219
27915W        W46119   6.929   6.655   0.128 -0.2817  0.0528 -0.0127
27916W        W46120   4.434   6.861   4.049  0.2561 -0.1325  0.0524
27917W        W46121  14.985   2.357  10.570  0.0781  0.3713 -0.2869
27918W        W46122   3.870   8.876   0.316  0.2447  0.0192 -0.0837
27919W        W46123  10.352   4.179  11.480 -0.0057  0.3925 -0.2329
27920W        W46124  14.939   1.386   0.193 -0.1636  0.2450 -0.2046
27921W        W46125  13.217   0.693   3.086 -0.0002 -0.1300 -0.0293
27922W        W46126   1.170   7.262  14.262 -0.1663 -0.3210 -0.1314
27923W        W46127  18.120  11.919   0.636 -0.1716 -0.3649  0.1633
27924W        W46128  13.203   2.116   3.839  0.0252 -0.2723  0.1283
27925W        W46129  12.199  10.718   0.324 -0.1453 -0.2058  0.0922
27926W        W46130  15.564   2.658  11.011  0.1070 -0.0492 -0.1139
27927W        W46131   8.381  16.991  13.633  0.2797  0.3013  0.1877
27928W        W46132  14.436  13.132  12.738  0.3005  0.3587 -0.0320
27929W        W46133  15.574   7.075   3.451 -0.0333 -0.0950 -0.2669
27930W        W46134   7.595   6.555   2.331  0.1282 -0.0373 -0.1153
27931W        W46135   2.652   2.967   2.450  0.2604 -0.1073  0.2429
27932W        W46136  16.401  13.673  14.285 -0.3559  0.0290 -0.1720
27933W        W46137   5.490   5.899   2.302  0.1286  0.2810 -0.0746
27934W        W46138   0.307  11.400  11.476  0.0061 -0.1584  0.0948
27935W        W46139   0.275   3.676  14.186 -0.1806  0.1407 -0.0406
27936W        W46140  10.338  12.430  11.874  0.3131 -0.0756  0.1068
27937W        W46141   1.760  15.104   9.401 -0.0398  0.0306  0.2672
27938W        W46142   3.815  17.694  12.273  0.1472 -0.4271 -0.0593
27939W        W46143   0.197   7.947  12.645 -0.1566 -0.1185 -0.1394
27940W        W46144   3.609   1.855  13.591  0.3329  0.3862  0.3855
27941W        W46145  18.368   1.275   2.975  0.2095 -0.2550  0.0263
27942W        W46146   4.195   4.058  12.064  0.0159  0.0841 -0.0150
27943W        W46147  14.710   3.274   5.047 -0.0905 -0.2331 -0.4218
27944W        W46148   7.820   1.260   1.597  0.0961  0.1093 -0.0869
27945W        W46149  16.319   5.239   2.594 -0.0817  0.0646 -0.1170
27946W        W46150  16.501   4.965  13.254 -0.2178  0.1084  0.2465
27947W        W46151  13.870   9.313   2.761  0.0143 -0.0596  0.0131
27948W        W46152   9.352   3.993  11.041  0.2646  0.0336  0.0153
27949W        W46153  16.064   6.508  11.731 -0.1812  0.1721 -0.0403
27950W        W46154  18.663   8.988   3.360 -0.1989  0.1240  0.3987
27951W        W46155  14.153   5.987  14.241  0.1076  0.0959 -0.0588
27952W        W46156   1.434  15.837   4.365  0.0491  0.1278  0.3614
27953W        W46157  11.377  17.606  13.889  0.0045  0.2658  0.1734
27954W        W46158   5.189   3.649   1.254  0.0432 -0.2223  0.0460
27955W        W46159   4.009   8.959  14.523 -0.2356  0.2164  0.1120
27956W        W46160   6.596   2.181   4.115 -0.1286 -0.1224 -0.0576
27957W        W46161  14.928   2.974  10.422  0.0296 -0.2560  0.1011
27958W        W46162  18.716   0.488  14.586 -0.2612  0.2583  0.0911
27959W        W46163   6.337  12.632   1.896  0.2465 -0.3786  0.3974
27960W        W46164  15.742  18.507  13.106 -0.0530 -0.1519  0.1966
27961W        W46165  16.970  15.058  14.702 -0.2552 -0.1341  0.1707
27962W        W46166   9.739   7.298   4.276 -0.2795  0.1864 -0.1197
27963W        W46167   0.619  18.673  14.142 -0.2769 -0.0184 -0.0342
27964W        W46168   3.003   5.665   3.972 -0.0597 -0.1551 -0.2259
27965W        W46169  18.815  15.669   0.825 -0.0441  0.1689 -0.2159
27966W        W46170  17.022   4.622  12.409 -0.2057  0.1558 -0.1730
27967W        W46171   4.190   5.918   2.492  0.2524 -0.2517 -0.5232
27968W        W46172  10.420  18.069   2.247  0.2302 -0.0061 -0.2573
27969W        W46173   9.874   6.818   2.658  0.1775  0.2919  0.0393
27970W        W46174   1.021  10.211   5.111  0.0131  0.0970  0.0692
27971W        W46175   0.011  13.859  10.954  0.3625  0.5040 -0.1644
27972W        W46176  11.602   3.987   0.950  0.2126  0.2074 -0.4910
27973W        W46177   3.797  15.469  11.311 -0.1773  0.3529  0.1921
27974W        W46178   4.600  13.880  12.415 -0.2474 -0.1587  0.0134
27975W        W46179   9.475  15.477  10.217 -0.1435  0.2467 -0.0055
27976W        W46180   9.798   1.158   3.072 -0.1322  0.0215  0.2758
27977W        W46181   8.536  14.260   0.373  0.2028  0.3178  0.0684
27978W        W46182   2.026  10.495   3.761 -0.1963 -0.0815 -0.1600
27979W        W46183  10.670   6.129   5.035  0.2189  0.1174 -0.1570
27980W        W46184   5.658   9.080  11.547  0.1142 -0.2105 -0.0887
27981W        W46185   1.295   0.856  14.362  0.0367  0.2011  0.0517
27982W        W46186   1.509   1.608  14.083  0.0105  0.2143 -0.3026
27983W        W46187   9.139   0.757   0.920  0.2221 -0.3355  0.0502
27984W        W46188   0.734   8.289   0.103  0.2030 -0.1490  0.0621
27985W        W46189   7.178  12.998  12.389 -0.1086 -0.0075 -0.2523
27986W        W46190  16.223   8.369  13.294 -0.2600 -0.3286  0.0199
27987W        W46191   2.383  12.457  14.363  0.0519 -0.1654  0.1489
27988W        W46192   8.143   2.580  11.846  0.0554  0.1452 -0.1511
27989W        W46193   0.691   8.530   1.516 -0.1523 -0.0553  0.3419
27990W        W46194  18.469   2.371  11.023 -0.0847 -0.0836 -0.0251
27991W        W46195   1.232  10.927   2.562 -0.1864 -0.2561 -0.0303
27992W        W46196   5.581   6.194  13.049  0.1454  0.0677  0.0665
27993W        W46197   5.084  10.920   5.434 -0.1182 -0.1166  0.1977
27994W        W46198   1.456  15.849   1.130 -0.3951 -0.0992  0.0154
27995W        W46199  11.604   1.298   1.303  0.0889  0.1103 -0.3228
27996W        W46200   2.613   5.399   2.185  0.0493 -0.0886 -0.1627
27997W        W46201  12.598   1.623   2.998  0.2072 -0.1819  0.4507
27998W        W46202  14.189  13.600  10.983 -0.0872  0.1397 -0.2273
27999W        W46203   8.452   3.017  10.475  0.2034 -0.1974  0.0306
28000W        W46204   0.571   0.698  10.956 -0.2062 -0.1768  0.2046
28001W        W46205   1.219   8.903  14.357  0.0367  0.0745  0.0187
28002W        W46206  12.769   1.800   4.585 -0.4425  0.0494 -0.2635
28003W        W46207   1.647  14.568   4.468 -0.2172 -0.0642 -0.3445
28004W        W46208   8.960  14.373  14.176 -0.1397 -0.0771  0.2939
28005W        W46209  15.341   8.004   4.435  0.1809 -0.2693  0.0909
28006W        W46210   4.598  16.242   1.181 -0.2575 -0.1370  0.0922
28007W        W46211  14.268   3.222  14.807 -0.0030  0.0637  0.5645
28008W        W46212   2.568  11.224   9.940 -0.0345 -0.1011  0.0035
28009W        W46213  13.930  15.826  13.255  0.0018  0.0900  0.0379
28010W        W46214   9.043  16.909   2.301  0.2007  0.2255  0.0709
28011W        W46215   1.725  18.124   0.080  0.0147  0.1074  0.1929
28012W        W46216   9.107  14.228   1.680  0.1899  0.2419 -0.0318
28013W        W46217  17.356   6.769   4.086  0.1019 -0.0549  0.0719
28014W        W46218   5.150  15.431   3.110 -0.0972 -0.0151 -0.0006
28015W        W46219   4.562  13.297  14.614 -0.0461 -0.0016  0.3056
28016W        W46220   4.982   8.729  14.685  0.0593  0.0251  0.0464
28017W        W46221  10.865   7.610  12.261  0.0328 -0.1280 -0.2565
28018W        W46222   0.148  18.662   1.735 -0.1194 -0.3275  0.0637
28019W        W46223   2.401   8.272  12.796  0.0489  0.1041  0.1903
28020W        W46224   4.241  13.592   4.199  0.1792  0.1885  0.0984
28021W        W46225   2.074  11.609   0.793  0.1000  0.0089  0.0618
28022W        W46226   5.833  11.459  13.686 -0.5376  0.2251  0.2503
28023W        W46227   0.930  14.120  12.601 -0.0395  0.0581 -0.1634
28024W        W46228   2.406   2.555  10.085 -0.1157  0.1089 -0.0647
28025W        W46229   4.433  10.791   4.696  0.2489  0.3239 -0.0497
28026W        W46230   9.739   8.997  12.843 -0.0068 -0.2139  0.2531
28027W        W46231   2.659  10.982  12.681  0.0235 -0.0823  0.2786
28028W        W46232  10.149   6.972   2.030  0.0519  0.2877  0.0768
28029W        W46233   7.219  12.818   4.247  0.1081 -0.1713 -0.0209
28030W        W46234  14.569   2.605  11.558  0.0785 -0.1021 -0.2810
28031W        W46235  18.406   3.945   4.221 -0.1316 -0.0586  0.1156
28032W        W46236  15.492   6.226  12.113  0.1569 -0.1215 -0.0356
28033W        W46237  13.002   1.550   2.477  0.1066 -0.1469  0.1001
28034W        W46238   5.264   0.267  10.776  0.0183  0.2182 -0.0677
28035W        W46239   9.887  12.964   0.515  0.0250  0.0088 -0.4196
28036W        W46240  18.726  10.494   1.692 -0.5222  0.0420  0.0232
28037W        W46241  13.698   4.765  11.844 -0.2007  0.3032 -0.2210
28038W        W46242   6.629   1.033  13.595 -0.2205  0.1902 -0.0262
28039W        W46243  16.248  10.645  12.279  0.2516  0.0671  0.2295
28040W        W46244  16.836   8.143   3.679  0.3975  0.0870  0.1250
28041W        W46245   7.774   4.188   2.446  0.1783  0.0063 -0.0175
28042W        W46246  16.986  11.067   2.630 -0.1686  0.0708 -0.0545
28043W        W46247   6.466  17.701  10.976  0.3344 -0.3185  0.0220
28044W        W46248   5.236  10.306   1.432 -0.2891  0.0859 -0.1421
28045W        W46249  10.226   5.342  12.748 -0.3434  0.0543  0.3229
28046W        W46250   0.565   2.737  13.830  0.3437  0.0448  0.0791
28047W        W46251  16.645   6.475  14.360 -0.1294 -0.1047 -0.2185
28048W        W46252   4.159   4.237   0.075 -0.1073 -0.0527  0.3979
28049W        W46253   0.683  18.039  10.479 -0.0246  0.2509  0.2078
28050W        W46254   9.904  13.166  12.031 -0.1780 -0.1495 -0.3790
28051W        W46255  17.043  13.762  12.259  0.2119 -0.2574  0.0141
28052W        W46256  18.902   9.502  14.207 -0.1291 -0.2152 -0.3415
28053W        W46257  10.717  13.920   1.226 -0.1995 -0.1923  0.2485
28054W        W46258   7.645   9.191  10.480  0.0417 -0.1330  0.0752
28055W        W46259   8.445   9.233   1.709 -0.1314  0.0805  0.0998
28056W        W46260  18.317   8.956  14.548  0.3166  0.1759 -0.1699
28057W        W46261   2.970   6.510   0.680  0.2092  0.0325  0.0220
28058W        W46262   2.124  18.364  13.111  0.0041 -0.0837  0.0792
28059W        W46263  14.106   0.599  13.675 -0.0897  0.1444  0.1865
28060W        W46264  18.767   5.720   0.151 -0.0691 -0.0707 -0.1412
28061W        W46265  12.861  15.050  11.941  0.2113  0.2497  0.0901
28062W        W46266  13.941   1.457  10.560 -0.0753 -0.1962  0.3193
28063W        W46267   1.715   8.490  14.111  0.0974  0.1974 -0.1115
28064W        W46268   3.937   5.405  11.915 -0.1044 -0.2959 -0.0027
28065W        W46269  13.158   8.265   3.536 -0.2531 -0.2252 -0.0064
28066W        W46270   1.595   0.525  10.975  0.1131  0.0383  0.1134
28067W        W46271   6.212   6.296   0.096 -0.0517 -0.0100  0.2811
28068W        W46272  16.742  14.557   1.818  0.0974  0.0519  0.0152
28069W        W46273   7.358   2.381  13.891  0.0284  0.0192 -0.1374
28070W        W46274  15.813   2.042   3.095  0.1450  0.1804 -0.0637
28071W        W46275  15.785  13.382   1.675  0.0721  0.2878  0.0353
28072W        W46276   0.268  11.755  10.453  0.3429 -0.1991  0.1836
28073W        W46277  13.381   9.832  11.623 -0.0625  0.0221  0.0905
28074W        W46278  18.294  13.560  11.859  0.4496  0.1259  0.0326
28075W        W46279  11.346   1.724  14.608  0.0720  0.1193 -0.1106
28076W        W46280  12.664  16.270  10.333  0.0153  0.1450 -0.2265
28077W        W46281  10.620  12.447   0.542  0.1511  0.0352 -0.0970
28078W        W46282   4.593  11.427  12.908  0.5012  0.0105 -0.1533
28079W        W46283   0.363  14.023   2.522 -0.0636  0.0666  0.1695
28080W        W46284  14.918   1.486   3.565 -0.5365  0.1127 -0.1176
28081W        W46285   5.505  13.376  14.323  0.3375  0.1472 -0.2387
28082W        W46286  10.848   2.191  12.500 -0.0792 -0.0305  0.2783
28083W        W46287  14.608   6.704  14.827 -0.1492  0.3260  0.1491
28084W        W46288   0.188   5.834   2.408 -0.2806 -0.3492  0.1357
28085W        W46289   9.098  17.344   3.018  0.2579  0.0475 -0.2340
28086W        W46290  10.661   7.099  11.258 -0.0371 -0.1550 -0.1643
28087W        W46291   0.215   7.943  10.143 -0.1872 -0.2429  0.0733
28088W        W46292  15.918   8.650   2.688  0.0679  0.2053  0.1275
28089W        W46293   4.085   1.705   0.238 -0.2697  0.0796  0.2679
28090W        W46294   0.093   5.327   2.490  0.0640 -0.1262  0.0290
28091W        W46295  17.450  18.906   0.012  0.1832 -0.0405  0.1564
28092W        W46296   8.182  12.188   0.998  0.0344  0.3294 -0.1781
28093W        W46297  12.325   0.172   0.380  0.1712 -0.0074  0.1515
28094W        W46298   6.230  12.772  13.114  0.0514  0.2255  0.1282
28095W        W46299   3.520   3.049   5.454  0.1132 -0.1596  0.4321
28096W        W46300  17.226  16.571   1.830 -0.1336 -0.2223 -0.0202
28097W        W46301   5.198   7.942   0.439  0.0141 -0.3735  0.1388
28098W        W46302   5.993  15.282  11.419  0.2588 -0.0156  0.0709
28099W        W46303   2.072   8.619   1.468  0.1854 -0.0425  0.4612
28100W        W46304  15.197   7.287   2.482  0.1858 -0.0537 -0.1739
28101W        W46305   5.287  11.982   2.765  0.1754 -0.1594 -0.0317
28102W        W46306   0.609  17.339   1.023 -0.4217 -0.0314  0.1742
28103W        W46307   6.171  15.133  12.052  0.1555  0.1177  0.0912
28104W        W46308   2.504   3.959  11.737 -0.0873 -0.2394  0.1844
28105W        W46309   7.740  14.752   1.658 -0.1574 -0.1505  0.2317
28106W        W46310   0.687  13.055  10.970  0.1110 -0.3312  0.1980
28107W        W46311   1.126  18.375  14.243  0.0770 -0.0170 -0.1877
28108W        W46312   1.299  12.765   3.961  0.0852  0.1039  0.3100
28109W        W46313  16.008   7.458  12.747 -0.1400 -0.0500  0.1365
28110W        W46314   1.865   7.689   1.603 -0.2811 -0.1137  0.1046
28111W        W46315   2.193   2.905  13.939  0.0402 -0.1406 -0.0420
28112W        W46316   6.452  14.786   0.108 -0.2420 -0.3787 -0.1947
28113W        W46317  16.879  18.659  13.484 -0.0139  0.2360  0.1270
28114W        W46318   8.190  11.387   3.777  0.0223  0.0223  0.1915
28115W        W46319   4.259   8.278   4.243  0.0064 -0.2354  0.1137
28116W        W46320   6.758  18.303  14.864  0.1910 -0.2971 -0.0388
28117W        W46321   4.204   3.322   3.113 -0.1518 -0.2916  0.1763
28118W        W46322   2.238  18.320   4.210  0.1188  0.1608 -0.0705
28119W        W46323   5.249   1.242   3.113  0.1465 -0.1414 -0.1014
28120W        W46324  17.812  15.528   3.292  0.1068  0.0360  0.0027
28121W        W46325   9.713   7.639  10.696 -0.1031  0.1101 -0.0941
28122W        W46326   5.296   5.253  12.964 -0.0352  0.1330 -0.1897
28123W        W46327  10.056   6.984   4.046  0.1946  0.0686 -0.1406
28124W        W46328   1.220   5.076  12.523 -0.1976  0.1562  0.2129
28125W        W46329  13.756  12.061  14.730  0.0294 -0.1578  0.0870
28126W        W46330  14.196   2.005  12.989  0.0189 -0.1993 -0.3034
28127W        W46331   5.058   3.361   2.995  0.0118 -0.0509 -0.0991
28128W        W46332   7.555  13.275  12.355  0.0611 -0.1872 -0.0416
28129W        W46333   5.460  16.214  12.696  0.3125 -0.2165  0.1016
28130W        W46334   6.963   7.563   0.341 -0.1511  0.3391 -0.1033
28131W        W46335  10.926   5.608  11.117 -0.0702  0.0805 -0.2833
28132W        W46336  10.420  14.781  12.890  0.1235 -0.2267  0.3229
28133W        W46337   8.835   9.459   2.820  0.1941 -0.1760 -0.1651
28134W        W46338  11.989  11.090   1.099  0.2122  0.0976  0.1773
28135W        W46339   2.978  12.460   0.671 -0.2221 -0.1369 -0.0272
28136W        W46340  16.161  17.778   1.694  0.1993  0.3257  0.0237
28137W        W46341  16.615   0.569   3.583  0.1048  0.0385 -0.0244
28138W        W46342   1.771   7.252   1.237  0.0604  0.0602 -0.0003
28139W        W46343  12.251  11.391  14.530  0.1284  0.0695 -0.1864
28140W        W46344   4.103  17.477   3.781  0.0297  0.0469 -0.0366
28141W        W46345  17.706   4.312   9.953  0.1139  0.0548 -0.3486
28142W        W46346  16.017   2.608   2.538 -0.0144 -0.4078 -0.1773
28143W        W46347  15.040  11.249   2.199 -0.2701  0.2503  0.2447
28144W        W46348   5.399  16.967  10.594 -0.1105 -0.1511  0.3105
28145W        W46349   6.480  16.362   0.976  0.0572 -0.1584 -0.0237
28146W        W46350  10.494  14.611   3.900 -0.0218  0.0374  0.1534
28147W        W46351   8.177   0.298  12.275 -0.2189 -0.1836 -0.0159
28148W        W46352   2.862   0.951  13.096  0.1391  0.2279 -0.1063
28149W        W46353  14.669  13.328   2.432  0.0043  0.1276  0.0199
28150W        W46354  18.603  14.781   3.968 -0.2861 -0.0522 -0.0685
28151W        W46355  18.929   4.873  11.477 -0.2591  0.1080  0.2824
28152W        W46356  11.342   2.321  13.690 -0.3407 -0.0250  0.0686
28153W        W46357  11.306   4.507  14.198 -0.2067 -0.2989 -0.1412
28154W        W46358   7.563  16.649  10.913  0.0807 -0.0803  0.2696
28155W        W46359   2.138   0.999  11.813  0.1686  0.0254 -0.3549
28156W        W46360  12.836   0.906  14.232 -0.0084 -0.0887  0.0046
28157W        W46361  18.951  11.090  12.426  0.0865 -0.1037 -0.3108
28158W        W46362   7.500  14.805  11.641 -0.0082  0.0733  0.2339
28159W        W46363   7.106   3.392   1.820  0.0653  0.1056 -0.3968
28160W        W46364  16.320  12.511  13.537 -0.2305 -0.1425 -0.1940
28161W        W46365  14.480  13.662   4.504  0.0803  0.2207  0.0373
28162W        W46366  16.576   6.105  14.893  0.2289 -0.1785  0.0652
28163W        W46367   6.798   1.728   0.694  0.0191  0.0365  0.0716
28164W        W46368   5.970   2.828  14.040 -0.2164  0.1955  0.3462
28165W        W46369  17.394  16.790  11.266  0.0056  0.0976  0.0301
28166W        W46370   1.778  16.878   0.914  0.2263 -0.1047  0.2534
28167W        W46371  16.852   4.006  14.547 -0.0297 -0.2611 -0.1362
28168W        W46372  15.051  17.488  11.682  0.0028 -0.0039  0.0534
28169W        W46373   9.887  10.350   9.459 -0.1226 -0.2292  0.0739
28170W        W46374  11.195  10.827   4.608 -0.0110  0.1612 -0.0523
28171W        W46375   0.479  15.091   4.309 -0.0493  0.2016  0.0110
28172W        W46376   5.124  11.985  10.483 -0.0133  0.2231 -0.0855
28173W        W46377   5.106   2.927  11.688 -0.1939  0.3570 -0.2338
28174W        W46378   1.682  13.539   3.807  0.3583 -0.2078 -0.2305
28175W        W46379  15.968  16.203  13.538 -0.0943 -0.2955  0.0785
28176W        W46380  12.612   2.671  14.801 -0.0826 -0.3014  0.0517
28177W        W46381  16.046   5.423  13.853  0.2274 -0.1080  0.2320
28178W        W46382  17.439  10.148   2.631 -0.0222 -0.2997 -0.0566
28179W        W46383  16.588   0.483  12.187  0.1506  0.3222 -0.1155
28180W        W46384  11.712   3.222  10.644  0.1262 -0.1599  0.1358
28181W        W46385  15.858  13.967   2.782  0.1028 -0.1169  0.2971
28182W        W46386  12.237  11.810  12.141 -0.0094  0.1805  0.0503
28183W        W46387  18.082   4.289   0.880 -0.5040  0.1391  0.2319
28184W        W46388  18.580  10.127   0.586  0.3186  0.0348  0.2008
28185W        W46389  14.267   8.493   2.174  0.1741  0.2187 -0.0330
28186W        W46390  12.065   2.626   3.786  0.0774 -0.0344 -0.0712
28187W        W46391  14.487   0.219  10.399  0.2984  0.2566  0.1835
28188W        W46392   8.145   7.678  14.085  0.1359 -0.2571  0.0452
28189W        W46393   9.593  16.359   3.780 -0.2073 -0.2060  0.1781
28190W        W46394   5.777  18.177  14.406  0.0403 -0.1775  0.0990
28191W        W46395   0.635  11.780   3.187  0.0266  0.1682  0.1782
28192W        W46396  11.719   1.286   3.211 -0.3728 -0.2139  0.2305
28193W        W46397   0.241  10.715   0.033 -0.1653 -0.1068  0.0982
28194W        W46398   4.436   4.823   3.458 -0.1096  0.0662  0.0226
28195W        W46399  18.947   3.746  12.018 -0.2542 -0.0035 -0.0500
28196W        W46400  16.751   2.797  11.572 -0.0950  0.1251 -0.2268
28197W        W46401   1.040   7.557   4.983 -0.1204 -0.3396  0.0392
28198W        W46402   3.352   5.434   0.596 -0.0174 -0.2943  0.1571
28199W        W46403  12.218  14.105   2.200 -0.1106 -0.0878 -0.1914
28200W        W46404   1.113   0.558   4.501 -0.1125 -0.0475 -0.3945
28201W        W46405  13.613   2.789  10.865 -0.1118 -0.3062 -0.1344
28202W        W46406  17.631   8.079   5.257 -0.2498  0.1554  0.0209
28203W        W46407   5.032   0.017   1.787  0.1795  0.1655  0.0570
28204W        W46408   2.890   4.199   4.791 -0.1763 -0.4782 -0.0739
28205W        W46409   8.410   4.716  13.234  0.0661 -0.1460 -0.0346
28206W        W46410  18.149   7.115  14.341 -0.1385  0.0130  0.2202
28207W        W46411  12.687  18.752   0.450 -0.1427 -0.1692 -0.0769
28208W        W46412  13.633  16.454   1.011  0.2072 -0.1148 -0.1966
28209W        W46413   0.048  13.063  13.864 -0.0961  0.0579  0.3099
28210W        W46414   8.093   5.316  14.390  0.3300 -0.2124 -0.2730
28211W        W46415  16.787   9.420   9.668  0.0731 -0.2628  0.1288
28212W        W46416   8.103  17.694   0.560  0.0476 -0.1640  0.0570
28213W        W46417  11.280  17.018  11.643  0.0733  0.1527  0.1480
28214W        W46418  16.993   8.559  11.711 -0.2400 -0.1415  0.0618
28215W        W46419  10.511   9.162  11.023 -0.0377 -0.1683 -0.1740
28216W        W46420   4.695  18.650   4.238 -0.0108 -0.0245 -0.1314
28217W        W46421  16.391  16.294  13.860 -0.1791 -0.3187 -0.1991
28218W        W46422   0.011   9.628  12.849  0.1086  0.0641 -0.2954
28219W        W46423   6.415   1.092   1.538 -0.1233  0.1328 -0.3355
28220W        W46424  12.716  12.658   1.703  0.1614  0.0293  0.1136
28221W        W46425  12.263   5.426  14.075 -0.0078  0.2213  0.2111
28222W        W46426  18.081  11.039   2.859 -0.1782  0.1631  0.0756
28223W        W46427  16.042   4.167   2.470  0.0469  0.3294 -0.2570
28224W        W46428   5.305   3.899  11.214  0.2419 -0.2020 -0.3524
28225W        W46429  16.448   8.961   5.522  0.0555  0.1464  0.4579
28226W        W46430  10.778  13.129   0.809  0.1794  0.1278  0.2950
28227W        W46431   1.547  14.780  14.368  0.0174 -0.2858 -0.1835
28228W        W46432   6.941   6.776  10.800 -0.1305 -0.0716  0.0922
28229W        W46433   0.465  10.349   3.847  0.1865 -0.1433  0.2156
28230W        W46434   4.889   6.467   1.571  0.2029  0.0181 -0.3085
28231W        W46435  12.678  13.351   2.875 -0.2794 -0.1492 -0.0130
28232W        W46436   7.773  18.072  13.337 -0.1106  0.0021  0.3165
28233W        W46437   4.061  13.458   0.264  0.2501 -0.0435  0.2535
28234W        W46438   9.367   8.533  12.432  0.1442  0.2322  0.0818
28235W        W46439  16.875   3.364  14.220 -0.0834 -0.1710 -0.1802
28236W        W46440   4.711   8.692   2.296  0.1110  0.0524 -0.1730
28237W        W46441   1.234  16.283  12.992 -0.2192  0.1441  0.2242
28238W        W46442  10.495   4.039  12.928 -0.1270  0.3068 -0.0734
28239W        W46443  11.750   7.221   3.258 -0.0322  0.2996 -0.1532
28240W        W46444  10.098  16.305   3.725  0.2116  0.0005 -0.5098
28241W        W46445   4.498   0.261  12.449  0.0276  0.0800 -0.0150
28242W        W46446   2.520  18.040  11.597  0.1191 -0.1209 -0.1152
28243W        W46447  18.928   4.409  11.260 -0.1051 -0.1629  0.1496
28244W        W46448   0.415   4.505   1.679 -0.0688 -0.0240 -0.1087
28245W        W46449  13.958  17.343  12.681 -0.1111  0.0609 -0.0427
28246W        W46450  11.256  16.295  15.028  0.0511  0.0333 -0.3335
28247W        W46451   7.153  12.357  11.590  0.1478  0.0567 -0.0424
28248W        W46452  16.528   5.039   4.412 -0.2281  0.0396 -0.3804
28249W        W46453  16.838   9.836   4.242  0.0794 -0.0463 -0.0185
28250W        W46454   0.532   1.325   2.541 -0.0000 -0.1995  0.1497
28251W        W46455   5.357   2.032  11.209 -0.0657 -0.1822  0.0389
28252W        W46456   4.376  17.025  12.596  0.1890  0.0674 -0.0614
28253W        W46457  14.359   4.093  10.796  0.2195  0.1058  0.0166
28254W        W46458  12.119  16.857  12.644 -0.2762  0.2318  0.1082
28255W        W46459  13.715   2.756   1.283  0.4364  0.1266  0.0357
28256W        W46460  11.774  14.893   0.000 -0.1123  0.0074  0.0891
28257W        W46461  17.219   9.211   0.170 -0.0242 -0.3164  0.1716
28258W        W46462  11.353   7.226   1.927 -0.0298  0.3567  0.1884
28259W        W46463   0.768  13.819  11.560  0.0354  0.0815  0.1495
28260W        W46464   9.364  11.564   4.518 -0.0217  0.2387  0.2399
28261W        W46465   9.545   4.235   2.998 -0.2616  0.2322  0.3611
28262W        W46466   3.318  16.813   1.126 -0.1046 -0.1941  0.1925
28263W        W46467   2.023   3.307  14.470 -0.1428  0.1618 -0.0756
28264W        W46468  14.987  17.908  13.457 -0.1794  0.2491  0.3532
28265W        W46469   0.962  10.419   1.852 -0.0437  0.0451 -0.0658
28266W        W46470  18.648  18.031  13.971 -0.0639  0.2198  0.0945
28267W        W46471   8.709  18.947   3.158  0.0621  0.0509 -0.0321
28268W        W46472  13.337  17.417   1.321 -0.0022 -0.0051  0.3869
28269W        W46473   1.288   8.057   3.947 -0.0354  0.0356  0.2595
28270W        W46474  15.032   9.991   1.350  0.3092 -0.2342 -0.0951
28271W        W46475   4.074   2.184   2.400  0.1887 -0.1075 -0.2985
28272W        W46476   3.547  16.851   0.142  0.2026  0.2534 -0.1537
28273W        W46477  12.986   9.088  14.547  0.1125 -0.2411  0.1847
28274W        W46478   2.009  17.525   3.943 -0.0413 -0.1821 -0.2449
28275W        W46479   9.452  14.512   4.731 -0.1891  0.1738 -0.0183
28276W        W46480  13.787   8.416   1.121  0.0997  0.1195  0.5904
28277W        W46481  12.365  11.681   3.230  0.1394 -0.0758 -0.1834
28278W        W46482  17.423   3.501  13.291  0.0702 -0.4697 -0.1271
28279W        W46483   8.632  16.322  13.937  0.0172  0.4298 -0.1034
28280W        W46484  15.714  12.303  13.195  0.4072  0.2511 -0.0841
28281W        W46485  15.125  18.547   2.417  0.0278 -0.1211  0.0609
28282W        W46486   6.174   9.852  14.225  0.1860  0.0502 -0.0845
28283W        W46487   4.893  16.677  11.933 -0.0687 -0.1288 -0.1282
28284W        W46488   2.430  15.564   0.336  0.2231  0.0346 -0.0350
28285W        W46489   5.402  10.824   0.889 -0.2736 -0.2238 -0.0226
28286W        W46490  18.384   6.927  13.923  0.0041  0.2841 -0.4241
28287W        W46491  16.505   8.444   0.381 -0.2471 -0.0754  0.0761
28288W        W46492   0.115  16.826  11.085 -0.1434  0.1602 -0.1524
28289W        W46493   6.784  11.720   2.750 -0.1886 -0.3169  0.2615
28290W        W46494  18.105  14.670  13.271  0.0478 -0.0372 -0.0660
28291W        W46495  11.355   1.290  12.361 -0.1053  0.0190  0.4299
28292W        W46496  13.659   2.790   0.220  0.2184 -0.3734 -0.1873
28293W        W46497   0.107  16.418   2.951 -0.1351 -0.0184  0.0189
28294W        W46498  17.306   7.496  13.031  0.1351  0.2928 -0.1687
28295W        W46499  16.753  11.441  12.086 -0.2751  0.0086 -0.2884
28296W        W46500   0.088  12.619   0.342 -0.1303  0.0595 -0.1656
28297W        W46501  12.711   3.395   2.244 -0.3586 -0.0975  0.1530
28298W        W46502  11.630   9.474   3.891 -0.1868 -0.0269  0.2242
28299W        W46503   9.795   9.992   4.818  0.1324  0.0711  0.0557
28300W        W46504  13.081   6.312  14.682 -0.1573  0.0191  0.0432
28301W        W46505   3.231   2.549   2.788 -0.2338 -0.0414  0.1842
28302W        W46506   3.601   5.762   5.182  0.1320  0.0514  0.1497
28303W        W46507   6.261   7.137  14.299  0.1748  0.1156 -0.1324
28304W        W46508  18.893   9.962   1.486  0.1491  0.0688  0.1541
28305W        W46509  16.194   4.307   1.595 -0.2785 -0.0260 -0.2885
28306W        W46510   0.445  18.376   9.712 -0.0183 -0.1254 -0.0463
28307W        W46511  11.062   1.655  10.504 -0.0479 -0.0742 -0.0319
28308W        W46512   9.591   3.355   9.862 -0.1611 -0.1098  0.2901
28309W        W46513   1.072  14.512   0.805 -0.0172 -0.1791  0.0112
28310W        W46514  13.106   0.351  11.734  0.1727  0.1052 -0.0479
28311W        W46515  10.441   9.425   0.983 -0.0154 -0.0586 -0.2074
28312W        W46516  13.848  10.647  11.072  0.0081 -0.1340  0.3252
28313W        W46517  16.367  16.816  11.085  0.3806 -0.1328  0.2409
28314W        W46518  17.071   0.603   3.468 -0.0331 -0.1278  0.0826
28315W        W46519  14.131  10.726   0.398  0.0617 -0.3188 -0.3563
28316W        W46520   5.281   9.329  11.849 -0.0164 -0.0900  0.0913
28317W        W46521  15.890  16.928   4.097  0.2023 -0.0432  0.1038
28318W        W46522   5.426  11.407   3.621 -0.1614  0.1038  0.0773
28319W        W46523   6.710  11.234  12.708  0.0627 -0.0730 -0.0398
28320W        W46524   4.609   0.327  12.911 -0.2754 -0.0055  0.0546
28321W        W46525  15.811  17.720   2.433  0.2757  0.0738  0.0684
28322W        W46526  16.321  17.946  11.534 -0.1448 -0.3680  0.0371
28323W        W46527   5.833   0.432  14.552 -0.0532  0.0672 -0.3414
28324W        W46528   5.603  16.978  14.096 -0.1051  0.1913  0.1533
28325W        W46529   5.115  13.447   1.686 -0.0258  0.3695  0.3049
28326W        W46530  17.492   3.929  11.804 -0.1546  0.1179 -0.0553
28327W        W46531   3.164   1.697   3.146  0.0315 -0.0476 -0.2119
28328W        W46532   5.601   9.849  11.187 -0.2274 -0.3621  0.0645
28329W        W46533  16.454   1.867  13.143 -0.5121  0.1499  0.3126
28330W        W46534  18.845  16.601   9.375  0.1194  0.3105 -0.1963
28331W        W46535  11.354   8.091   3.857 -0.1141 -0.2764 -0.1473
28332W        W46536  11.282   6.627  13.556  0.0307  0.0304  0.1329
28333W        W46537   8.498  16.348  10.830 -0.1616 -0.3515  0.1269
28334W        W46538   1.431   3.500  11.998 -0.2625 -0.1956 -0.4462
28335W        W46539  18.300  18.258  11.114 -0.2671 -0.0765 -0.3583
28336W        W46540   1.127   2.551  13.772  0.1183  0.0956  0.4491
28337W        W46541  11.244   3.318   3.711 -0.0070  0.0470 -0.0044
28338W        W46542   3.337  10.144  12.626 -0.3303  0.2671 -0.2360
28339W        W46543   4.527   7.218   2.853 -0.0863 -0.2364  0.1000
28340W        W46544  11.196   4.951  14.505 -0.0016  0.2403  0.0446
28341W        W46545  17.340   9.781   4.027  0.1013  0.2149 -0.0644
28342W        W46546  18.817  11.094  13.385  0.1803  0.2959  0.0302
28343W        W46547   8.613  13.203   1.017 -0.1853  0.1430 -0.0428
28344W        W46548   5.986   5.926   4.063 -0.0946 -0.2170 -0.1729
28345W        W46549   4.844  16.805   2.321  0.5179  0.1604  0.1555
28346W        W46550  12.777   1.561  12.076 -0.3034 -0.2350 -0.1063
28347W        W46551  18.788   6.709   4.000  0.1602  0.3812  0.2280
28348W        W46552   9.008  13.922   0.390  0.2880 -0.5595  0.3017
28349W        W46553   0.440  14.222   3.008 -0.0194  0.1782 -0.1338
28350W        W46554  17.251   5.932   2.861 -0.1093 -0.1776 -0.1642
28351W        W46555   5.122  18.934   4.291  0.1647 -0.2483  0.1704
28352W        W46556   8.626   8.109  10.980  0.2664 -0.2510  0.3688
28353W        W46557  14.569   9.980  13.827 -0.1507  0.1291 -0.1948
28354W        W46558  14.938  10.035   0.616  0.0824  0.3279  0.1936
28355W        W46559   3.806   7.070   2.838 -0.1053  0.0363 -0.3492
28356W        W46560   8.313   8.883   3.853 -0.1868  0.3054  0.1163
28357W        W46561  13.986  16.930  11.028  0.0838  0.1100  0.1321
28358W        W46562   1.813   0.848  13.033  0.2914 -0.1641 -0.1121
28359W        W46563   5.270   9.228  12.604 -0.1154  0.0247 -0.2260
28360W        W46564   5.607   7.968  11.033 -0.2464 -0.1967 -0.3798
28361W        W46565   4.546   0.590  10.854  0.1634 -0.0015  0.1491
28362W        W46566   7.389   8.918   0.294 -0.1953 -0.1656 -0.0643
28363W        W46567   6.402   7.419   2.277  0.0450  0.0667 -0.1782
28364W        W46568   5.616  17.094  13.220  0.3011 -0.0739  0.1976
28365W        W46569  10.659   3.787  10.451 -0.0240  0.2319  0.1144
28366W        W46570  15.559  14.072  11.446  0.1641 -0.2090 -0.1947
28367W        W46571  12.005   2.702  11.495 -0.1714  0.3828  0.0164
28368W        W46572   4.332  15.967   2.079  0.2334 -0.4846 -0.0413
28369W        W46573   3.365   7.457   3.521  0.2747  0.0230  0.3228
28370W        W46574  12.397  17.692  13.707 -0.1874  0.1698  0.2225
28371W        W46575   7.125  10.038  14.300 -0.0181 -0.1418  0.0517
28372W        W46576   8.279   9.887  13.172 -0.3514  0.0997  0.2158
28373W        W46577  14.687   4.156   2.711  0.2027 -0.4028  0.3188
28374W        W46578  14.862  15.310  10.674 -0.0073  0.1651 -0.1138
28375W        W46579  10.835   4.040   1.520  0.1899 -0.1817  0.0765
28376W        W46580   4.845  15.779   3.348  0.0368 -0.3224  0.1707
28377W        W46581   4.383  12.697  12.731 -0.0064  0.2776  0.1329
28378W        W46582   6.762   8.922  13.288  0.0321  0.0169 -0.1066
28379W        W46583  10.121   5.128  10.572 -0.1604  0.0527 -0.1879
28380W        W46584  13.762   5.239   2.167  0.1868  0.2509  0.1557
28381W        W46585  10.939  14.377   1.152  0.1280 -0.0439  0.0306
28382W        W46586   8.296  12.305   2.784  0.2325 -0.0339 -0.1253
28383W        W46587   6.946   8.485  11.940  0.2069 -0.2129 -0.0452
28384W        W46588   7.720  15.259  14.278 -0.2523 -0.2103 -0.0613
28385W        W46589   2.758   1.162  12.130  0.2850  0.0728  0.0432
28386W        W46590   2.621  16.274  12.153  0.0912 -0.1116  0.0297
28387W        W46591   4.169   4.908  11.724 -0.0225  0.0841 -0.2205
28388W        W46592   8.412   4.632   4.517  0.0755  0.0820 -0.0615
28389W        W46593   1.048   4.347   5.391  0.0684  0.3087 -0.4437
28390W        W46594  15.847  16.703  12.302  0.0877 -0.4987 -0.1783
28391W        W46595  14.318  15.383  11.641 -0.1424 -0.0201 -0.2557
28392W        W46596   3.374  11.617  13.558  0.0104 -0.1758 -0.0017
28393W        W46597  10.954  10.517   3.133 -0.2144 -0.0114  0.2087
28394W        W46598   5.422   5.523  11.671  0.0962 -0.0011 -0.1496
28395W        W46599   4.697  11.862  13.282 -0.2848  0.1503  0.1897
28396W        W46600  17.382  17.356  14.725 -0.1174 -0.1262  0.5075
28397W        W46601  10.272   1.800   0.689 -0.0495 -0.1464 -0.1165
28398W        W46602  18.493   7.879   0.386 -0.2818  0.1549 -0.2660
28399W        W46603  10.912   4.187  13.507  0.0592 -0.4524  0.2248
28400W        W46604   4.344   8.594  11.073  0.0911  0.2929  0.0133
28401W        W46605   4.128  14.272   1.453  0.0011  0.0389  0.1145
28402W        W46606   4.808  15.406   4.958  0.2315 -0.1389 -0.0484
28403W        W46607  13.895   4.957   3.996 -0.0608 -0.0849  0.0349
28404W        W46608   7.798  18.190  11.334  0.0427  0.0008  0.1162
28405W        W46609   1.477  11.051  14.414 -0.1620  0.0643  0.0686
28406W        W46610   7.998  10.992   2.057 -0.2970 -0.1820 -0.0698
28407W        W46611   8.849  15.118   1.418 -0.4009 -0.0263 -0.1091
28408W        W46612  14.563  12.507  14.532  0.0438  0.2165  0.0688
28409W        W46613  10.733  15.346  13.878 -0.0449 -0.3636 -0.1298
28410W        W46614  16.531  10.688   3.302 -0.0530  0.2324 -0.0365
28411W        W46615  17.248   1.639  12.352  0.0571  0.1568 -0.0755
28412W        W46616  18.497  13.652   2.587 -0.0286  0.2442 -0.2169
28413W        W46617  18.882   8.311  12.889 -0.2726  0.1975  0.0021
28414W        W46618   5.231  16.493  12.261  0.0043 -0.0574  0.0237
28415W        W46619  12.096  17.747  10.930 -0.1249 -0.2382  0.1007
28416W        W46620   6.390  14.421  13.797  0.2133 -0.0738 -0.1579
28417W        W46621   7.401   8.484  14.989  0.0658  0.2368 -0.0774
28418W        W46622  14.983   4.963  14.516  0.0119 -0.1605  0.2213
28419W        W46623  10.286  11.947  11.701 -0.1046 -0.1079  0.1789
28420W        W46624   1.697  10.348  14.910 -0.0425  0.3276 -0.1455
28421W        W46625   4.151  15.511   4.022 -0.3652 -0.2134  0.1342
28422W        W46626   6.943   6.043  14.175 -0.1711 -0.1010  0.0127
28423W        W46627   3.090   0.585   0.463  0.3514  0.0515 -0.0331
28424W        W46628   6.041  15.500   3.868 -0.1957 -0.0330  0.1811
28425W        W46629   8.384  11.650   4.179 -0.0401 -0.2070 -0.1119
28426W        W46630   8.188  15.261  14.004  0.0351  0.0722 -0.0803
28427W        W46631   5.788  16.403   4.009  0.1684  0.2531  0.2649
28428W        W46632  11.253  15.172   0.327  0.2883  0.0082 -0.0236
28429W        W46633  11.377   7.133   1.452 -0.1295  0.0299  0.1963
28430W        W46634   3.640  14.394  11.053  0.0682  0.0868  0.0540
28431W        W46635  10.963   6.889  11.705  0.0057  0.3114  0.2450
28432W        W46636   6.014   2.031   4.696 -0.0025  0.0619 -0.1739
28433W        W46637  11.517   1.332  13.894 -0.2588 -0.0589 -0.1328
28434W        W46638  17.826  13.386   0.067 -0.1457 -0.0308  0.1262
28435W        W46639   3.567  18.804   3.115  0.0938 -0.1899  0.0133
28436W        W46640   6.073   8.053   2.608  0.1830  0.0617 -0.0417
28437W        W46641  13.110   1.702   1.240 -0.1195 -0.0166 -0.0626
28438W        W46642   3.166  18.382  12.249  0.3315  0.1678 -0.0120
28439W        W46643  13.517   5.884   4.196  0.0813 -0.1555 -0.1946
28440W        W46644  18.010   0.493   1.351 -0.0995  0.0360  0.2721
28441W        W46645   2.096   2.448  14.243 -0.2633  0.1461 -0.2612
28442W        W46646   8.391  10.656  10.779 -0.0313  0.4999 -0.1734
28443W        W46647  12.791   6.514   1.043 -0.1240 -0.6773  0.1645
28444W        W46648  13.083  12.252   3.323 -0.5677  0.2443 -0.1097
28445W        W46649   5.606  17.477   0.616 -0.1705  0.1473  0.1551
28446W        W46650  11.121  18.394   9.700 -0.1089  0.1577  0.1338
28447W        W46651   9.400  15.746  11.932  0.1658  0.2173  0.3717
28448W        W46652   1.241   8.450  11.446  0.1373  0.0859  0.0159
28449W        W46653  12.474   1.265   2.696 -0.4514  0.0903 -0.1440
28450W        W46654   5.074   8.239   2.216  0.0851  0.3841  0.2056
28451W        W46655  11.750   2.301  13.260 -0.0816  0.0419 -0.2728
28452W        W46656   4.727   7.961   0.700 -0.1972  0.3314  0.4318
28453W        W46657   1.896  13.126  12.096 -0.0457 -0.1539 -0.0258
28454W        W46658  14.302   9.743   1.095  0.2429 -0.2176  0.1527
28455W        W46659  10.123   1.281   1.311  0.3576 -0.0042 -0.0330
28456W        W46660   4.766  13.410   4.487  0.1398  0.1997  0.1576
28457W        W46661  11.392  14.587  13.018  0.0246  0.1288  0.1703
28458W        W46662  10.799  17.332   1.010  0.0095  0.0857 -0.1924
28459W        W46663   1.527   7.337   5.003 -0.1176 -0.0862 -0.2592
28460W        W46664   2.574  13.940  14.005 -0.2969  0.2451 -0.1710
28461W        W46665  12.677   1.750   3.995  0.1360  0.0756 -0.0393
28462W        W46666  14.216  16.019   2.697  0.1093  0.0019 -0.2407
28463W        W46667   8.567  13.344   1.620 -0.0802 -0.0515  0.1086
28464W        W46668   9.138   7.136  11.678 -0.2676  0.0027  0.0895
28465W        W46669   8.617   6.054   9.901 -0.2032 -0.4000 -0.2860
28466W        W46670   6.490  15.319  11.636  0.1336 -0.1859  0.1954
28467W        W46671  12.037   9.302  11.450  0.5139 -0.2314 -0.0831
28468W        W46672   3.789   1.889   1.569 -0.0500  0.0636  0.2716
28469W        W46673  15.136   3.584   9.333  0.0219 -0.2110  0.1928
28470W        W46674   1.437   2.166  13.976 -0.0486 -0.1827  0.1241
28471W        W46675  15.800  17.488  12.109  0.1580  0.3528  0.1501
28472W        W46676   9.909   9.707   0.252 -0.2377 -0.0225  0.2044
28473W        W46677   0.918  17.157   4.461 -0.1829  0.1253  0.2340
28474W        W46678   1.575  17.890   3.381 -0.2116  0.0104 -0.4227
28475W        W46679  13.952  11.015   4.160  0.3729  0.1023 -0.1135
28476W        W46680   7.509  11.664  11.164  0.2114 -0.0861 -0.0023
28477W        W46681  12.062   4.104  11.044 -0.0866  0.0647  0.1777
28478W        W46682  15.121  17.114  14.888 -0.0701 -0.1209 -0.2760
28479W        W46683  18.475  14.662  11.048 -0.1347 -0.1117 -0.1236
28480W        W46684  18.521   5.268  11.589 -0.1003 -0.0331  0.1685
28481W        W46685   9.436   3.320   4.189  0.0460  0.2670  0.1006
28482W        W46686   1.597   5.761   0.077 -0.2778 -0.0033 -0.2444
28483W        W46687   0.997   9.114   1.259 -0.0095 -0.1113  0.2375
28484W        W46688  14.973  12.904  14.539 -0.0733  0.1194  0.0290
28485W        W46689  18.001  14.602  10.708  0.0374  0.1111  0.0265
28486W        W46690   1.028  11.629  11.427 -0.0430  0.0913  0.2141
28487W        W46691   1.124  14.223  14.842 -0.0444 -0.1052  0.2261
28488W        W46692   2.108   3.656  14.116 -0.1162  0.1592  0.0904
28489W        W46693  14.167  17.948   1.377 -0.1726 -0.2545 -0.2124
28490W        W46694  18.464  13.911  10.935 -0.2019 -0.0218  0.1065
28491W        W46695  13.003   7.838  11.088 -0.1450 -0.2471 -0.0648
28492W        W46696  11.610   1.285  13.327 -0.3242  0.1321 -0.1702
28493W        W46697   7.872  11.836  10.428 -0.1144 -0.0134  0.1406
28494W        W46698   9.566  16.624   4.191 -0.1964  0.2548 -0.2997
28495W        W46699  14.364  13.517   3.361 -0.0739  0.4196  0.2964
28496W        W46700   2.565  15.571   2.018  0.0734 -0.0286  0.2466
28497W        W46701  12.512   9.301   9.741 -0.1392 -0.0175 -0.1775
28498W        W46702   1.456   9.697  13.186  0.2458 -0.0539  0.0016
28499W        W46703   9.926  15.260   0.382  0.2254  0.0221  0.4500
28500W        W46704   5.089   6.449  14.457 -0.3774 -0.0972 -0.1307
28501W        W46705   7.755  15.115   0.294  0.0509 -0.0284  0.1701
28502W        W46706  18.416   5.623  14.671 -0.0084 -0.0609 -0.1541
28503W        W46707  16.844  15.231  11.377 -0.1776 -0.1947  0.1907
28504W        W46708  13.345  10.269  14.683  0.0025  0.0295 -0.2342
28505W        W46709  16.600   3.466   1.482 -0.0328  0.1451 -0.1074
28506W        W46710  12.859   2.893  11.573  0.0753  0.3643  0.2750
28507W        W46711   3.633   8.753  14.820 -0.0714  0.1390  0.0856
28508W        W46712   7.162   0.584  14.389  0.0154 -0.2121 -0.1531
28509W        W46713  10.582  10.241   1.253  0.3136 -0.1863  0.2071
28510W        W46714   6.484  11.943  12.017 -0.0238 -0.4130 -0.4536
28511W        W46715  11.858   8.457   3.037  0.0128  0.1310 -0.2505
28512W        W46716   7.215   4.085   9.689 -0.0908  0.0145 -0.4188
28513W        W46717  13.705  12.703   1.759 -0.0311  0.3413 -0.3042
28514W        W46718   9.247  12.397  12.419  0.0824  0.0013 -0.3005
28515W        W46719   5.245  16.008   3.205 -0.2341 -0.1743  0.0504
28516W        W46720  12.701   9.943  11.353 -0.2058 -0.1162 -0.2008
28517W        W46721   6.796   7.200   4.255 -0.1061  0.0796  0.4042
28518W        W46722  14.659   1.478   2.031  0.2336 -0.1379 -0.0610
28519W        W46723   3.877   4.378   3.709  0.0936 -0.0339  0.1910
28520W        W46724  14.337   1.404  14.797  0.3224 -0.0622 -0.1347
28521W        W46725   3.404   6.483  11.356  0.0135 -0.1465  0.2613
28522W        W46726   3.935  13.618   0.699  0.3965  0.1994  0.0913
28523W        W46727   6.339  17.425   3.245  0.0881 -0.1434  0.0719
28524W        W46728  13.205  10.803   3.569 -0.0411 -0.1919  0.0130
28525W        W46729  17.922   8.900   3.932 -0.0543 -0.3218 -0.3434
28526W        W46730  12.433  16.797   2.746  0.3288 -0.0185 -0.2211
28527W        W46731   9.880   9.612  10.887 -0.1531 -0.1762 -0.1139
28528W        W46732   5.619  15.722   2.894  0.0991  0.0057  0.1632
28529W        W46733  18.494   3.183   3.746  0.4216 -0.2204 -0.2290
28530W        W46734  17.931  10.189  13.690  0.1274 -0.0910 -0.2031
28531W        W46735   9.189  12.628  13.405 -0.2205 -0.1004 -0.1269
28532W        W46736   6.164  12.212   2.442  0.1600  0.0359 -0.1188
28533W        W46737  12.020  18.804   3.979  0.0563  0.1639  0.1113
28534W        W46738  13.179   1.672   0.358 -0.1185  0.2103 -0.0771
28535W        W46739  11.399   9.558  13.078  0.2860 -0.1332 -0.2029
28536W        W46740   1.102   0.744  13.532 -0.0391 -0.3224  0.0632
28537W        W46741   2.979   6.401   4.670  0.3420  0.1161 -0.0710
28538W        W46742   1.044  16.220   4.512 -0.1849 -0.3837  0.0466
28539W        W46743   6.128  12.882   0.230 -0.0844 -0.0667 -0.2319
28540W        W46744  17.675   0.153   4.697 -0.0239  0.2345  0.0812
28541W        W46745  17.728  17.676  12.298 -0.3071 -0.1106 -0.2548
28542W        W46746  18.249  16.240  13.593 -0.0739  0.2280 -0.1983
28543W        W46747   6.665   5.610   2.278  0.2153 -0.2142 -0.2523
28544W        W46748   4.318   0.130   2.628  0.3136 -0.1519  0.3003
28545W        W46749   3.472   8.646  10.781 -0.1260 -0.4464  0.0653
28546W        W46750  10.415  10.651  13.316 -0.0508 -0.0469 -0.2145
28547W        W46751  15.147   9.307  14.255  0.2436  0.3449 -0.0879
28548W        W46752  10.581   0.389  10.810 -0.0135  0.1473  0.3341
28549W        W46753  15.592   2.522  11.502 -0.1703  0.1799 -0.1193
28550W        W46754   3.733   3.226  11.679  0.1956  0.0311 -0.3607
28551W        W46755   4.198  17.115  10.901 -0.1213 -0.1847  0.0222
28552W        W46756  11.135  10.038   4.303  0.1544  0.0421  0.3829
28553W        W46757   7.487  10.513   3.815  0.3716  0.2307 -0.0215
28554W        W46758  16.649  14.959  13.222  0.1242  0.0115  0.1543
28555W        W46759  16.415   1.519   1.180 -0.3369 -0.1382  0.1744
28556W        W46760   8.386  12.802   2.896  0.0902  0.0503  0.0147
28557W        W46761  13.154   7.145   0.092  0.0632 -0.1958 -0.1199
28558W        W46762   6.231   7.684   1.301  0.3991  0.0116  0.1454
28559W        W46763  11.632  10.550  12.751 -0.0630 -0.1449  0.1508
28560W        W46764  10.982   8.798  14.213 -0.3690  0.4062 -0.0279
28561W        W46765  15.472  18.913  13.527  0.0964 -0.0565  0.0090
28562W        W46766  15.773   3.392  13.450 -0.1293 -0.1211  0.3639
28563W        W46767  10.631  11.720   0.352  0.0087  0.0451  0.1036
28564W        W46768  12.913   6.169  12.315 -0.0928 -0.2742  0.1836
28565W        W46769  16.354  13.162   3.317  0.0903 -0.3333 -0.2410
28566W        W46770  17.349  15.536  14.442  0.3021 -0.1789  0.2249
28567W        W46771   6.978  15.254   2.317 -0.1710  0.1773  0.1679
28568W        W46772  13.703  15.262  12.336 -0.1658  0.1441  0.2536
28569W        W46773   5.830  14.491  13.902 -0.2360  0.0456 -0.0269
28570W        W46774  12.016   4.015  10.042  0.2346 -0.6118  0.0998
28571W        W46775  16.478  10.325  13.055 -0.2646  0.0339 -0.0221
28572W        W46776   4.858   3.293   1.030  0.1680 -0.0020 -0.0102
28573W        W46777   4.121  18.107  12.555  0.3123  0.2644 -0.2463
28574W        W46778   7.052   8.380  10.344  0.0761  0.2460 -0.0081
28575W        W46779   2.835   2.499   2.492 -0.0197  0.0004  0.2674
28576W        W46780   0.906   3.213  11.729  0.0713 -0.1467 -0.2046
28577W        W46781   2.644   8.583  11.007 -0.0376  0.0402  0.2815
28578W        W46782  16.355  11.030   0.616 -0.0601  0.0009  0.2351
28579W        W46783   9.281  15.698   2.389  0.2754  0.2428  0.0372
28580W        W46784   3.999   6.247   3.705  0.2735 -0.1471 -0.0485
28581W        W46785   2.159   9.482   0.559 -0.0076  0.1358 -0.0785
28582W        W46786   6.243  17.926  14.017 -0.2569  0.1883 -0.2324
28583W        W46787  16.787   5.896  11.117  0.1051  0.2431 -0.0683
28584W        W46788   2.100  10.219  14.645  0.0076 -0.1551 -0.1854
28585W        W46789   2.783   4.761   2.038 -0.3369  0.0126  0.1864
28586W        W46790   8.373  15.032  13.381 -0.1935  0.0594 -0.1086
28587W        W46791   3.307   4.591  11.946  0.2453  0.2938 -0.1293
28588W        W46792   5.521  17.211   0.144 -0.4019 -0.0480 -0.1186
28589W        W46793   5.055   8.736  12.494  0.1608 -0.4799 -0.0649
28590W        W46794  14.737   4.895   0.262 -0.0768  0.1267 -0.1054
28591W        W46795  18.414  12.578  12.094  0.0512  0.1692 -0.1168
28592W        W46796  18.300  13.576  14.179 -0.1303 -0.2175 -0.1686
28593W        W46797  11.003   2.183  10.502 -0.1770  0.3529  0.0258
28594W        W46798   3.489   5.728   3.869  0.1882 -0.1041 -0.3867
28595W        W46799   5.685  13.458  11.537  0.1090  0.1285 -0.2560
28596W        W46800  13.145   6.377  12.860 -0.0720 -0.0168  0.4236
28597W        W46801   0.364   2.025  13.408  0.1909 -0.3283 -0.0099
28598W        W46802  10.704   0.747   0.720  0.0524 -0.0337  0.1001
28599W        W46803   8.474   1.487  13.849  0.0619 -0.2462  0.0828
28600W        W46804  12.506   9.994   3.951 -0.1953 -0.1760  0.1171
28601W        W46805   6.265   9.331  14.395 -0.0611  0.0964  0.0943
28602W        W46806   3.477   3.521   1.769  0.0151 -0.1110  0.2885
28603W        W46807  10.882  12.311  10.701 -0.1837 -0.3037 -0.0433
28604W        W46808   4.920   4.696  11.441 -0.0824  0.1604 -0.1957
28605W        W46809  12.933   7.040   1.853  0.1776  0.1895  0.1706
28606W        W46810  10.713   1.358   1.528 -0.0716 -0.2430  0.2378
28607W        W46811  17.495   2.524  11.326  0.2004  0.0761  0.0938
28608W        W46812  12.819   6.805   0.121  0.1645 -0.0350  0.3527
28609W        W46813  15.915  10.348   1.594 -0.2391  0.0159 -0.1987
28610W        W46814   2.687  10.311   2.589  0.0360  0.0439  0.0791
28611W        W46815   4.689  12.891  13.142  0.1435 -0.0359 -0.2041
28612W        W46816   3.352  12.817  12.757 -0.1285 -0.1864  0.0167
28613W        W46817   0.434   1.049   3.931 -0.0299  0.3287 -0.0012
28614W        W46818  11.532  14.682   3.076  0.2382 -0.0383  0.0299
28615W        W46819  17.923   5.534   0.003  0.2320 -0.1974  0.6521
28616W        W46820   2.130   8.952  12.310 -0.2026  0.1207  0.2821
28617W        W46821   1.986   3.186   3.001 -0.2225 -0.0867 -0.3743
28618W        W46822   4.541   2.009   2.461  0.1481  0.2078 -0.1935
28619W        W46823   8.538  14.471  11.516  0.0803  0.0753  0.3490
28620W        W46824  16.884   4.297  11.573 -0.1179  0.0828 -0.1810
28621W        W46825   9.477   7.519  10.231  0.1564 -0.0295  0.2779
28622W        W46826  16.855   7.358  12.156 -0.1916  0.3349  0.1427
28623W        W46827   1.452  13.112   3.589 -0.1927  0.1483 -0.0218
28624W        W46828   0.417  17.066   4.303 -0.2612  0.2215  0.1207
28625W        W46829   9.047   4.444   3.615 -0.0268  0.0558  0.0601
28626W        W46830  16.878   0.197  12.502  0.3035 -0.0244  0.0688
28627W        W46831   0.436   5.054  11.651  0.0748  0.0204 -0.1344
28628W        W46832  12.651   6.214   4.386  0.0984 -0.0694 -0.0483
28629W        W46833   6.618  16.904   0.016 -0.2007  0.0157 -0.0098
28630W        W46834  14.933   6.150  12.148 -0.2626 -0.0365 -0.0266
28631W        W46835   6.914   7.336   0.811  0.0460 -0.2338 -0.0080
28632W        W46836  16.562   6.405   0.286  0.0127 -0.0116 -0.1452
28633W        W46837  16.669   5.729  11.609  0.3041 -0.0299 -0.1513
28634W        W46838   0.311   0.272  14.403 -0.0640  0.0806 -0.2440
28635W        W46839   8.132   4.605   3.134 -0.0060  0.0309  0.1227
28636W        W46840   1.964  12.153  11.827 -0.2503 -0.2420 -0.0269
28637W        W46841  13.239  17.866   2.383  0.1553  0.0860 -0.0106
28638W        W46842  17.871   1.134  14.069 -0.2696 -0.0879 -0.0932
28639W        W46843  13.584   3.571   3.484  0.0264  0.0650  0.1782
28640W        W46844   1.806  16.721   1.936  0.2001 -0.1941 -0.1239
28641W        W46845  11.722   9.389  11.826  0.3028  0.0391  0.1933
28642W        W46846   2.686   1.974   2.370  0.1066 -0.1075  0.2166
28643W        W46847   7.619  10.329  14.366  0.3477  0.2532  0.3256
28644W        W46848   4.276  16.010  13.785  0.1350  0.1584 -0.1463
28645W        W46849   7.811   7.908   4.057  0.0557  0.1415  0.0681
28646W        W46850   6.191  18.564   2.387 -0.0389 -0.2123 -0.1972
28647W        W46851  14.028  13.105   3.136 -0.1303 -0.1602 -0.0429
28648W        W46852  16.597   2.395  12.961  0.3473 -0.1412 -0.0823
28649W        W46853   9.306  15.020  12.481  0.0085  0.1147 -0.2033
28650W        W46854   0.605   7.056   0.651  0.2611  0.1403  0.0564
28651W        W46855  17.363  12.990  13.417  0.0434 -0.0066  0.0068
28652W        W46856   0.649  10.865   1.921 -0.1258  0.1664  0.0380
28653W        W46857   3.829   0.976   3.116 -0.2095  0.3340 -0.0106
28654W        W46858   7.033  17.038   4.166  0.0893 -0.0917 -0.3265
28655W        W46859   8.659   4.987   2.046  0.2418 -0.0028 -0.0954
28656W        W46860   2.871   2.863   0.519 -0.1756  0.2058  0.1397
28657W        W46861   8.403   9.772   1.592 -0.0021  0.0329 -0.3284
28658W        W46862  10.469   2.364  12.158 -0.1225 -0.2283  0.2416
28659W        W46863  11.886  15.603  14.343  0.1297 -0.3461 -0.0882
28660W        W46864   8.050   5.868   3.677 -0.2560  0.1079 -0.1476
28661W        W46865  17.220  16.506  14.508  0.2323  0.0406  0.0539
28662W        W46866   2.924   3.663  14.691  0.1142 -0.2286  0.0277
28663W        W46867   0.448   7.239  13.230  0.0078  0.2347 -0.1756
28664W        W46868   6.624  10.230  12.432 -0.1566  0.0200 -0.1191
28665W        W46869   7.846  15.616  13.881 -0.2560  0.2207  0.2954
28666W        W46870   4.315  11.136  13.532  0.1316 -0.0334  0.3244
28667W        W46871  12.796   3.495  14.543  0.1380 -0.0262  0.3905
28668W        W46872  12.770  11.457  13.698  0.1687 -0.0333  0.1479
28669W        W46873  10.625   1.991   3.099 -0.1485  0.0767 -0.0225
28670W        W46874  16.421  17.695  14.237 -0.1960 -0.1004  0.1336
28671W        W46875   6.402  15.045  12.568  0.0645 -0.0606 -0.1203
28672W        W46876   4.102  15.168  12.882  0.1416 -0.0183  0.0965
28673W        W46877   3.299   3.060   4.111  0.1892  0.1236  0.3036
28674W        W46878  14.208  10.030   0.608  0.1003  0.2245 -0.1347
28675W        W46879   2.879   4.329  11.742 -0.1208 -0.3012 -0.5650
28676W        W46880  15.936  10.299   3.215 -0.0452  0.1078 -0.0084
28677W        W46881   7.692  13.182   1.484 -0.1808  0.0264 -0.0366
28678W        W46882  12.354  10.983  13.247  0.3225 -0.0889 -0.0327
28679W        W46883  10.123  11.933   4.394  0.0053 -0.0644 -0.3586
28680W        W46884   4.192  10.946  13.117 -0.2938  0.0519  0.1639
28681W        W46885   5.983   1.905   2.888  0.2555  0.0479  0.0349
28682W        W46886  17.723   4.387  10.841  0.2049  0.1355  0.0468
28683W        W46887   8.078  13.651   2.717 -0.0706  0.0773 -0.0887
28684W        W46888  13.816  18.688   2.749  0.0553 -0.1649 -0.2118
28685W        W46889   7.489   9.343   2.814 -0.1874 -0.1442 -0.0781
28686W        W46890  12.971  17.886   0.671 -0.2691  0.1299 -0.3135
28687W        W46891   2.935  15.427   2.378  0.1252  0.3689  0.0273
28688W        W46892   5.018   9.082  14.278  0.0154  0.1595 -0.1190
28689W        W46893  14.288  15.406  13.213  0.1389  0.1477 -0.1369
28690W        W46894   0.634  17.954  13.596  0.0007 -0.0770 -0.1529
28691W        W46895  17.646   5.700  12.533 -0.0719  0.1945 -0.1803
28692W        W46896  15.206  13.237   1.201  0.1270 -0.1700 -0.0185
28693W        W46897  13.767   6.306  12.913  0.0037 -0.1854 -0.0543
28694W        W46898   0.680   7.179  14.285  0.2297  0.0576 -0.1013
28695W        W46899  10.001  15.200   3.137  0.3111  0.0245 -0.3435
28696W        W46900  16.515  15.419   2.934 -0.1180  0.1266 -0.2790
28697W        W46901  14.031   1.819   3.288  0.1213  0.0062  0.0549
28698W        W46902  10.244   0.976   0.092 -0.0663  0.0202  0.0325
28699W        W46903   5.712  14.673  12.076 -0.2357  0.3815  0.3613
28700W        W46904   1.154  10.820   3.529 -0.1071 -0.4495 -0.2490
28701W        W46905  18.739   3.383   2.353 -0.1937  0.2108  0.1380
28702W        W46906  15.511  15.761   1.804 -0.2307  0.2103 -0.1711
28703W        W46907  18.535  14.799  10.556 -0.1063 -0.0184 -0.1151
28704W        W46908  12.070   3.533   3.269  0.5426  0.4948  0.0926
28705W        W46909   2.675  17.484   9.595  0.4169 -0.0948 -0.0095
28706W        W46910   5.773   2.910  11.914 -0.1227  0.2039  0.0371
28707W        W46911   0.749  16.588  13.753 -0.2293  0.0242 -0.2244
28708W        W46912   7.264   8.991   3.059 -0.0913  0.1027 -0.1356
28709W        W46913  13.908   4.413   0.635  0.1732 -0.2936  0.1298
28710W        W46914   9.468  16.053  14.550  0.0555  0.2262  0.0136
28711W        W46915  11.315   1.307   2.881  0.1600 -0.1943  0.0056
28712W        W46916   1.569   0.449   2.854 -0.0255 -0.2876 -0.3847
28713W        W46917  14.591   1.221   4.032  0.0856  0.3158 -0.1459
28714W        W46918  18.588  13.152  11.241 -0.3099  0.3172  0.1552
28715W        W46919  18.155   9.421  14.564 -0.2395 -0.2616 -0.0418
28716W        W46920   4.453   2.327  10.192  0.1779 -0.1796 -0.0114
28717W        W46921   2.977  15.153  12.336  0.1089  0.1065  0.0244
28718W        W46922  11.648   9.914   1.280 -0.2921 -0.0691  0.0065
28719W        W46923   8.158   5.376  11.464 -0.2277  0.0289 -0.3846
28720W        W46924   0.280  17.881   4.073 -0.1391 -0.1052 -0.0129
28721W        W46925  11.790   9.250   9.288 -0.1253 -0.0592 -0.2264
28722W        W46926  11.357   1.786   0.511  0.1061 -0.5241  0.0619
28723W        W46927   7.342   6.756  14.909 -0.2953 -0.4760 -0.2915
28724W        W46928   2.281  11.653  14.043  0.2207  0.0353 -0.0785
28725W        W46929  18.701   2.793  10.457  0.1649  0.1560  0.0215
28726W        W46930   0.444  18.899   0.585  0.1017 -0.1186  0.0662
28727W        W46931   4.492   4.326   3.232 -0.0403 -0.0688 -0.2409
28728W        W46932   0.945   1.180   3.982 -0.0625  0.0182 -0.1220
28729W        W46933  15.977   4.983  14.127  0.2950  0.2643 -0.2464
28730W        W46934   0.039  17.352   4.213 -0.0760 -0.0193  0.1781
28731W        W46935  12.540  14.716  13.737  0.0172 -0.0241  0.0243
28732W        W46936   1.457   5.063  11.986  0.0546 -0.1268  0.3561
28733W        W46937  14.843   1.857  11.788  0.0424 -0.0374 -0.0933
28734W        W46938   9.454   1.512  11.895  0.0733 -0.1912  0.1385
28735W        W46939   9.449   8.207  14.188  0.3236  0.2034 -0.0898
28736W        W46940  15.515   7.381  11.312 -0.0442  0.1695 -0.1571
28737W        W46941  11.002   6.141  12.322 -0.0651  0.3340 -0.0467
28738W        W46942  17.906   9.337  11.219  0.1243  0.0045 -0.1498
28739W        W46943   7.916  17.927  14.900 -0.2958 -0.1192 -0.4733
28740W        W46944  17.850   5.667  13.011 -0.1121 -0.1443  0.0201
28741W        W46945  15.690  13.851  12.634  0.1481  0.3777  0.1748
28742W        W46946   1.275  16.986   2.106  0.1306  0.1701  0.2059
28743W        W46947   5.244   7.626  11.247  0.3000  0.3221 -0.0916
28744W        W46948  10.120   0.262   0.118 -0.2272 -0.1037  0.1254
28745W        W46949   3.117   1.437  13.868  0.0378  0.0174 -0.1455
28746W        W46950  16.976   8.745  12.171 -0.1529  0.1383 -0.1628
28747W        W46951  18.434   0.306   1.118  0.2314  0.0512 -0.0190
28748W        W46952   0.794   6.414   2.610  0.1187  0.2212 -0.1795
28749W        W46953  11.616  14.423  12.307 -0.0462 -0.4849  0.3529
28750W        W46954   1.636  10.108  12.884 -0.1401  0.1314  0.4918
28751W        W46955   5.879   6.670  10.954 -0.1648  0.2444 -0.1063
28752W        W46956   1.407   0.553   5.646 -0.0414 -0.0219 -0.0018
28753W        W46957  10.592   0.807  13.212  0.2465 -0.0728 -0.1434
28754W        W46958   7.934  10.877   4.449 -0.1862 -0.0614  0.0404
28755W        W46959   5.291   5.843  11.234  0.0222 -0.0531  0.0457
28756W        W46960   4.974  14.617   1.196 -0.0864  0.2595 -0.1995
28757W        W46961   0.073  13.518  12.123 -0.1338  0.0808  0.1309
28758W        W46962  10.430   1.793  11.022 -0.0313  0.1056 -0.1430
28759W        W46963  18.316   4.049  13.151 -0.3460  0.0518  0.0094
28760W        W46964   3.015  18.796  12.760 -0.1625 -0.2290 -0.2261
28761W        W46965   5.007   3.321  12.037  0.3980  0.2348  0.0207
28762W        W46966   4.245  15.049   2.205 -0.2790 -0.1181  0.0193
28763W        W46967   8.612   7.575   3.771 -0.0623  0.0675  0.2568
28764W        W46968   9.634  11.399   1.772  0.1265 -0.1639  0.2441
28765W        W46969   9.737   2.125   4.890 -0.2111  0.0367  0.1779
28766W        W46970  15.293   3.208  13.748  0.0815 -0.1672 -0.0153
28767W        W46971   9.339   1.898   3.474  0.2451 -0.3802  0.2719
28768W        W46972   7.032  11.148  13.572  0.0273 -0.1079 -0.1400
28769W        W46973  13.232  16.021   2.324  0.1663  0.2213  0.1485
28770W        W46974  15.177  12.960   2.161  0.1942  0.1128 -0.1601
28771W        W46975   6.280   1.204  11.448 -0.4505  0.2400 -0.1414
28772W        W46976   7.925   7.330   3.066 -0.0225  0.2522 -0.1020
28773W        W46977  11.913   1.275   4.010 -0.2636  0.0785 -0.1210
28774W        W46978   2.421   2.219  10.868  0.0188 -0.1309  0.3607
28775W        W46979   1.778  17.677  13.296 -0.0301 -0.1362 -0.2590
28776W        W46980   6.460  14.281  13.223  0.0854 -0.0369  0.2594
28777W        W46981   5.562   8.070  14.369 -0.2946 -0.0348  0.2965
28778W        W46982   3.023  12.240   2.638  0.3200 -0.0513 -0.0396
28779W        W46983  17.838  13.567  12.169 -0.2642  0.0574  0.0211
28780W        W46984  17.523   9.317   2.921 -0.0469  0.1044  0.0442
28781W        W46985  11.445  11.547  12.355  0.4252  0.2322  0.2097
28782W        W46986   6.784  16.711   3.208  0.2834  0.0109 -0.1501
28783W        W46987  12.223  16.759  14.240 -0.0358  0.1410 -0.2401
28784W        W46988  11.540  17.810   2.823 -0.0723  0.1573  0.0154
28785W        W46989   2.611  18.552  10.933 -0.3051  0.0619 -0.1512
28786W        W46990   8.922  13.155  14.221  0.2638 -0.1624  0.4928
28787W        W46991  10.563  10.631  13.867  0.1850 -0.2133 -0.1468
28788W        W46992   6.915  14.851  14.864  0.3286  0.0313  0.0325
28789W        W46993  14.783   1.871   0.358  0.2389  0.0967  0.1087
28790W        W46994   6.587  18.314  14.106  0.0376 -0.0920 -0.2435
28791W        W46995  14.131  17.771  10.577 -0.0221  0.2343 -0.0227
28792W        W46996   0.370   4.434  11.555 -0.2372  0.2001  0.1666
28793W        W46997  10.101   1.277   2.220 -0.0738  0.0112  0.0296
28794W        W46998  17.974  10.266   3.190  0.1075 -0.1537 -0.3687
28795W        W46999  15.785   1.228  12.413 -0.1176 -0.0515  0.3407
28796W        W47000  15.820   9.215   2.604  0.3634  0.0363 -0.4264
28797W        W47001   6.453  18.689  14.625 -0.2445 -0.3077  0.0757
28798W        W47002  15.535  18.839   9.908  0.1002  0.2511 -0.0743
28799W        W47003  18.071   7.354  14.914 -0.3566  0.1266 -0.1469
28800W        W47004   9.869  18.533   0.988  0.0223  0.1168  0.0223
28801W        W47005   1.084   0.285   1.963 -0.1053  0.1072  0.1866
28802W        W47006   1.080  17.959   2.359 -0.0369  0.0857 -0.0960
28803W        W47007   2.347   9.419  13.044 -0.0134 -0.0349  0.1020
28804W        W47008   4.261   8.992  12.648 -0.1565 -0.2333  0.2273
28805W        W47009   1.313  18.067   9.833  0.1196 -0.1832 -0.1406
28806W        W47010  11.779  16.988   1.656 -0.0171 -0.2338 -0.0492
28807W        W47011  17.472   1.659   0.908 -0.0012 -0.2130 -0.0120
28808W        W47012  15.406  13.078   3.157  0.2638  0.1321 -0.1415
28809W        W47013   9.551   1.428  14.727 -0.0216  0.0586  0.0809
28810W        W47014  17.203  14.906   3.971  0.1079  0.0942 -0.4872
28811W        W47015  12.257  17.532  14.985 -0.0039  0.2006  0.2345
28812W        W47016  17.742  16.791   4.393 -0.1767 -0.2140 -0.0622
28813W        W47017  17.726  16.048   3.330  0.1687 -0.0226 -0.3331
28814W        W47018   7.458   7.528   3.109  0.1664 -0.0702  0.0070
28815W        W47019   4.050  17.781  14.853 -0.2505  0.3501 -0.0944
28816W        W47020  17.822   5.703   1.409 -0.2283 -0.2430 -0.0148
28817W        W47021   2.694  12.449  11.354 -0.2700 -0.0278  0.0075
28818W        W47022  17.126  15.100   0.697 -0.0416 -0.0588  0.2999
28819W        W47023   5.338   0.557   0.397 -0.0751 -0.2928  0.1040
28820W        W47024   9.020   8.222   2.590  0.1104 -0.1575 -0.2771
28821W        W47025   8.383  16.852   4.764  0.0599 -0.0866 -0.2185
28822W        W47026   6.851   8.724  14.832 -0.1761 -0.1578 -0.1602
28823W        W47027   3.162  18.249   1.916  0.1721 -0.1247 -0.1361
28824W        W47028   1.634  18.576  12.140 -0.0504 -0.0302 -0.1139
28825W        W47029  10.789  18.281   0.815 -0.3334 -0.0903  0.1559
28826W        W47030   0.638  11.487   4.336  0.0205  0.0095  0.2695
28827W        W47031   2.450   3.795   1.878  0.2060  0.0756  0.1210
28828W        W47032  17.878  18.288  13.095 -0.0077 -0.0442  0.0472
28829W        W47033   8.596   0.974  14.644 -0.1091 -0.0341 -0.1141
28830W        W47034  17.524   2.138   0.780 -0.5451  0.6095 -0.0897
28831W        W47035  13.689   0.351   2.096  0.2458 -0.3046 -0.0919
28832W        W47036  11.010  18.264   0.343 -0.1528  0.1085 -0.0388
28833W        W47037  12.087  13.365   0.223 -0.3061  0.0247 -0.1481
28834W        W47038  13.128  13.019   0.238  0.0323 -0.0854 -0.0464
28835W        W47039   6.315   9.085   1.157  0.0668 -0.1528  0.1239
28836W        W47040  11.262  13.738   3.534  0.0271  0.1496 -0.1255
28837W        W47041  13.399   3.693   0.341 -0.0892 -0.0068  0.0690
28838W        W47042   0.713   5.977  13.270  0.1911  0.1307  0.1147
28839W        W47043  10.887  18.789   4.316 -0.2420  0.0270  0.3168
28840W        W47044   9.584  16.050  11.536  0.1888 -0.0600 -0.0028
28841W        W47045   8.973   1.787  12.518 -0.2510 -0.1161 -0.1140
28842W        W47046   4.863  16.718  13.572 -0.1383  0.0627 -0.1718
28843W        W47047   2.301   3.046  14.843  0.1432  0.1513  0.1338
28844W        W47048  14.023   0.935  10.609  0.0510 -0.1552  0.1113
28845W        W47049   4.963   4.133   2.265 -0.0344  0.0298 -0.0543
28846W        W47050  10.341   7.308  11.585 -0.3471  0.0031  0.0463
28847W        W47051   4.184   7.125  11.647 -0.0444 -0.2571 -0.3559
28848W        W47052  14.145   2.936   3.863 -0.0920  0.1009 -0.1197
28849W        W47053  10.142   4.030   1.863  0.2148 -0.3692  0.0268
28850W        W47054  12.169  17.283   1.536  0.0814  0.0339 -0.0204
28851W        W47055  12.483   0.805   2.516 -0.0447 -0.2558  0.3807
28852W        W47056  13.501  10.873  14.697  0.0151 -0.0883  0.2670
28853W        W47057   0.153   6.345   1.758 -0.0464 -0.2270 -0.0139
28854W        W47058  16.261   2.521   2.119  0.2662 -0.0639 -0.2813
28855W        W47059  13.339   8.593  12.445 -0.0879 -0.3086 -0.1660
28856W        W47060  15.602   1.521  14.734  0.2369 -0.0897 -0.1775
28857W        W47061   1.438   2.620  11.062 -0.2469  0.1003  0.3970
28858W        W47062  10.153  13.404   1.525  0.0196  0.3978  0.0803
28859W        W47063   2.475   9.399  14.438 -0.0754 -0.1017  0.1170
28860W        W47064  18.632   7.641   1.956 -0.2192  0.3513 -0.0818
28861W        W47065   2.262   7.352  14.240 -0.0018  0.0712  0.1040
28862W        W47066  14.544   8.044  13.057 -0.3587  0.1300  0.0860
28863W        W47067  16.537  12.865   1.810 -0.1182 -0.2646  0.2280
28864W        W47068  10.366  17.055  10.763  0.0842  0.2053  0.1105
28865W        W47069  12.434   0.775   3.604  0.0884 -0.2318 -0.0874
28866W        W47070   8.747  10.817  11.063 -0.0136 -0.1163 -0.1104
28867W        W47071   0.549  15.664   0.114  0.1606  0.1313 -0.0554
28868W        W47072   6.982   3.066  13.504 -0.3272  0.0202 -0.2822
28869W        W47073   5.941  13.348   0.432  0.0138 -0.1241 -0.0902
28870W        W47074  10.501   2.378   3.740  0.1592  0.0910  0.1746
28871W        W47075   3.753  17.057  14.582  0.1899 -0.0086 -0.1858
28872W        W47076   7.443   2.809   2.497  0.2994 -0.1290  0.1780
28873W        W47077   0.662  10.358  11.531 -0.0470  0.3069 -0.0766
28874W        W47078  15.300   0.839   0.945 -0.0138 -0.0787  0.0869
28875W        W47079   5.208  13.220  13.021 -0.2323 -0.1826  0.1717
28876W        W47080   3.360   6.422   0.380 -0.0388 -0.0445 -0.6335
28877W        W47081  11.460  14.520   4.124 -0.2046 -0.4038  0.1234
28878W        W47082  13.788  12.409  11.568 -0.1094 -0.1277 -0.1338
28879W        W47083  13.070   8.481   4.150  0.0519 -0.0065 -0.0783
28880W        W47084   6.438  17.245  12.890  0.0188 -0.1444  0.2219
28881W        W47085  16.179   3.946   0.838  0.0235  0.4419  0.0044
28882W        W47086   0.976   2.484   4.034 -0.0526  0.3584 -0.3681
28883W        W47087  14.611  16.894  12.191 -0.0281  0.0408  0.2340
28884W        W47088   7.222   6.969  11.162 -0.1943  0.0245  0.2476
28885W        W47089   4.570   4.173   4.170  0.0931 -0.0273 -0.1071
28886W        W47090   0.632   4.689   2.858 -0.2068 -0.0490 -0.0328
28887W        W47091   1.455  18.619  14.499 -0.4297  0.1365 -0.2345
28888W        W47092   7.079   5.057   5.402 -0.0144 -0.0982  0.0750
28889W        W47093  11.832   9.046  14.192  0.1252 -0.1874  0.0609
28890W        W47094  18.527   4.357   1.252  0.1118  0.1164  0.3454
28891W        W47095   1.139  14.716  14.666  0.0491  0.0773 -0.1508
28892W        W47096   1.294   1.014   0.189  0.1741 -0.1725  0.2235
28893W        W47097  16.026   1.793   1.107 -0.1057 -0.1297 -0.1148
28894W        W47098  13.821  16.016  10.573 -0.1294  0.1763 -0.2244
28895W        W47099  10.679   9.100   0.626  0.3793  0.0458 -0.0552
28896W        W47100  13.995   3.803  11.634 -0.1549  0.5105 -0.3003
28897W        W47101  11.707  10.803  10.888 -0.0108 -0.0400  0.2361
28898W        W47102   4.294   0.502  14.186  0.3627  0.0048 -0.0877
28899W        W47103   9.687  14.167   3.379 -0.0149  0.2188 -0.2499
28900W        W47104   9.246   7.371  13.252  0.0073  0.3480  0.2184
28901W        W47105   6.094   1.998  12.817  0.0812  0.0076  0.0083
28902W        W47106   5.838  13.036  11.760 -0.1872  0.3915  0.0456
28903W        W47107   7.253   2.859  13.820 -0.2398 -0.1953 -0.0933
28904W        W47108  11.129  18.116   1.222  0.1057  0.3322 -0.2476
28905W        W47109  15.681   2.369   4.317 -0.0865  0.2071  0.1230
28906W        W47110  14.859   5.819  10.755  0.1740  0.0318  0.0223
28907W        W47111   3.552  17.340  14.241 -0.1982  0.3375  0.1737
28908W        W47112   2.846  12.666  12.660 -0.2731  0.3053  0.3675
28909W        W47113  13.547   1.791   1.593  0.0104 -0.2343 -0.0972
28910W        W47114   5.138  12.318   2.294 -0.3148 -0.0349  0.1450
28911W        W47115  14.281   9.056  14.208  0.1333 -0.0837  0.0252
28912W        W47116   8.803  18.572  12.070 -0.1861 -0.0138  0.0039
28913W        W47117  17.471  10.941   2.066  0.0095  0.0772 -0.0040
28914W        W47118   9.442  11.397  11.639 -0.1110 -0.1351 -0.0190
28915W        W47119  17.862  18.177  11.394  0.3887  0.0041 -0.4417
28916W        W47120  11.936   1.966   0.459  0.2917 -0.0015 -0.0046
28917W        W47121  13.473   8.374  14.347 -0.0622 -0.2292  0.1526
28918W        W47122  17.303   2.122  12.415  0.2061 -0.1589 -0.1290
28919W        W47123  10.097   1.653  13.000 -0.2011  0.1730 -0.2876
28920W        W47124   0.331   4.300  13.335  0.3220 -0.2989  0.2025
28921W        W47125  17.623  12.372  14.522 -0.0755  0.1290 -0.0416
28922W        W47126  13.158  13.600  11.967  0.1762  0.0409 -0.2476
28923W        W47127   8.968  17.763   0.193 -0.3644 -0.0713 -0.3012
28924W        W47128   9.185   0.335  12.383 -0.0326  0.3859  0.2530
28925W        W47129   0.144   3.622   2.072 -0.0607  0.0162 -0.0848
28926W        W47130   9.928  16.982  12.607 -0.1462 -0.0837 -0.2669
28927W        W47131  11.482   5.932   2.309  0.0635  0.0334 -0.1137
28928W        W47132  18.793   2.577   0.299  0.3924  0.1432  0.3053
28929W        W47133   9.079   3.738  11.403  0.1652 -0.3389  0.0021
28930W        W47134   3.057  18.952  14.694  0.4108 -0.0506 -0.2457
28931W        W47135  10.650   9.200  14.315  0.1395 -0.0372 -0.0911
28932W        W47136   7.001  16.137  14.408 -0.0744  0.3095  0.4384
28933W        W47137  12.296   6.075  13.003  0.0196  0.1247 -0.0512
28934W        W47138   9.644   4.551   4.377 -0.0737  0.1184  0.2436
28935W        W47139   4.709   0.125   1.332  0.1091 -0.0643 -0.0606
28936W        W47140   3.040   8.427  10.043  0.0445 -0.3717  0.3308
28937W        W47141  14.337  12.341  13.615  0.2255  0.0718 -0.3043
28938W        W47142  11.187   4.685  13.441 -0.3775 -0.1215 -0.0587
28939W        W47143   8.154   6.937   2.835 -0.2954 -0.3256  0.2262
28940W        W47144   5.216   7.448   3.268  0.1103 -0.2725 -0.2043
28941W        W47145  16.993  11.766   1.315 -0.1580  0.2628 -0.1354
28942W        W47146  16.514   4.052  12.498 -0.3450  0.0332 -0.2244
28943W        W47147   0.878   6.072   1.089  0.1011 -0.1996 -0.0295
28944W        W47148  14.172   9.373  11.066 -0.1744  0.3750 -0.1244
28945W        W47149   7.959  13.843  13.624 -0.0586  0.3403 -0.0433
28946W        W47150  14.266   9.440   1.789  0.2178  0.3291 -0.3312
28947W        W47151   6.261  11.339  14.461  0.2462 -0.0535 -0.2905
28948W        W47152   1.391  12.632  12.222  0.4227  0.2000  0.0280
28949W        W47153  16.970   8.669   0.286  0.2201 -0.0207  0.1473
28950W        W47154   6.019   8.237  12.855 -0.1566  0.1008  0.0939
28951W        W47155   6.450   6.597   0.551 -0.1105 -0.0533  0.0212
28952W        W47156   5.592   0.710   1.839  0.1469  0.3983  0.3138
28953W        W47157  17.333   4.300  13.448  0.0368 -0.3327  0.2901
28954W        W47158   4.551   9.922   2.207  0.0744 -0.0355  0.1694
28955W        W47159   9.762  10.575  11.416  0.0138  0.2535 -0.1035
28956W        W47160   6.339   1.867   2.175  0.0723  0.1624  0.1408
28957W        W47161   2.561   0.571  13.000  0.0164 -0.1129  0.1177
28958W        W47162   4.264  11.328   2.179 -0.0351  0.1308  0.2401
28959W        W47163   3.815  17.332   0.316 -0.0455  0.1792  0.0539
28960W        W47164  16.068   7.893  11.946  0.0157 -0.2741  0.0229
28961W        W47165   0.527  15.356   2.207 -0.0356  0.0488  0.1977
28962W        W47166  11.858  15.855  13.323 -0.1624 -0.2905  0.0530
28963W        W47167  14.757   7.862   0.964  0.0624 -0.2709 -0.1769
28964W        W47168   9.102   7.365   3.631  0.1437  0.1679 -0.2820
28965W        W47169  10.896   9.317  10.756  0.1137  0.0488 -0.1240
28966W        W47170   9.899   1.375  13.712 -0.4051  0.2344 -0.0517
28967W        W47171   7.065  18.923   4.513 -0.3182  0.0133 -0.0714
28968W        W47172  12.454   7.994  13.192 -0.1305  0.1009  0.1390
28969W        W47173  15.890  13.872  10.894 -0.2436  0.0043  0.0493
28970W        W47174   7.693   5.801  12.082 -0.5973  0.1785 -0.2110
28971W        W47175   9.364  13.868   1.362  0.0477  0.2309  0.1578
28972W        W47176   6.788  14.627  14.392  0.0465  0.0619  0.2233
28973W        W47177  10.946  10.646   3.701 -0.2147  0.0624  0.0955
28974W        W47178   1.011  18.787   0.160  0.1137 -0.2236  0.1944
28975W        W47179  11.587   8.358   4.185  0.0851  0.1239 -0.1110
28976W        W47180   0.552  18.021   2.366  0.2077  0.0775 -0.0164
28977W        W47181  15.338   0.799   3.204  0.2170  0.3993  0.0254
28978W        W47182   5.539   2.059  12.989  0.2489  0.3190  0.1515
28979W        W47183  10.407   6.714   0.624  0.3135 -0.0243 -0.0420
28980W        W47184   5.847   3.317   3.508 -0.1511 -0.0062  0.0966
28981W        W47185  11.149   1.884   2.124 -0.1681 -0.2091  0.1202
28982W        W47186   5.237   0.970   2.053  0.1347  0.0011 -0.1748
28983W        W47187   7.471  17.634  12.179  0.2788 -0.2064 -0.0929
28984W        W47188  10.275   9.949   3.511 -0.2225 -0.3336  0.2336
28985W        W47189  13.300  11.892   2.439 -0.1978 -0.0107 -0.1818
28986W        W47190  18.118   5.850  14.151 -0.0844 -0.0287 -0.1908
28987W        W47191   2.766   5.781  10.314  0.1145 -0.2232 -0.1578
28988W        W47192  12.439   5.431  11.734  0.4410 -0.1758 -0.4251
28989W        W47193   2.896   8.044  14.203  0.4813 -0.2093 -0.2766
28990W        W47194  18.163   2.030   1.251  0.2942  0.0183 -0.1039
28991W        W47195  15.123   2.370   1.458 -0.1187  0.0779 -0.1912
28992W        W47196  17.123  12.638   0.086  0.1362  0.1350 -0.1841
28993W        W47197  16.345  15.483  14.340  0.0753  0.0531 -0.0738
28994W        W47198   7.677   9.999   3.752  0.0043 -0.1090 -0.0178
28995W        W47199   7.072   8.429   0.324 -0.1431 -0.1240 -0.0522
28996W        W47200   2.202   1.035   4.656 -0.0241  0.1109  0.1351
28997W        W47201   1.676  15.861  11.355 -0.0700  0.2795 -0.0028
28998W        W47202   0.396   1.316   0.671  0.1771 -0.0091  0.2285
28999W        W47203  10.551  15.846   4.539  0.0199  0.1817  0.4151
29000W        W47204   5.525  16.385   5.268  0.0552  0.2581 -0.1216
29001W        W47205   2.381   8.093  14.405  0.1329  0.2409  0.0872
29002W        W47206   8.655  16.248   1.439 -0.2482 -0.1809  0.0649
29003W        W47207  13.901   4.286   0.088 -0.0672  0.3243 -0.1620
29004W        W47208   7.547   7.291   1.909  0.1316  0.1175  0.1066
29005W        W47209   0.593   7.986   1.827 -0.2584  0.1276 -0.0685
29006W        W47210  10.630  14.348   5.391 -0.2285  0.1714  0.1847
29007W        W47211  18.458   0.334   3.765  0.3796 -0.0239  0.1490
29008W        W47212   9.923   2.731  14.110  0.0472  0.0708  0.1184
29009W        W47213   5.260  10.955  14.961  0.0705  0.3464 -0.1603
29010W        W47214   2.420   3.850  13.771 -0.2063 -0.1291 -0.0622
29011W        W47215  16.161   0.250  10.543  0.2150 -0.2377 -0.2821
29012W        W47216  14.533   1.797   3.434 -0.0734  0.1557 -0.1374
29013W        W47217  13.339  11.530   4.659 -0.1722 -0.1534 -0.2333
29014W        W47218   3.622  10.856  11.818  0.2575 -0.0610 -0.1023
29015W        W47219   2.016   2.399   1.222 -0.2053  0.1788  0.1503
29016W        W47220   8.845  12.494   0.170 -0.3039 -0.1722  0.0561
29017W        W47221   1.591  10.655  14.027  0.1204  0.0305 -0.4636
29018W        W47222  12.279  11.771   2.290  0.0781  0.0175 -0.0866
29019W        W47223   1.679   1.100   4.366 -0.2770  0.2206 -0.3385
29020W        W47224   0.447   5.436   3.464 -0.0296 -0.0878 -0.3001
29021W        W47225  18.231  15.143  10.955 -0.2901  0.3436  0.2669
29022W        W47226  14.061  13.386   1.422 -0.3140  0.4301 -0.0893
29023W        W47227   1.062   1.452  13.119  0.2730 -0.0845  0.0186
29024W        W47228  16.838   8.986   1.800  0.0983 -0.2120  0.0163
29025W        W47229  15.317   6.559   3.467 -0.0511 -0.1846  0.0616
29026W        W47230  12.193  15.915  13.634 -0.1989 -0.2657 -0.4273
29027W        W47231  15.434   3.829  10.702 -0.2063 -0.0341 -0.1810
29028W        W47232   2.542   5.278  11.198  0.3271  0.2344  0.0026
29029W        W47233  11.729   9.386   2.459  0.3889  0.0928  0.2446
29030W        W47234   8.501   2.208  14.450 -0.0653  0.0756  0.0770
29031W        W47235   1.609   1.448   1.398  0.1158  0.3346 -0.0901
29032W        W47236   1.628  12.553  14.942  0.3014  0.2642 -0.0595
29033W        W47237   1.211  10.867   3.989  0.1192 -0.1066 -0.0504
29034W        W47238   3.564  11.578  14.811  0.4721  0.1304  0.3230
29035W        W47239   2.837   3.181  10.034 -0.1406  0.0166  0.1262
29036W        W47240  15.095   3.521   3.592 -0.1218 -0.1461  0.0746
29037W        W47241   9.805   6.121  14.456 -0.2010 -0.2043 -0.1966
29038W        W47242  10.790  10.307  13.123 -0.1141 -0.1758 -0.0413
29039W        W47243  13.611  18.758   0.270 -0.2142 -0.0716 -0.1895
29040W        W47244  10.585   0.065  12.323 -0.1646  0.0592 -0.0846
29041W        W47245   3.245   6.480   2.176 -0.5934  0.3406 -0.2112
29042W        W47246  17.322  16.338  11.732  0.1311 -0.0840 -0.0235
29043W        W47247  10.806  10.729  11.330  0.0539  0.1039  0.0593
29044W        W47248   5.686   7.375  11.273 -0.0063  0.2937 -0.4325
29045W        W47249  18.530   6.121  14.319 -0.0831  0.1791 -0.1614
29046W        W47250   6.147   3.614  14.404  0.3439 -0.1427  0.4841
29047W        W47251  13.826  16.784   2.135 -0.1133  0.1322 -0.2466
29048W        W47252   5.881  11.263   3.258  0.2359 -0.1953  0.2940
29049W        W47253  15.403  10.681  11.731 -0.2221 -0.3398  0.1742
29050W        W47254   4.280   6.053  11.409 -0.4292 -0.1510 -0.2651
29051W        W47255  15.587   5.002  14.583  0.1164  0.1882  0.1676
29052W        W47256  18.888   7.064   0.529  0.2646 -0.1317  0.2262
29053W        W47257  15.880   2.337   3.878  0.1926 -0.1633 -0.0985
29054W        W47258  12.523   3.950   2.473  0.2387  0.1848 -0.2045
29055W        W47259   6.080  11.978  14.207 -0.0932  0.3008  0.1245
29056W        W47260   5.155  15.976  14.019 -0.0106  0.0645  0.0825
29057W        W47261  11.151  16.916   0.092  0.1013  0.0132 -0.2504
29058W        W47262  17.195  16.916   0.873  0.2484 -0.2633  0.1196
29059W        W47263   6.080   3.814  13.962 -0.1042  0.1169 -0.1786
29060W        W47264   0.228  13.519  14.565  0.2175 -0.3356  0.0155
29061W        W47265  10.273   4.214   0.564 -0.2337  0.5103  0.0367
29062W        W47266  11.258   8.705  13.406 -0.2756  0.0194  0.0580
29063W        W47267   6.934  13.674  11.409  0.0212 -0.0424  0.0745
29064W        W47268  18.089   2.386   9.709 -0.1130 -0.1841  0.0550
29065W        W47269   4.209  12.901  14.468 -0.2552 -0.1531  0.0263
29066W        W47270   3.118  16.610  12.184 -0.0747  0.2507  0.0201
29067W        W47271   9.870   9.188  14.593 -0.1864 -0.2072  0.3158
29068W        W47272  11.084   1.225   3.880 -0.2055  0.0768 -0.0721
29069W        W47273  12.913  18.398  13.644 -0.0304 -0.0835 -0.0124
29070W        W47274  16.144   0.844  14.260  0.0996 -0.0823  0.2203
29071W        W47275   0.304   0.319  13.270 -0.2363  0.1473  0.3617
29072W        W47276  15.951   1.298   3.275  0.1776  0.2209  0.0599
29073W        W47277   9.645  10.624   2.364 -0.1002 -0.1384 -0.0363
29074W        W47278  13.315   2.483   2.936 -0.0023  0.0966  0.2608
29075W        W47279   0.616  12.674  10.046 -0.1292  0.0725  0.5469
29076W        W47280  17.617  14.118   2.157 -0.0129 -0.2075  0.2775
29077W        W47281   3.699  18.109   1.477 -0.1917  0.2612  0.0614
29078W        W47282   7.459   0.260  14.870  0.1185  0.1175  0.0457
29079W        W47283   3.605   8.048   2.970  0.0641 -0.0744 -0.1088
29080W        W47284   4.907   8.097   3.618  0.0618 -0.0496  0.2706
29081W        W47285  12.774   3.833   4.814  0.2775 -0.2252  0.3600
29082W        W47286  13.449  14.619   0.343 -0.0177 -0.0485  0.1659
29083W        W47287  15.966   9.021   3.050 -0.4370  0.1309  0.0412
29084W        W47288  10.150  18.842   2.376 -0.0399 -0.0574 -0.1916
29085W        W47289  12.090  14.783  14.150  0.0137 -0.1820 -0.0210
29086W        W47290   5.567   9.361   4.917  0.3701  0.2082 -0.1849
29087W        W47291   3.885  12.514  14.642  0.2302  0.0135  0.0990
29088W        W47292   6.470   3.822   1.209 -0.0005 -0.0472  0.0378
29089W        W47293  11.825  12.900  11.917  0.0054  0.4215  0.0269
29090W        W47294  11.302   6.210   1.845 -0.1439  0.1486 -0.1876
29091W        W47295  10.420  10.864   0.168  0.3925  0.0191  0.1046
29092W        W47296   9.541  12.326  13.777  0.0108  0.0367 -0.0536
29093W        W47297   9.569  17.171   3.566  0.1267  0.0739 -0.0683
29094W        W47298   3.061   5.494  13.539  0.0837  0.2795  0.2106
29095W        W47299  15.882   2.743  12.517  0.0447 -0.2045 -0.0947
29096W        W47300  15.634  17.081   3.050 -0.1235 -0.4361  0.0298
29097W        W47301  10.231  15.710  14.624 -0.2678 -0.1441  0.1408
29098W        W47302   2.486   4.353   1.893  0.1847  0.0995  0.0873
29099W        W47303   5.836   5.749   3.270  0.2115  0.2297 -0.2509
29100W        W47304  13.146   8.437   4.736 -0.0536 -0.1909 -0.1221
29101W        W47305  17.589   9.796   0.144 -0.2283 -0.2954 -0.0507
29102W        W47306  18.385  15.881  14.009  0.1904  0.0438  0.1571
29103W        W47307   6.773   3.433  10.041  0.1623  0.2948  0.1771
29104W        W47308   5.707  16.266   0.238 -0.2037 -0.1349  0.0224
29105W        W47309   2.857   1.270   1.947  0.0267 -0.1307 -0.0681
29106W        W47310   1.597  18.054   2.737 -0.0479 -0.2608  0.2373
29107W        W47311   5.203  14.421   2.364 -0.0848  0.2715  0.0706
29108W        W47312   6.746  17.286   4.886  0.2356  0.1762  0.1804
29109W        W47313   7.383  11.108   4.090 -0.4421 -0.0310  0.0314
29110W        W47314  10.321  16.802   3.855 -0.0530 -0.1944  0.3359
29111W        W47315  13.433   1.375   1.287 -0.1663  0.1782  0.1000
29112W        W47316   1.179   5.439   1.591 -0.0549  0.1669  0.2422
29113W        W47317  13.459  12.680  14.003 -0.3624 -0.0501  0.2183
29114W        W47318   4.049   0.440   3.315 -0.2826 -0.0208  0.1966
29115W        W47319   5.833  15.265   2.827  0.0172 -0.3536 -0.1278
29116W        W47320   7.979   5.764   4.197 -0.0383 -0.1254  0.1037
29117W        W47321   9.906   7.674  13.547  0.1002 -0.2407 -0.0899
29118W        W47322  15.546   0.597  11.934  0.3251  0.2365  0.0138
29119W        W47323  13.839  16.063   9.464 -0.0788  0.4521  0.0986
29120W        W47324  17.766  13.969  11.202 -0.0019 -0.0934 -0.5434
29121W        W47325  13.884  12.590   2.647 -0.0939 -0.0565 -0.4033
29122W        W47326  11.354   2.209   1.282 -0.1743  0.2863  0.0716
29123W        W47327  14.308   5.382  11.747  0.0048 -0.2247  0.1896
29124W        W47328  17.079   9.799   5.203 -0.1671 -0.0570  0.0927
29125W        W47329  18.815   8.483   0.050  0.3428 -0.1657  0.2521
29126W        W47330   8.022   3.717   2.283 -0.0191 -0.0937  0.0077
29127W        W47331   6.575   2.824  13.371  0.3663 -0.3007 -0.0973
29128W        W47332   6.027   2.148   2.455  0.2263  0.1394  0.0839
29129W        W47333   6.065   0.574   2.328  0.3858  0.1449 -0.0021
29130W        W47334  16.056   6.481  14.540  0.3215  0.0667 -0.0456
29131W        W47335   5.051  13.515  12.556  0.1927  0.0652  0.1769
29132W        W47336   0.313   5.385  12.153 -0.3594 -0.2207  0.0328
29133W        W47337   2.448   6.728  11.319 -0.0257  0.4456  0.1355
29134W        W47338   8.753  10.361  11.504  0.0545 -0.1732 -0.1602
29135W        W47339   4.773   1.763   1.766  0.4039 -0.1603  0.2839
29136W        W47340   2.220  15.434   1.699 -0.2073 -0.2038 -0.0211
29137W        W47341   9.274  11.865  14.267 -0.2405 -0.3397 -0.0158
29138W        W47342  14.217   0.991  12.324  0.1397  0.1354 -0.0335
29139W        W47343  12.723   0.803   0.447 -0.0532 -0.0238  0.1228
29140W        W47344  12.201  12.210   5.335 -0.3186 -0.1157 -0.3878
29141W        W47345  15.480   1.279   3.620 -0.2626  0.0681  0.2917
29142W        W47346   6.044   3.170  11.327  0.0093  0.2448  0.1512
29143W        W47347  15.843   0.018   3.531 -0.0705  0.1654 -0.0068
29144W        W47348  12.503   3.951   3.935 -0.0133 -0.2311 -0.3794
29145W        W47349  14.528  14.194  14.784 -0.1085  0.2258  0.0538
29146W        W47350   6.681   3.935  11.451  0.0952 -0.3736  0.2979
29147W        W47351   2.430   5.583   3.950  0.2931  0.2266  0.2743
29148W        W47352   2.186  15.503   2.994 -0.0129  0.1477  0.1912
29149W        W47353   7.134  11.733  14.400 -0.2108 -0.1755  0.1141
29150W        W47354   3.195  10.861  13.592 -0.0800  0.3814 -0.3250
29151W        W47355  17.377   2.172  14.181  0.0605  0.1304 -0.0673
29152W        W47356   3.920  14.385   3.965 -0.0013  0.0729 -0.0376
29153W        W47357   5.371  16.198   2.780  0.4618  0.0766  0.1330
29154W        W47358  11.853   1.569  11.107 -0.0213 -0.1433 -0.1243
29155W        W47359  14.278  10.078  11.968 -0.0197 -0.2048  0.3102
29156W        W47360   0.860  15.866  14.680 -0.1468 -0.2413  0.0983
29157W        W47361   1.359   8.040   3.389  0.3393  0.0612  0.0560
29158W        W47362   5.466  13.708  12.862  0.0209  0.4531  0.1046
29159W        W47363   0.614   3.200   2.877 -0.0342 -0.1838 -0.2395
29160W        W47364  17.656  15.302   2.413  0.3026 -0.2503 -0.0632
29161W        W47365   7.801   4.084  11.268 -0.1354  0.0858  0.1254
29162W        W47366   3.759  17.279  13.585  0.0624 -0.2310 -0.0247
29163W        W47367  10.368   0.306   2.773 -0.1174  0.0069  0.1217
29164W        W47368  18.167   5.658   2.644 -0.3431  0.2480 -0.1409
29165W        W47369  15.547  17.906  14.330  0.3078  0.2682 -0.1029
29166W        W47370  18.440  10.647   9.677  0.2287 -0.0392 -0.0988
29167W        W47371  18.493  12.954   2.826  0.1159  0.0987  0.5791
29168W        W47372   7.616   2.295   3.671 -0.3644 -0.4358  0.0187
29169W        W47373   0.143  15.264  13.567  0.0254 -0.0141 -0.2185
29170W        W47374   5.016   2.449  13.160 -0.1081 -0.1236  0.1092
29171W        W47375  15.540   6.263   0.380 -0.3838  0.0614  0.2353
29172W        W47376  14.687  14.367  12.145  0.1421  0.1135 -0.1720
29173W        W47377  15.836  11.191  12.326 -0.2538  0.0580 -0.0668
29174W        W47378  18.869   6.894  12.317 -0.1997  0.3420 -0.2327
29175W        W47379  18.349   1.822  13.068  0.0010  0.0024  0.3624
29176W        W47380   0.207   6.318   3.891 -0.1960 -0.1575 -0.1495
29177W        W47381   7.249  12.545   0.496 -0.1093 -0.2663  0.0342
29178W        W47382   4.474  12.424   4.082  0.1453  0.1597 -0.1248
29179W        W47383   3.148   3.844  11.211 -0.0261  0.1679  0.0675
29180W        W47384   8.061  13.166  14.679 -0.2041 -0.1172  0.0874
29181W        W47385  10.476  12.576   2.165 -0.0124 -0.0862 -0.2165
29182W        W47386   5.164   0.102   1.153  0.4485 -0.2581  0.3706
29183W        W47387   9.263  13.617   2.367  0.0520 -0.0794  0.2731
29184W        W47388  15.041   9.076  14.734 -0.0717 -0.0457  0.2430
29185W        W47389   6.664   4.488   0.213  0.0762 -0.0336  0.0114
29186W        W47390   9.578  17.451  13.660  0.1135 -0.1508  0.0001
29187W        W47391  10.330  15.192  10.723 -0.0516  0.0127  0.1884
29188W        W47392   8.384  13.292   2.626 -0.1916 -0.0920  0.1640
29189W        W47393   4.889   5.884  12.399  0.3550  0.0002 -0.0550
29190W        W47394  13.657   1.730   2.145  0.0644  0.1895 -0.2622
29191W        W47395   4.508   5.911   3.530  0.1803  0.3742  0.0044
29192W        W47396   4.809   4.895  12.002  0.2393  0.1919  0.0458
29193W        W47397  13.308   9.089   3.281 -0.3481  0.1176 -0.2312
29194W        W47398  11.845  13.932   1.895  0.1647  0.2008 -0.1082
29195W        W47399  11.570  17.022  14.953 -0.1163  0.2349 -0.0369
29196W        W47400   1.789   7.207  14.423 -0.0742 -0.2803 -0.2101
29197W        W47401  14.181  14.417  13.853 -0.1761 -0.1875  0.1707
29198W        W47402   3.757   5.155  14.756 -0.2164  0.4047  0.0936
29199W        W47403   6.211  10.693  14.371 -0.1584  0.0649 -0.1618
29200W        W47404   1.102  14.918   5.173  0.0289 -0.1900  0.0361
29201W        W47405  16.244  10.833  14.463  0.1067  0.1309 -0.0244
29202W        W47406   1.380  11.499  12.542 -0.0436  0.0366 -0.0047
29203W        W47407   1.662  10.828   3.654  0.0764  0.1260  0.0534
29204W        W47408  13.959   5.143   1.219  0.3635 -0.2484  0.1512
29205W        W47409  12.188   0.912  10.945  0.0783  0.0959  0.1803
29206W        W47410  18.375   5.702   0.539  0.0167  0.2276 -0.2163
29207W        W47411  11.732  15.593   5.028 -0.0773 -0.0731  0.2563
29208W        W47412   2.499  14.062   3.916  0.3823 -0.2758 -0.0380
29209W        W47413  17.923   3.324   0.177  0.0070  0.1663 -0.1912
29210W        W47414  18.634   5.060  13.269  0.3599  0.1525 -0.1294
29211W        W47415  12.109  17.657   0.460  0.2019  0.0524  0.1045
29212W        W47416  10.158  17.165   0.296  0.4062  0.1572  0.1363
29213W        W47417   2.557   7.832   1.494 -0.1032 -0.0718  0.2268
29214W        W47418   5.371  17.962  14.550  0.0548  0.0812  0.0188
29215W        W47419  14.536  10.634   2.100  0.0946  0.3290 -0.1169
29216W        W47420  13.832   1.605  13.004 -0.0653  0.3902  0.0439
29217W        W47421  18.062   5.916   3.939 -0.0929 -0.0389  0.0204
29218W        W47422  16.645   8.425   1.236  0.2274 -0.0621 -0.0532
29219W        W47423   7.370   1.831   0.713 -0.1170  0.3167  0.1142
29220W        W47424   7.769   6.972  14.591 -0.1759 -0.0465 -0.0651
29221W        W47425   9.045   8.102  11.255  0.0925 -0.0078  0.6032
29222W        W47426  14.903   1.052   1.835 -0.1149 -0.2461 -0.2313
29223W        W47427   7.701   4.898  14.313 -0.1769 -0.2025 -0.2146
29224W        W47428  12.293  13.594  11.787 -0.2515 -0.1790  0.0446
29225W        W47429  14.658   9.652  11.127  0.2805  0.1747 -0.1099
29226W        W47430   8.610   2.738   1.351 -0.1515  0.1592 -0.2135
29227W        W47431   5.714  12.648   1.208  0.2445  0.0131  0.3741
29228W        W47432  11.512  14.262   1.696 -0.3175 -0.2041 -0.1979
29229W        W47433   6.784   6.514   4.325 -0.2065  0.2418 -0.1192
29230W        W47434   2.255  12.768   0.016  0.2543  0.1323  0.2450
29231W        W47435  15.321   4.416   1.323  0.1239  0.0795  0.4422
29232W        W47436  17.056  13.087  12.475 -0.1013 -0.2365 -0.2114
29233W        W47437  13.925   5.739  10.387  0.1637  0.1398 -0.0281
29234W        W47438   9.515  12.609   3.322 -0.0524 -0.0342 -0.0658
29235W        W47439   8.612   3.607   9.842 -0.1662  0.0994 -0.1479
29236W        W47440   3.639   5.488  13.578  0.0416  0.1131  0.0199
29237W        W47441   6.806   1.119  13.098  0.0654 -0.1026 -0.1498
29238W        W47442  15.739  11.416  12.794  0.3123  0.0619 -0.0633
29239W        W47443   4.724   7.665   1.457  0.0858 -0.0659 -0.0353
29240W        W47444   2.367  17.071   9.906  0.1891  0.4060  0.0998
29241W        W47445  11.939   1.245  14.162  0.3599 -0.2521 -0.4141
29242W        W47446  11.500   4.757   0.912 -0.0934 -0.2409  0.0204
29243W        W47447   9.926   6.516   0.660  0.2511 -0.1728 -0.6023
29244W        W47448  18.657  16.212  14.906 -0.0797  0.1051 -0.1258
29245W        W47449   0.903   5.383   0.316  0.2740  0.3479  0.1004
29246W        W47450   9.487  15.623  10.701 -0.0438 -0.4208  0.5611
29247W        W47451   8.929   2.581  14.268  0.0589 -0.0835 -0.1673
29248W        W47452  12.786   0.459   3.417 -0.1906  0.1671 -0.0559
29249W        W47453  13.889  12.616   3.157 -0.1785  0.1325 -0.2321
29250W        W47454   4.488  18.196   1.013  0.1280  0.0483 -0.1650
29251W        W47455  15.172  15.835  12.784 -0.0013  0.0701  0.0716
29252W        W47456  13.178  18.105  11.343  0.0189  0.1413  0.1582
29253W        W47457   1.421  12.409  14.067  0.1320  0.1124 -0.3318
29254W        W47458  15.970   6.291  12.728 -0.4420 -0.2011  0.1133
29255W        W47459  11.555  11.934   0.018 -0.1568  0.1921 -0.1778
29256W        W47460  14.003  17.572   2.828 -0.0154 -0.2101 -0.1147
29257W        W47461  10.645   1.220  14.015  0.0882  0.2136 -0.2648
29258W        W47462   5.029  17.905   3.641 -0.5156  0.1643  0.1128
29259W        W47463  16.127  11.614   0.321 -0.1529 -0.0147  0.0499
29260W        W47464   8.206   5.402   1.132 -0.0324  0.1109  0.0840
29261W        W47465  14.188   1.853  10.784 -0.0416  0.1558 -0.1700
29262W        W47466  14.625  17.286  11.779  0.2540 -0.3967 -0.1459
29263W        W47467  12.913   8.220  14.968 -0.2462 -0.1270  0.2393
29264W        W47468   4.660  12.961  14.957  0.0981  0.0075  0.1013
29265W        W47469  13.387   7.321   2.185 -0.0443 -0.1820  0.0243
29266W        W47470  13.551  15.349  10.234 -0.0622 -0.2084 -0.0167
29267W        W47471   3.478  18.405  11.850  0.0744  0.0848  0.1937
29268W        W47472  16.950  13.793  11.772 -0.0276  0.2118  0.1225
29269W        W47473  14.158   4.964   3.463 -0.0586  0.2978 -0.1883
29270W        W47474   7.377  10.334   0.652  0.0840  0.1356  0.2919
29271W        W47475   0.363   5.399   1.461  0.1509  0.2772 -0.2213
29272W        W47476   3.921  14.607   4.411 -0.1418  0.0501  0.1509
29273W        W47477  17.805  17.756   0.875  0.0686  0.1411 -0.1252
29274W        W47478   0.806   2.178   3.099 -0.1163  0.2558  0.0702
29275W        W47479  18.330   9.955   1.574  0.0781  0.1460  0.2244
29276W        W47480   8.081   9.295   9.817  0.1624  0.0283 -0.2034
29277W        W47481   3.462   4.884   1.899 -0.3822  0.2085  0.0907
29278W        W47482  10.873  15.582   0.246 -0.0083 -0.0110 -0.3012
29279W        W47483   6.011  16.244   9.783  0.0960  0.0374  0.4067
29280W        W47484  11.665  14.080   2.424  0.1189 -0.0363 -0.2151
29281W        W47485  18.772   5.361   0.567 -0.3747  0.0515  0.1467
29282W        W47486  17.491  13.875   1.717  0.1356 -0.0328  0.2961
29283W        W47487  11.739  10.653  14.531  0.1474  0.1087 -0.3148
29284W        W47488  15.821  12.672   1.068  0.0440  0.0841 -0.0882
29285W        W47489  13.224   9.152   0.450  0.1646 -0.1893 -0.0837
29286W        W47490   9.223  10.506  11.398 -0.0062 -0.3371 -0.1019
29287W        W47491  14.008   3.454   3.998 -0.0081 -0.2164  0.0838
29288W        W47492  14.999  12.023  12.001 -0.0376  0.0670  0.0824
29289W        W47493   4.753  13.437   2.671 -0.0249 -0.2416 -0.1039
29290W        W47494  12.095  17.460   3.530  0.0447  0.3484  0.0670
29291W        W47495  18.609   5.512   3.955 -0.1421  0.0894  0.1711
29292W        W47496  13.003  17.010  12.732  0.0005  0.0464  0.0651
29293W        W47497   3.714  15.283  14.834 -0.0106  0.0883 -0.1170
29294W        W47498   8.517  13.789   2.531 -0.0237  0.2261  0.2640
29295W        W47499   0.436   8.044   0.826 -0.0647 -0.2820  0.2695
29296W        W47500   4.714  17.358   0.771 -0.0544 -0.1974  0.1538
29297W        W47501   4.762   1.081  14.919  0.0339  0.0761  0.1040
29298W        W47502  14.089   0.063   3.179 -0.4858 -0.0687 -0.0288
29299W        W47503   8.849   0.973   2.114  0.0231  0.0212 -0.0895
29300W        W47504  16.530   2.331  11.287  0.2446 -0.1417  0.2589
29301W        W47505   0.838  14.788   0.448  0.1827  0.0175 -0.4367
29302W        W47506  18.546  18.192   3.135  0.5007 -0.1494  0.0231
29303W        W47507   6.906  17.253   3.091  0.3678  0.1784 -0.2432
29304W        W47508   5.340  17.323   5.360 -0.0499  0.2294  0.2523
29305W        W47509   7.385   2.799  10.807 -0.0816 -0.1693  0.0878
29306W        W47510  16.457   1.214   3.049  0.4059 -0.3098  0.2522
29307W        W47511   7.036   9.020   2.625  0.0948  0.0474 -0.3363
29308W        W47512   6.357   8.685   2.730  0.1998 -0.0444 -0.3202
29309W        W47513  18.176  13.710  13.705 -0.2770  0.1917  0.2544
29310W        W47514  13.710   7.063  13.575 -0.1248  0.1753  0.1525
29311W        W47515   8.516  13.058  11.365  0.0326 -0.1486 -0.3420
29312W        W47516  15.930  13.877  15.029 -0.3129 -0.0756 -0.4414
29313W        W47517  16.264  15.942   0.714 -0.2966 -0.0209  0.0236
29314W        W47518   8.986   2.639   2.215 -0.0618  0.0954  0.1377
29315W        W47519   3.294  18.323   4.543  0.4108 -0.1561  0.0891
29316W        W47520   9.674   6.686  14.578 -0.1222 -0.1227 -0.1497
29317W        W47521  11.603   9.103  10.570  0.1487  0.0049 -0.1194
29318W        W47522  12.542  12.339  14.188 -0.0527 -0.1172 -0.2516
29319W        W47523  15.530  12.329  14.665  0.0502  0.1606  0.1215
29320W        W47524   6.751   3.711  12.390  0.1265  0.1204  0.0398
29321W        W47525  11.738   9.200   4.395 -0.0332  0.0921 -0.0805
29322W        W47526  15.855  12.931  14.294  0.2586 -0.0800 -0.3173
29323W        W47527  16.064   9.859   4.047  0.1318  0.0149 -0.1122
29324W        W47528  14.771   7.144   2.034 -0.1123  0.1395  0.0407
29325W        W47529   4.303   3.444  13.949 -0.2017 -0.0178  0.0802
29326W        W47530  10.534  17.944   2.778  0.2237  0.0115  0.0649
29327W        W47531  11.797  10.853   3.294  0.0508 -0.1360 -0.1114
29328W        W47532   9.240   1.593  13.487  0.2861 -0.1189 -0.4354
29329W        W47533  17.159   8.416   2.623  0.4768 -0.0085 -0.1822
29330W        W47534  15.690   8.505  13.053  0.0241  0.4070  0.0390
29331W        W47535  15.461   5.155   3.436 -0.4042  0.3368 -0.0088
29332W        W47536   6.785   1.309   3.667  0.1383 -0.3206 -0.1033
29333W        W47537   7.205   5.262   0.307 -0.1686 -0.2660  0.0884
29334W        W47538   7.815   1.419   4.377 -0.0481  0.1169  0.1015
29335W        W47539  10.172  13.177   1.072 -0.3050  0.0861  0.3084
29336W        W47540  17.203  15.461   9.395 -0.1130 -0.3292 -0.3110
29337W        W47541   1.009  12.845   0.420  0.1560 -0.0484  0.0909
29338W        W47542   0.915   9.663   0.138 -0.0563 -0.2187  0.0101
29339W        W47543  12.244   3.604   3.732 -0.0278 -0.1492 -0.0935
29340W        W47544  16.767   1.320  12.365  0.2012 -0.0003  0.1361
29341W        W47545   5.767  17.195   2.784 -0.2214 -0.1730  0.1019
29342W        W47546  15.988   1.612  12.779  0.2774  0.5969  0.1322
29343W        W47547   4.211  11.545   0.325 -0.0196  0.3252  0.0058
29344W        W47548  14.166   9.826   4.181 -0.1081  0.2416 -0.1165
29345W        W47549  14.339   6.699   0.656  0.0211  0.1940 -0.0908
29346W        W47550  13.993  12.935  14.030  0.0294 -0.1881  0.1970
29347W        W47551   9.773   8.588  13.290 -0.0616  0.0046  0.2272
29348W        W47552  13.786   1.002  11.054 -0.0594  0.0432  0.0526
29349W        W47553  14.342   7.792   3.281  0.0138  0.0534 -0.1046
29350W        W47554  13.918  17.561  14.925 -0.1290  0.0372 -0.0376
29351W        W47555  10.882   4.200   3.928 -0.0543  0.3628  0.0078
29352W        W47556  11.509  12.032   1.027 -0.2164  0.0781  0.1713
29353W        W47557  13.700  18.358  13.246  0.1151  0.2483 -0.1637
29354W        W47558   7.488  11.745   0.705 -0.0787  0.1006 -0.0336
29355W        W47559   4.058  10.856   2.162  0.0130 -0.0479  0.2007
29356W        W47560  12.878   5.239   4.129  0.0846  0.0209 -0.2827
29357W        W47561  18.419   1.992  13.545  0.0216 -0.2344  0.1631
29358W        W47562  14.335   4.323   2.977  0.1748 -0.7036 -0.0487
29359W        W47563  12.533  15.062   3.764  0.1371 -0.0260 -0.2388
29360W        W47564  12.231  11.550   1.079  0.0199 -0.3475  0.0470
29361W        W47565  16.514   4.136   3.550 -0.1144 -0.2065 -0.2912
29362W        W47566   5.376   6.718   2.694  0.0561 -0.3078 -0.5124
29363W        W47567   5.660   7.868   0.284 -0.2499 -0.2386 -0.0638
29364W        W47568   1.763   6.938   3.344  0.0865  0.4785  0.0004
29365W        W47569  11.129   0.838  11.609 -0.4312 -0.0293 -0.0685
29366W        W47570  12.269   0.322   4.178  0.3124  0.0433 -0.0217
29367W        W47571   4.480   3.992   2.113  0.3082  0.2177  0.3254
29368W        W47572   6.829   1.765   4.859  0.2278 -0.2126  0.1807
29369W        W47573   7.282  11.687   3.480  0.2393  0.0814 -0.3487
29370W        W47574   6.352   0.469   1.822  0.1810 -0.0878 -0.1178
29371W        W47575  16.036  14.486   0.754 -0.0555 -0.4113 -0.2461
29372W        W47576   1.138   8.156   2.361 -0.1378 -0.0720  0.4751
29373W        W47577   9.211   0.930  14.605 -0.1231 -0.4049 -0.1539
29374W        W47578  17.469   3.707   0.007 -0.2398  0.2705 -0.0330
29375W        W47579  13.070  14.431  13.861  0.1913  0.1032  0.0984
29376W        W47580   9.126   2.821   3.629 -0.1488  0.0926  0.1830
29377W        W47581  18.682   3.028   4.176 -0.0468 -0.0914  0.0504
29378W        W47582   8.654   8.765  14.584  0.0740  0.0600 -0.0266
29379W        W47583   4.473   4.341   1.031 -0.1153  0.4512  0.0414
29380W        W47584   1.197  14.572  12.405 -0.0301 -0.3473 -0.1321
29381W        W47585  16.585  16.987   5.476  0.2991  0.1824 -0.0125
29382W        W47586  12.802   7.571  10.718  0.0306  0.0016  0.2931
29383W        W47587  13.767  15.376   3.915  0.0646 -0.1144  0.0369
29384W        W47588  11.810   8.473   0.296  0.0171  0.0691  0.0787
29385W        W47589   3.688   3.183   0.720  0.2546 -0.1644 -0.0770
29386W        W47590  16.862  17.397  14.480 -0.0447 -0.0358  0.1083
29387W        W47591   4.591   8.582  12.587 -0.2137  0.0898 -0.0887
29388W        W47592   6.903  14.925   1.889  0.0260 -0.0453  0.1622
29389W        W47593   9.928   2.497   3.806  0.1121 -0.1714 -0.0102
29390W        W47594   7.274  13.397  13.603  0.2182  0.3525  0.2095
29391W        W47595   4.708   6.734   3.116 -0.0337  0.4335 -0.0533
29392W        W47596   0.919  18.711  11.051 -0.3248  0.4008 -0.2541
29393W        W47597  14.281  10.334  12.458  0.0402 -0.2897  0.0658
29394W        W47598   2.618  11.217  13.196 -0.0662  0.1573  0.0358
29395W        W47599   5.341   5.756   3.312 -0.3792 -0.0101  0.2063
29396W        W47600  10.610   9.240   2.842  0.1208 -0.1922 -0.1644
29397W        W47601  11.945  16.332  13.525  0.2328  0.0703  0.1424
29398W        W47602  14.678   6.723  12.851 -0.0123 -0.0376  0.1226
29399W        W47603  14.433   3.378   2.237  0.0543 -0.1278 -0.0176
29400W        W47604   7.541  11.131  12.768  0.1495  0.0493  0.1499
29401W        W47605  10.538   4.183   1.125 -0.0059  0.3331  0.0068
29402W        W47606  17.749   1.255   5.030 -0.1264  0.4898 -0.0682
29403W        W47607   8.814   1.836   3.344  0.0623  0.2287 -0.1210
29404W        W47608   8.565  11.981  11.686  0.0140 -0.3847 -0.0177
29405W        W47609  12.160  14.131  11.044  0.0911  0.2949 -0.2080
29406W        W47610  16.124   6.690   3.961  0.1054  0.1242  0.1074
29407W        W47611  14.711   9.435  14.475  0.0232 -0.2470  0.1266
29408W        W47612   0.994   2.883   2.198 -0.4013  0.1251  0.0155
29409W        W47613  12.982  10.975  11.363  0.3597  0.2458 -0.2868
29410W        W47614   2.059   4.077   1.824 -0.0797  0.2942  0.3401
29411W        W47615   4.897   9.803  11.790  0.1245 -0.0394 -0.1315
29412W        W47616   7.136  12.274   1.552  0.1177 -0.0445 -0.1785
29413W        W47617   4.743   6.902  14.045  0.0745  0.1262  0.2252
29414W        W47618   3.352   5.886  14.708 -0.2594  0.1673  0.0730
29415W        W47619  18.262  11.279   1.733 -0.0256  0.0479 -0.2806
29416W        W47620   0.664  12.399  11.718  0.0027  0.1143  0.1216
29417W        W47621   9.608   2.287  11.959 -0.0096  0.1851  0.0523
29418W        W47622   5.819   0.314   0.320  0.2920  0.1185  0.1587
29419W        W47623   5.752   3.682   3.889 -0.3000 -0.0068  0.1082
29420W        W47624   3.685  18.384   1.884  0.1231 -0.1382  0.0129
29421W        W47625  17.854  10.177  14.942  0.0532  0.2270 -0.1471
29422W        W47626  18.229   9.956   0.898 -0.0792 -0.1198 -0.1598
29423W        W47627   6.046   7.996  14.518 -0.4142  0.0144 -0.1605
29424W        W47628  16.909  17.523  13.621 -0.1153  0.1722  0.0949
29425W        W47629  10.546   6.403   3.356  0.4808 -0.5697 -0.1574
29426W        W47630   4.456   6.800  12.693 -0.4024 -0.0403  0.0280
29427W        W47631  18.255  12.751   2.436 -0.0888 -0.0406 -0.1751
29428W        W47632   3.826  14.499  14.886  0.1488 -0.1688  0.2377
29429W        W47633  15.890   4.923   3.648 -0.1535 -0.2588 -0.4482
29430W        W47634  15.986  13.551   0.497 -0.0776 -0.1152  0.3399
29431W        W47635   2.650  10.716   5.478  0.1267 -0.2889  0.1639
29432W        W47636   1.600   5.289   0.369  0.0962  0.1155 -0.2420
29433W        W47637  15.171   8.924  11.843 -0.2462  0.0444 -0.1398
29434W        W47638  12.964  12.340   1.939 -0.0728  0.1098 -0.5695
29435W        W47639  11.062  13.538   3.085 -0.0617 -0.2978 -0.0800
29436W        W47640  12.625   3.327  14.106  0.1713  0.3433  0.1595
29437W        W47641   5.673   8.712   0.036  0.0858 -0.2306 -0.0972
29438W        W47642  14.865  12.625  14.108  0.0482 -0.3448  0.0498
29439W        W47643  16.733   8.211   4.416  0.4966 -0.2682  0.5044
29440W        W47644   7.274   2.473  12.847  0.0176  0.2537 -0.1349
29441W        W47645   9.736  12.499   2.643 -0.0472 -0.1082 -0.0739
29442W        W47646  11.701   9.887   2.547 -0.3998 -0.1362 -0.1638
29443W        W47647  15.736  17.726   0.999  0.1102  0.2965 -0.1620
29444W        W47648   3.780   9.578   4.045  0.2547  0.0154 -0.2546
29445W        W47649  11.259   6.354  13.930  0.1869  0.3322 -0.1929
29446W        W47650  15.797  13.719  14.637  0.1808 -0.1441 -0.2708
29447W        W47651  15.053   4.170   4.141 -0.1288 -0.1000 -0.0259
29448W        W47652  12.764   3.982   4.357 -0.0203 -0.2603 -0.0794
29449W        W47653  15.609   9.516  13.373 -0.1894  0.0120 -0.0995
29450W        W47654   7.243  15.546  11.014  0.0928  0.1517  0.0210
29451W        W47655  12.622   7.355   1.589  0.0815 -0.2073  0.0808
29452W        W47656  15.617  17.177   2.489 -0.5278  0.0102  0.1276
29453W        W47657  13.482   2.243  12.323  0.0757  0.1559 -0.1698
29454W        W47658   1.953   9.461   1.007 -0.2118  0.2317  0.1745
29455W        W47659  12.880   2.219   0.372 -0.1435  0.0744  0.2551
29456W        W47660   1.706  18.725  13.542 -0.0529  0.3423 -0.1377
29457W        W47661  13.023   7.401   3.098  0.4062  0.1125  0.0266
29458W        W47662  16.436   3.769  13.103  0.1925 -0.0065  0.1626
29459W        W47663  16.155  11.396  13.602  0.2278  0.4822 -0.3600
29460W        W47664  12.017   3.727   0.255  0.0253  0.0785  0.2122
29461W        W47665   3.815   1.521  12.590  0.1471 -0.2721 -0.0888
29462W        W47666  14.073  16.216  11.286 -0.1165  0.2544  0.1878
29463W        W47667   5.154   9.252   3.416  0.2181  0.2007  0.1637
29464W        W47668   5.313   8.260   4.517  0.0172  0.1104  0.2032
29465W        W47669   7.441  10.453  12.105  0.2351  0.1571  0.3113
29466W        W47670  10.287  13.721   4.072 -0.1931  0.0183  0.1720
29467W        W47671  14.200  18.580  10.475 -0.1097  0.0503 -0.0336
29468W        W47672  12.611  14.851  11.503  0.0370  0.3090  0.2336
29469W        W47673   4.290  11.067   0.205 -0.1879 -0.2581 -0.0007
29470W        W47674  14.205  12.610  13.175  0.0429  0.0367 -0.2026
29471W        W47675   1.360  18.756   1.782  0.2666  0.0503  0.0466
29472W        W47676  12.070   1.866  14.952 -0.0524 -0.0799 -0.1149
29473W        W47677   6.643   2.529  10.922  0.2059  0.2302 -0.0186
29474W        W47678  16.902  16.781  11.997 -0.2269  0.1373  0.2142
29475W        W47679  18.735  13.183   2.313  0.2003 -0.3463 -0.0491
29476W        W47680   4.349   9.224  13.248  0.0193 -0.2367 -0.1096
29477W        W47681   4.412  18.502  12.418  0.0580 -0.2138  0.0651
29478W        W47682   7.534   4.451  11.071  0.3350  0.3020 -0.1211
29479W        W47683  16.459  13.918   3.043 -0.5613 -0.1327  0.1639
29480W        W47684  14.089   9.797   3.169  0.2321  0.1472  0.0177
29481W        W47685  12.687  14.372   4.568  0.1084  0.0592  0.2472
29482W        W47686   8.558   0.185  14.433  0.0022  0.2439  0.0581
29483W        W47687   3.002   8.738  14.599  0.0665  0.1896 -0.1872
29484W        W47688   5.463  10.285   0.689  0.0786 -0.1809 -0.1294
29485W        W47689   6.749  11.140   2.298  0.0839  0.2094 -0.3534
29486W        W47690  17.106  18.584   2.290 -0.3153  0.2039 -0.1001
29487W        W47691   0.249   8.267  14.927  0.0215  0.3607  0.1089
29488W        W47692   0.460  18.606   2.674  0.0242 -0.1308  0.0945
29489W        W47693  15.225  11.189  11.742  0.0861 -0.0977  0.1653
29490W        W47694   9.495   1.256  12.380  0.0566 -0.0909 -0.0182
29491W        W47695   4.360   7.747   2.581  0.1862 -0.1220 -0.1940
29492W        W47696   4.388   7.300   0.726  0.0660 -0.1849  0.2530
29493W        W47697   8.685   0.004   4.867  0.0912  0.2397  0.1598
29494W        W47698   5.375  10.363  14.209  0.0438 -0.2831  0.1361
29495W        W47699  13.637   5.160   3.651 -0.3810  0.0776  0.0528
29496W        W47700   9.550  12.197  12.036  0.0309 -0.1816  0.0570
29497W        W47701   3.380   3.690   3.491  0.2819  0.1733  0.2349
29498W        W47702   3.099   8.053   2.806 -0.0777 -0.0977  0.0420
29499W        W47703   6.110   4.134   1.500  0.0197  0.1404 -0.3661
29500W        W47704  14.529   6.790   2.242 -0.2625 -0.2343 -0.1099
29501W        W47705   6.417  13.746  13.239 -0.0645  0.3730 -0.2448
29502W        W47706   7.663  16.523  14.998 -0.0884  0.0252  0.2262
29503W        W47707   1.775   4.317  11.782  0.0975 -0.2400  0.0025
29504W        W47708   6.230  18.084   0.820  0.2141 -0.0848 -0.1995
29505ION     NA47709   1.346  11.819   4.981 -0.1488 -0.0665 -0.1434
29506ION     NA47710  12.406   9.404   0.998  0.1547  0.1078  0.1984
29507ION     NA47711  13.091  11.947   5.423  0.2143  0.0484  0.1727
29508ION     NA47712   1.421   0.403   9.990 -0.0082  0.1059  0.0135
29509ION     NA47713  10.962  13.600   1.617  0.0343 -0.1860 -0.1480
29510ION     NA47714  13.917   8.736   5.260 -0.1488 -0.0503 -0.1963
29511ION     NA47715  15.066   3.544  14.945 -0.0238  0.1709 -0.3297
29512ION     NA47716   3.598   3.294   4.926 -0.2389  0.3528 -0.0294
29513ION     NA47717   7.238  15.576  10.041  0.2204  0.1415  0.0232
29514ION     NA47718  11.373  17.463   9.652  0.1277  0.3526 -0.0552
29515ION     NA47719   6.677   3.378   1.357 -0.3740 -0.2370  0.0132
29516ION     NA47720  12.327   5.599   9.534 -0.2655 -0.3017 -0.1291
29517ION     NA47721   6.834   6.361   9.721 -0.3137 -0.0454 -0.1770
29518ION     NA47722  12.917  12.873   5.138 -0.4489  0.0351  0.1791
29519ION     NA47723   5.232   0.951   1.495  0.4018  0.0184  0.0077
29520ION     NA47724   6.578   9.352  12.475 -0.4194  0.1072  0.0205
29521ION     NA47725   8.589  14.781   4.884 -0.0052 -0.0395  0.1571
29522ION     NA47726   1.434   0.717  14.887 -0.2489  0.0880  0.4597
29523ION     NA47727   5.225  17.266   4.353  0.2940 -0.0057 -0.1744
29524ION     NA47728  17.971  12.387  11.084 -0.1340 -0.0349  0.0456
29525ION     NA47729  11.785   8.717   4.501  0.1705  0.4159 -0.0588
29526ION     NA47730   0.861   3.801   5.434 -0.0134  0.1915 -0.3538
29527ION     NA47731   3.950  12.414   3.127  0.1358 -0.3844 -0.1735
29528ION     NA47732   8.399  17.103   5.538  0.2303 -0.0537 -0.0648
29529ION     NA47733   7.700   1.567   5.344 -0.0789 -0.1854  0.2134
29530ION     NA47734  11.606  14.269  10.041  0.0026  0.1684 -0.0717
29531ION     NA47735  16.271   4.745  12.866 -0.0635  0.0105  0.0605
29532ION     NA47736  15.008   5.537   3.417 -0.0806  0.0078 -0.1237
29533ION     NA47737  11.357  16.818   4.977  0.1873 -0.1245 -0.1494
29534ION     NA47738   5.402  13.145   5.207 -0.2309 -0.0514 -0.4766
29535ION     NA47739  11.445  16.132   4.280  0.3553  0.0815 -0.2092
29536ION     NA47740  17.643  18.341   9.639 -0.1612 -0.2956 -0.1381
29537ION     NA47741  13.859   5.311   5.047 -0.0963  0.0515  0.0138
29538ION     NA47742  17.140  15.496   4.550 -0.1498  0.0298  0.0298
29539ION     NA47743   5.494  10.512   0.006  0.3385  0.2268 -0.1895
29540ION     NA47744   9.163  10.088   4.177 -0.0766 -0.1465 -0.1075
29541ION     NA47745  13.654   2.044  13.072  0.0299  0.0401  0.0008
29542ION     NA47746  18.915   2.372  10.163 -0.0804  0.0402  0.0347
29543ION     NA47747  16.642  16.219   9.791  0.2284  0.0693  0.0309
29544ION     NA47748   7.171  12.041   9.967 -0.1609  0.3208  0.1730
29545ION     NA47749   8.127   0.759   5.188  0.0570 -0.0688 -0.0195
29546ION     NA47750  11.929  11.437  11.975  0.0117  0.0747 -0.0401
29547ION     NA47751  15.090  15.911   9.922  0.4167  0.0725 -0.1537
29548ION     NA47752  15.972  18.665   9.674 -0.1897  0.1202 -0.0570
29549ION     NA47753  10.433   7.314   5.426 -0.1600 -0.0466  0.4172
29550ION     NA47754  10.740   7.393  13.610 -0.0822  0.0185  0.2965
29551ION     NA47755   1.124   8.029  14.700 -0.2774  0.0510  0.3300
29552ION     NA47756  15.419   2.934   9.632 -0.1937 -0.1239 -0.2439
29553ION     NA47757   0.811  14.177   9.819  0.1074  0.1261 -0.0084
29554ION     NA47758   2.266   4.579   0.074  0.1466  0.0183 -0.1772
29555ION     NA47759  12.830  14.079   4.958  0.0830 -0.1483  0.1715
29556ION     NA47760  10.256  10.441   9.837  0.1091  0.0354  0.0127
29557ION     NA47761  14.188  12.897   5.047  0.2058 -0.0922 -0.1205
29558ION     NA47762  15.922  13.591   9.600 -0.2203  0.1233  0.1752
29559ION     NA47763  13.730  18.719   1.326  0.4329  0.0956 -0.1420
29560ION     NA47764  13.906   9.904   0.255  0.0664  0.1265 -0.0606
29561ION     NA47765   4.712  10.868  10.005  0.1016 -0.0880 -0.2446
29562ION     NA47766   5.818  17.467   1.701  0.3624  0.0504 -0.1674
29563ION     NA47767  17.960  12.067   9.942 -0.4088  0.1181  0.1778
29564ION     NA47768  13.833  16.546  10.528 -0.3492  0.0185 -0.2201
29565ION     NA47769   7.468   2.656   9.891  0.1788 -0.0366 -0.1138
29566ION     NA47770  14.401   4.132   5.009 -0.2091 -0.0279 -0.2135
29567ION     NA47771   0.707  17.849  14.982  0.0496 -0.1099 -0.0595
29568ION     NA47772  15.802   4.207  11.120 -0.0819  0.0276 -0.3670
29569ION     NA47773   0.579   1.715  10.120  0.0850 -0.2000  0.1320
29570ION     NA47774   4.654  12.036   1.332  0.0374 -0.2193  0.0191
29571ION     NA47775  13.196   8.103  12.315 -0.0820 -0.2929 -0.0730
29572ION     NA47776  14.887   6.485   5.428 -0.3834  0.0876 -0.1857
29573ION     NA47777  15.741   2.193   4.848 -0.1581  0.1616 -0.6798
29574ION     NA47778   9.259   2.028   9.867 -0.1927 -0.1761  0.2292
29575ION     NA47779  17.127  11.463   0.876  0.2819  0.3239 -0.1003
29576ION     NA47780   5.364   0.234   5.255  0.2265 -0.1801 -0.0538
29577ION     NA47781   1.561   5.767  10.343  0.0110  0.1554 -0.2152
29578ION     NA47782   6.267  14.297   4.310  0.2587 -0.3881  0.0841
29579ION     NA47783   6.777  10.400  13.878 -0.3555 -0.1457  0.1692
29580ION     NA47784  11.202   0.641   5.143 -0.0281  0.0930 -0.1041
29581ION     NA47785  12.939   8.484   9.762  0.2127 -0.1631 -0.0974
29582ION     NA47786  17.561  15.219   4.726  0.0502  0.1605  0.4134
29583ION     NA47787   3.699   0.432   5.818 -0.0717  0.0798 -0.0478
29584ION     NA47788  11.848   5.209   5.076  0.2004 -0.1073 -0.3683
29585ION     NA47789   7.198  14.945   4.478 -0.1887 -0.1026 -0.2534
29586ION     NA47790   2.823  18.420   5.683  0.3385 -0.0497 -0.1073
29587ION     NA47791  13.743   8.059   9.758  0.3500 -0.0473  0.1768
29588ION     NA47792  16.537  14.175  14.620 -0.0210 -0.0846  0.0544
29589ION     NA47793  14.226  12.097   9.974 -0.0741  0.0303 -0.2191
29590ION     NA47794   4.946   9.587   2.356  0.1826 -0.1227  0.0728
29591ION     NA47795  10.468   1.652  14.693 -0.0864 -0.1713  0.1634
29592ION     NA47796   7.018  11.863   5.390 -0.1211  0.3130 -0.0580
29593ION     NA47797   1.164  18.810   9.921 -0.0245  0.0253  0.1544
29594ION     NA47798   9.858  13.393   5.671 -0.1931 -0.0943 -0.0184
29595ION     NA47799  16.113   2.163   9.771 -0.2224  0.0377 -0.2891
29596ION     NA47800  11.353  14.319   4.646  0.3236 -0.0533  0.2632
29597ION     NA47801  12.699   4.815   9.848  0.3971  0.2061 -0.2493
29598ION     NA47802  10.319  14.928   0.581 -0.4237 -0.3747  0.1776
29599ION     NA47803   8.652  17.643   5.149 -0.1089  0.0585 -0.0321
29600ION     NA47804   5.552   3.935   0.930 -0.1725 -0.1145  0.0093
29601ION     NA47805  18.610  10.835  12.690  0.0443  0.1191  0.2216
29602ION     NA47806  14.917   6.513   1.966 -0.2773 -0.2164 -0.0692
29603ION     NA47807  14.359   5.421   1.025 -0.0360  0.1566 -0.2791
29604ION     NA47808  15.775  14.106   0.914 -0.2701 -0.0142 -0.1062
29605ION     NA47809   3.763  12.985  10.988 -0.0426  0.1177  0.1832
29606ION     NA47810   2.480  15.895   9.536 -0.2897  0.0921 -0.2796
29607ION     NA47811   3.331  13.802   9.620 -0.1826 -0.2588  0.0282
29608ION     NA47812   6.930  14.858  10.005  0.3144  0.1814 -0.1764
29609ION     NA47813   7.995  10.787  11.154 -0.0794 -0.0395 -0.1069
29610ION     NA47814  17.775  11.045  14.346 -0.3615 -0.2280  0.0895
29611ION     NA47815   0.204  18.048  12.744 -0.2671  0.1499 -0.2195
29612ION     NA47816  13.281   9.851  12.108  0.2206  0.1403 -0.2364
29613ION     NA47817  16.605   9.872   5.139  0.0983 -0.2750  0.2840
29614ION     NA47818   6.641  16.050   0.605 -0.0671 -0.0369  0.2425
29615ION     NA47819  17.694   6.518  10.245 -0.2195 -0.3098 -0.2267
29616ION     NA47820   1.038  13.609   9.862  0.2750  0.1965  0.0582
29617ION     NA47821  14.388  10.879   5.166 -0.0881  0.0048 -0.0055
29618ION     NA47822   4.282  11.686   9.947  0.2983 -0.2901 -0.0967
29619ION     NA47823   0.047   1.138   2.793 -0.0263  0.0058  0.2016
29620ION     NA47824  14.951  11.291   1.709  0.0941  0.0824 -0.0690
29621ION     NA47825  17.227  10.616   5.296  0.2903 -0.0153  0.1316
29622ION     NA47826   2.192  15.452   5.024  0.0125  0.3087 -0.0474
29623ION     NA47827   7.938   8.073   2.747  0.2179 -0.1400  0.2884
29624ION     NA47828  13.665  17.564   4.678  0.0996 -0.3753 -0.0711
29625ION     NA47829   9.106  10.807  10.110  0.0711 -0.0455 -0.1066
29626ION     NA47830   1.896  17.923   5.302  0.0669  0.2916 -0.1096
29627ION     NA47831   7.897  14.173   3.304  0.3070  0.0259  0.1496
29628ION     NA47832   9.660  12.622  10.207 -0.1344  0.2076 -0.1677
29629ION     NA47833   3.527  15.316   9.919 -0.2654  0.4212 -0.0677
29630ION     NA47834   8.017  10.283   4.994 -0.0989 -0.1179  0.0032
29631ION     NA47835   4.350  13.544  10.332  0.2998  0.0434  0.1555
29632ION     NA47836  14.842  14.993   5.072  0.0638 -0.0379  0.1413
29633ION     NA47837   2.324   8.914   1.864  0.0151 -0.4741  0.0965
29634ION     NA47838  16.512  17.268   4.996  0.0925 -0.0343 -0.1416
29635ION     NA47839  18.466  15.396  11.796 -0.2910  0.0523 -0.2048
29636ION     NA47840   0.514  13.931   4.923  0.2752 -0.1240  0.0552
29637ION     NA47841  13.914  10.524  13.348  0.2459  0.0163  0.1363
29638ION     NA47842  12.497   6.518   5.241 -0.0403  0.0382  0.0847
29639ION     NA47843  13.547   2.706   9.761 -0.2591  0.1249 -0.2264
29640ION     NA47844  13.210   4.020  12.088 -0.3022  0.0255 -0.0629
29641ION     NA47845   8.596  18.053   9.930  0.0017  0.4264  0.1472
29642ION     NA47846   2.183   7.022  14.674  0.2800 -0.0387  0.0978
29643ION     NA47847   4.604  17.933   1.917  0.3044  0.0857  0.2298
29644ION     NA47848  14.149   6.870   5.374  0.0136 -0.0574 -0.1639
29645ION     NA47849  17.505   7.807   0.915  0.2619 -0.1943  0.0443
29646ION     NA47850   9.970  17.949   5.027 -0.1240 -0.0264 -0.1146
29647ION     NA47851   7.450  13.795  12.064  0.3399  0.0564 -0.2273
29648ION     NA47852   9.981  10.467   5.058  0.2941 -0.0734 -0.0017
29649ION     NA47853  17.792   8.663   3.537 -0.0059  0.0142 -0.5306
29650ION     NA47854   8.545  18.856   5.423 -0.0620 -0.1360 -0.0943
29651ION     NA47855   8.651  14.312  14.611 -0.0428 -0.0026  0.1705
29652ION     NA47856  15.406   6.836  13.171  0.4091 -0.1212 -0.2468
29653ION     NA47857   0.627   9.238  10.212 -0.0041 -0.0051 -0.1284
29654ION     NA47858   3.643   8.422   0.200 -0.4014 -0.1431 -0.0048
29655ION     NA47859   7.146   6.066   5.267  0.3298 -0.3194  0.2008
29656ION     NA47860  11.626   4.088   4.860 -0.1205 -0.0276  0.1114
29657ION     NA47861   3.411  11.227   9.990  0.0450 -0.0997 -0.2693
29658ION     NA47862  10.024  14.586  14.834 -0.0972 -0.0475  0.0266
29659ION     NA47863   7.359  10.726   5.344  0.1057  0.0352  0.0752
29660ION     NA47864   6.696   7.620   1.251 -0.0251  0.2238 -0.1882
29661ION     NA47865   4.403  18.037   0.020 -0.6915  0.0837  0.3591
29662ION     NA47866  11.670  10.667  10.094 -0.1625  0.0136  0.0393
29663ION     NA47867  16.614  14.948   4.445 -0.1383  0.2430  0.0355
29664ION     NA47868   4.878  16.701  11.443 -0.1359  0.0094  0.0892
29665ION     NA47869   7.150   2.322   3.196  0.0656  0.1945 -0.3332
29666ION     NA47870  15.246  18.057  12.473  0.1175 -0.0494 -0.0398
29667ION     NA47871  12.840   3.200  10.069 -0.2477  0.0546 -0.1493
29668ION     NA47872   2.344   0.789   1.509 -0.0712  0.1385 -0.0946
29669ION     NA47873  16.228  11.170  10.032  0.0126  0.3001 -0.2204
29670ION     NA47874  10.336   5.163   0.491 -0.2238  0.0007 -0.0952
29671ION     NA47875  10.085  15.491   1.289  0.0334 -0.1080 -0.1459
29672ION     NA47876   2.490   4.340  10.031 -0.2534  0.1804 -0.0880
29673ION     NA47877   3.167  17.601   9.971  0.0560 -0.4469 -0.2343
29674ION     NA47878   0.642   0.753   9.785  0.2429 -0.3960  0.0351
29675ION     NA47879   4.942   0.192  14.775  0.2841  0.0421  0.0177
29676ION     NA47880   1.553   4.417   5.377  0.2235 -0.0827  0.0829
29677ION     NA47881   1.779  14.111   9.665 -0.1796 -0.1154 -0.2590
29678ION     NA47882   9.539  10.859  10.410  0.2069  0.0105 -0.0986
29679ION     NA47883   4.466  14.881   9.829 -0.3043 -0.1675  0.0089
29680ION     NA47884   6.010   1.050   5.504 -0.0668 -0.0105  0.0574
29681ION     NA47885   4.211   5.121  14.037 -0.2602  0.0109  0.0221
29682ION     NA47886  14.978  11.611   0.472 -0.2717 -0.1678  0.3991
29683ION     NA47887  13.520   4.141  12.995  0.1874 -0.0353 -0.0774
29684ION     NA47888  12.375   0.413   4.683  0.1507 -0.1657  0.0571
29685ION     NA47889  12.720   9.092   5.239 -0.0457 -0.0777  0.0067
29686ION     NA47890   8.603  10.070  10.182 -0.1302 -0.1199 -0.0665
29687ION     NA47891   2.636   5.923  11.898  0.3254  0.1337  0.0222
29688ION     NA47892  12.038  15.507  12.067  0.1246 -0.1602  0.2589
29689ION     NA47893   0.266  11.510   5.367  0.0478 -0.2406  0.3571
29690ION     NA47894  12.992  14.237   0.738  0.1392 -0.2172 -0.0759
29691ION     NA47895  14.700  16.578   5.046 -0.0595 -0.0919 -0.0497
29692ION     NA47896  16.581  15.355   9.915 -0.0725  0.3983 -0.0899
29693ION     NA47897   0.582  15.588   9.361  0.0467 -0.1363  0.1483
29694ION     NA47898  10.733   1.527  11.967  0.4046  0.1352 -0.0997
29695ION     NA47899   9.138  10.880  14.535 -0.0260 -0.2386 -0.0795
29696ION     NA47900   6.832   7.641  13.955 -0.0279  0.2097 -0.1476
29697ION     NA47901   5.814  13.234  10.076  0.3086  0.0288 -0.0409
29698ION     NA47902  16.032   4.935   5.069 -0.0417 -0.0024  0.1093
29699ION     NA47903   6.796   1.505  13.544 -0.0437  0.0530 -0.1630
29700ION     NA47904  15.021  12.266  10.129  0.0832 -0.0773  0.1050
29701ION     NA47905   5.524   5.718   9.991  0.3856  0.0302 -0.2967
29702ION     NA47906   5.128  12.687  10.001  0.2564  0.2560  0.0133
29703ION     NA47907  11.682   1.616   9.604  0.0184  0.3253 -0.1112
29704ION     NA47908  18.123  10.915   5.337  0.0534 -0.1564  0.1587
29705ION     NA47909  11.813   9.535  10.372  0.3092 -0.1585 -0.0030
29706ION     NA47910   2.336  16.700  12.246  0.2437  0.2776 -0.1293
29707ION     NA47911  18.942   3.296   5.170  0.0610  0.0149  0.2795
29708ION     NA47912   8.410  10.836  12.479  0.2733  0.1983  0.1632
29709ION     NA47913   6.497   2.392   5.199 -0.0131 -0.2128 -0.2294
29710ION     NA47914  14.873  14.647   9.549 -0.0993 -0.1112 -0.1845
29711ION     NA47915  17.382  13.382  12.286  0.0608 -0.0219  0.0765
29712ION     NA47916  10.229   1.622   1.621  0.3245 -0.0660  0.0176
29713ION     NA47917   1.018   5.740   5.494  0.0871 -0.0141 -0.1342
29714ION     NA47918  11.213   3.490   1.629  0.0279 -0.1227 -0.1154
29715ION     NA47919   3.802   9.884  13.513  0.1843 -0.1204  0.1779
29716ION     NA47920   2.870  11.246   0.247  0.0337  0.0715  0.1927
29717ION     NA47921   3.074   4.183   5.306  0.0491 -0.0192 -0.1697
29718ION     NA47922   1.922  16.401   5.149 -0.2731  0.0005  0.1080
29719ION     NA47923  13.564   1.283  14.746 -0.0509 -0.0300  0.2472
29720ION     NA47924   2.249   7.204   4.277 -0.0768  0.1208  0.0734
29721ION     NA47925   0.238   7.117   5.446 -0.2600 -0.1392 -0.0046
29722ION     NA47926   8.291   4.420   5.592 -0.1408 -0.2553  0.3533
29723ION     NA47927   1.247   8.619   5.108  0.1241  0.1099  0.2892
29724ION     NA47928   1.620  13.886   5.203 -0.3477  0.3944  0.1761
29725ION     NA47929  15.303  14.649  12.129  0.3510 -0.0679 -0.4121
29726ION     NA47930   5.907   0.555  10.259 -0.0021  0.0176  0.1712
29727ION     NA47931   5.619   6.631   5.545 -0.0490  0.1038 -0.0625
29728ION     NA47932   1.550  13.442  14.673 -0.3502 -0.0339  0.0163
29729ION     NA47933  18.213   4.544   9.916 -0.2693  0.1753 -0.0937
29730ION     NA47934   3.427   8.082   9.938  0.1162  0.0017 -0.1528
29731ION     NA47935   2.012   1.965   0.716 -0.0606  0.1451 -0.1678
29732ION     NA47936   2.752  18.927  10.127 -0.2989  0.0370 -0.1850
29733ION     NA47937  10.068  16.576   9.850 -0.2474 -0.1502 -0.0367
29734ION     NA47938  15.070  10.287   3.042 -0.2445  0.0945  0.1529
29735ION     NA47939   5.383   3.373   0.853  0.1923  0.1376  0.0330
29736ION     NA47940   7.881  18.249  10.334 -0.0862 -0.0908 -0.1673
29737ION     NA47941   7.543  11.378  13.493  0.1584 -0.1767 -0.2305
29738ION     NA47942  15.588   0.520   1.229  0.1841 -0.0623 -0.0832
29739ION     NA47943   6.677  16.676  11.677 -0.1688  0.1321 -0.1218
29740ION     NA47944   9.587  16.828   9.835 -0.1541  0.1512  0.1058
29741ION     NA47945   4.093  17.000  14.036 -0.0661 -0.0001  0.0600
29742ION     NA47946   8.508   0.415  10.592 -0.4421  0.1355 -0.0352
29743ION     NA47947   7.309  14.105  10.054 -0.3281 -0.3409  0.0487
29744ION     NA47948   7.482   8.216  10.237 -0.1857 -0.0290  0.0642
29745ION     NA47949  13.527  11.168   3.010 -0.1064 -0.1283  0.1459
29746ION     NA47950  12.541  16.581   9.607 -0.1882 -0.1777 -0.2061
29747ION     NA47951   4.010   3.585  11.333  0.1226  0.1277  0.2177
29748ION     NA47952   8.937  10.321  10.985  0.2876 -0.0280 -0.1104
29749ION     NA47953  10.686  14.648  10.133  0.0033 -0.4300  0.3489
29750ION     NA47954  16.044  13.888  11.382  0.2862  0.1869  0.1115
29751ION     NA47955  13.318   6.232   1.730  0.4342  0.1623 -0.0877
29752ION     NA47956   2.514  17.374   1.485 -0.0607 -0.1176  0.1612
29753ION     NA47957  16.700  13.909   9.984  0.1128 -0.3254  0.4133
29754ION     NA47958   7.094  17.649  10.025  0.4387  0.0753 -0.0056
29755ION     NA47959   9.085   2.826   2.710  0.1621  0.1146 -0.0083
29756ION     NA47960  12.945   2.399   9.803  0.1208 -0.0812  0.0415
29757ION     NA47961  17.883   3.544   5.005 -0.0098  0.0288  0.1265
29758ION     NA47962  15.958   3.763   3.273 -0.1210  0.4337 -0.0349
29759ION     NA47963   3.510   6.596   5.868 -0.1108 -0.0401  0.1441
29760ION     NA47964  15.648   6.456   9.926 -0.2730 -0.3500 -0.1017
29761ION     NA47965  12.079  14.528  11.451  0.1188 -0.1289  0.2375
29762ION     NA47966  18.586  17.952   9.770 -0.0094 -0.0028 -0.2805
29763ION     NA47967  15.370   1.313   4.963 -0.3368  0.1369  0.1410
29764ION     NA47968   4.220  14.378   3.192  0.0670 -0.0666 -0.1180
29765ION     NA47969   3.736   1.750   5.167 -0.1811 -0.1447  0.1262
29766ION     NA47970  12.196  17.540   5.077  0.1707  0.0168 -0.2009
29767ION     NA47971   6.491   7.886   5.452  0.2255 -0.2987 -0.0438
29768ION     NA47972  10.824  10.180   5.500 -0.0100  0.3998 -0.3637
29769ION     NA47973  13.985  17.774   9.684  0.1587  0.0280  0.2879
29770ION     NA47974   3.594   7.942  14.023 -0.3501  0.1815 -0.2290
29771ION     NA47975   5.918  17.525  10.477 -0.1820  0.3372  0.0359
29772ION     NA47976   9.237   8.003  12.400  0.0980 -0.2003 -0.3099
29773ION     NA47977  17.354  13.687   4.820  0.0317 -0.0829  0.2223
29774ION     NA47978  12.376  12.365  13.705 -0.0021 -0.0501 -0.1822
29775ION     NA47979   8.778  14.907  11.583 -0.4004  0.2203  0.2430
29776ION     NA47980  14.852   9.020   5.103  0.3370 -0.1239 -0.4565
29777ION     NA47981   7.717  16.598   5.310  0.2293 -0.0884 -0.3325
29778ION     NA47982  17.685   2.805   1.815  0.0819 -0.0703  0.0192
29779ION     NA47983   1.518  15.942   9.597 -0.5399 -0.2449 -0.1148
29780ION     NA47984  14.554  10.277  10.455  0.1571  0.2041 -0.0926
29781ION     NA47985  12.990   4.450   4.123  0.0037 -0.2287 -0.0346
29782ION     NA47986   2.712  12.059   1.588 -0.1134  0.0283 -0.4392
29783ION     NA47987   5.525   3.898  11.712  0.1367  0.1631  0.2141
29784ION     NA47988  10.779   2.985   9.714 -0.1725 -0.1204  0.2307
29785ION     NA47989  11.780  18.942   5.105  0.0624  0.2707 -0.3371
29786ION     NA47990   5.252   7.679   1.224  0.0276  0.1231  0.0886
29787ION     NA47991   1.149   0.976  12.583  0.2314 -0.0493 -0.1517
29788ION     NA47992  13.898   2.168   4.709  0.0614  0.0156  0.1559
29789ION     NA47993  18.054   3.501  10.028  0.1276  0.0929 -0.3088
29790ION     NA47994  12.819   9.598   9.969  0.0378 -0.1060  0.1656
29791ION     NA47995  11.792  11.665  10.970  0.1582  0.0760 -0.2619
29792ION     NA47996  10.818   1.407   5.112  0.3630 -0.0410  0.0327
29793ION     NA47997  12.100  16.001  14.627 -0.0917 -0.1711  0.2261
29794ION     NA47998  15.111  15.171  12.974 -0.4143 -0.0173  0.3283
29795ION     NA47999  10.466   4.440  14.634 -0.0872 -0.0778  0.3547
29796ION     NA48000  18.867   7.504  12.308  0.0927 -0.2666 -0.3113
29797ION     NA48001  17.607   9.029   5.542 -0.1199  0.2104 -0.2984
29798ION     NA48002   6.410  10.615  10.123  0.1907 -0.0360 -0.0866
29799ION     NA48003   0.761  10.745  10.249  0.1797 -0.1341  0.1063
29800ION     NA48004   3.976  11.621   5.003  0.2316  0.2365  0.1780
29801ION     NA48005  14.084  15.907   2.176  0.0831  0.0134  0.0385
29802ION     NA48006  15.211  17.288   4.677 -0.3779 -0.4217  0.0451
29803ION     NA48007  13.307   6.877   5.534  0.0337  0.2133 -0.1910
29804ION     NA48008   5.805  12.207  11.286 -0.0526  0.0534  0.1857
29805ION     NA48009  16.896   2.191   5.067  0.4252 -0.3503 -0.1408
29806ION     NA48010  12.827  15.307   9.896  0.3044  0.2116  0.3546
29807ION     NA48011   4.147  12.893   5.384 -0.2138  0.1174  0.0182
29808ION     NA48012   2.881  18.492   2.361  0.3600 -0.0345  0.1533
29809ION     NA48013  17.089  10.980  12.063  0.1837 -0.3080 -0.0333
29810ION     NA48014  17.987   6.244   5.276 -0.1717  0.2048  0.0330
29811ION     NA48015   2.019   5.093   9.908 -0.0852  0.1246 -0.0751
29812ION     NA48016  13.010   5.846  14.452  0.0286 -0.2064 -0.0943
29813ION     NA48017   3.973   6.922   4.487  0.1840 -0.0386 -0.2221
29814ION     NA48018   8.502   2.513  14.926  0.1216  0.0988  0.1574
29815ION     NA48019  11.318   7.911   9.909  0.0170 -0.1899  0.0132
29816ION     NA48020  17.724   1.458   4.577  0.0622  0.2950  0.2064
29817ION     NA48021   6.697   9.066   9.931 -0.0550  0.2721 -0.0436
29818ION     NA48022  15.242   3.856   5.069 -0.0448 -0.2335  0.0049
29819ION     NA48023  10.448   0.310   5.072  0.2969 -0.1628  0.0433
29820ION     NA48024  18.282  15.667  14.991  0.0727  0.0521  0.0484
29821ION     NA48025  14.524  14.029   9.726  0.1229 -0.0036  0.2407
29822ION     NA48026  18.896  13.417   5.045  0.2057  0.1207  0.2454
29823ION     NA48027  18.325  11.797   2.433 -0.1148  0.4574 -0.0621
29824ION     NA48028  18.849  12.296   5.298  0.1366 -0.1651  0.0013
29825ION     NA48029   2.978   2.129  10.135 -0.2154 -0.1543 -0.0717
29826ION     NA48030   7.575  10.902   1.224  0.1191 -0.4692 -0.2564
29827ION     NA48031   7.641  14.798   5.376  0.1181  0.1388  0.1430
29828ION     NA48032   6.413   6.258  13.225 -0.2188  0.0700  0.1241
29829ION     NA48033  13.919   5.686   9.651 -0.1314 -0.0333  0.0922
29830ION     NA48034   9.261   2.261   5.024 -0.0989  0.2976 -0.1299
29831ION     NA48035   8.185  13.950  10.870  0.2207 -0.4151 -0.0630
29832ION     NA48036   0.033  14.849   9.637 -0.1569 -0.1386 -0.0953
29833ION     NA48037  18.193   9.845   9.944 -0.2755 -0.1162  0.0497
29834ION     NA48038  13.870   6.571  10.086  0.1715 -0.3720 -0.0257
29835ION     NA48039   5.318   3.515   1.780 -0.1816  0.1824  0.1741
29836ION     NA48040  14.188   9.597  12.075 -0.1457 -0.0120  0.2382
29837ION     NA48041  18.052   0.527  11.049 -0.3998 -0.3474 -0.1031
29838ION     NA48042  14.829   1.652  12.940 -0.1703  0.3126 -0.1309
29839ION     NA48043  12.227  11.713   5.244  0.2696  0.0482  0.1961
29840ION     NA48044   2.502  13.837   9.556 -0.1042  0.4791 -0.0365
29841ION     NA48045   2.716   6.862  10.386 -0.1182 -0.0532 -0.0789
29842ION     NA48046   7.562   4.981   5.450 -0.1889  0.1869 -0.3747
29843ION     NA48047   0.756   1.580   5.044 -0.2297 -0.0604  0.2004
29844ION     NA48048   4.025  10.180   0.154 -0.1365  0.0443 -0.2822
29845ION     NA48049  13.691  16.698   4.997 -0.1090 -0.0855  0.2311
29846ION     NA48050  12.503  11.019  10.178  0.1687 -0.2136  0.2038
29847ION     NA48051  12.438   4.589   5.091 -0.1283  0.2258  0.2297
29848ION     NA48052  18.948  12.198   4.315  0.0646 -0.1076 -0.1288
29849ION     NA48053   5.903  18.896  14.619 -0.0843  0.1222  0.0569
29850ION     NA48054   5.629  13.426   1.592 -0.1353  0.2444 -0.1999
29851ION     NA48055   0.987  14.058  13.625  0.1380 -0.2494  0.1335
29852ION     NA48056   1.647  17.141   3.948 -0.0474  0.1649  0.1402
29853ION     NA48057  16.417   2.727   9.552  0.1189  0.1258  0.1143
29854ION     NA48058  18.676  16.090   9.378 -0.4462 -0.0558  0.2601
29855ION     NA48059  11.071  15.095   4.865 -0.0552 -0.0304  0.0854
29856ION     NA48060   6.516   8.282  13.138  0.1295 -0.3857  0.0239
29857ION     NA48061   1.258  11.925   4.370 -0.2575  0.0544 -0.2757
29858ION     NA48062   0.717   6.362  10.117  0.0410  0.0624 -0.2088
29859ION     NA48063  14.725   0.408   9.547 -0.1538 -0.2648 -0.0160
29860ION     NA48064  16.998  13.211   9.725  0.3417  0.0297 -0.3010
29861ION     NA48065  15.488  13.107   9.793 -0.0583 -0.0312 -0.3478
29862ION     NA48066   1.300  12.190   2.862  0.2170  0.0941  0.4112
29863ION     NA48067  16.248  10.141   1.959  0.0960 -0.3071 -0.1262
29864ION     NA48068  10.012   8.295   5.233  0.0279 -0.6116 -0.2313
29865ION     NA48069  10.942   6.141   3.416 -0.4250  0.0137 -0.0779
29866ION     NA48070  13.416  16.177   9.795  0.1069 -0.0767  0.2944
29867ION     NA48071  17.117  14.195   4.778  0.1696  0.2245  0.3536
29868ION     NA48072  17.146  13.893   2.302 -0.0670  0.1894 -0.3313
29869ION     NA48073  10.559   4.370   5.032 -0.0959 -0.1174 -0.1130
29870ION     NA48074   9.705   4.518   5.332  0.0052 -0.1785  0.0735
29871ION     NA48075   8.882   7.584  10.133  0.3299  0.1194  0.0321
29872ION     NA48076  18.750   8.939  10.002  0.0239 -0.1580 -0.0364
29873ION     NA48077  16.049   7.216  10.108  0.1322  0.0379  0.1052
29874ION     NA48078  13.261   4.155   9.918  0.0946 -0.0299  0.1812
29875ION     NA48079   6.018  13.932   2.989 -0.1022  0.1775 -0.1596
29876ION     NA48080  17.552  12.511   5.234  0.1857  0.0993 -0.1508
29877ION     NA48081   2.748  11.894  12.370  0.2560 -0.1138 -0.1504
29878ION     NA48082   1.847   3.724   9.907  0.3316 -0.2590  0.2561
29879ION     NA48083  11.082   8.039   4.977  0.0545 -0.2833  0.0301
29880ION     NA48084  17.110  14.469  13.228  0.0852 -0.0865  0.0280
29881ION     NA48085   5.350  14.420  14.093  0.5015  0.0607 -0.1254
29882ION     NA48086   3.687   3.618   3.132 -0.3146  0.3484  0.1187
29883ION     NA48087  15.376  10.071   9.933  0.1703  0.2399 -0.3331
29884ION     NA48088  11.992   7.656  13.184 -0.1270 -0.1413  0.2823
29885ION     NA48089  18.003  18.541   1.103  0.1068  0.0405 -0.0432
29886ION     NA48090   9.382  11.696   2.276 -0.0562 -0.0500  0.2071
29887ION     NA48091   7.462  12.523   5.045  0.1736 -0.0551 -0.0770
29888ION     NA48092  18.838  14.601   4.756 -0.3189  0.0330  0.3365
29889ION     NA48093   3.989  17.299  13.143 -0.1396  0.0555 -0.0024
29890ION     NA48094  12.176   0.892   9.604  0.1274 -0.2265 -0.1738
29891ION     NA48095   9.951  13.235  13.017  0.1962  0.1017 -0.0514
29892ION     NA48096  17.170  17.568   9.568  0.2721  0.2033 -0.0608
29893ION     NA48097  18.141  16.313   3.160 -0.4127  0.0505  0.2630
29894ION     NA48098  14.763  18.911   5.013  0.1288 -0.0187 -0.0294
29895ION     NA48099  17.787  17.260   3.168 -0.1466 -0.1586  0.0316
29896ION     NA48100  12.124  15.747   9.539  0.1126 -0.1007 -0.0316
29897ION     NA48101   5.126   8.497  10.020  0.0970  0.4608 -0.1579
29898ION     NA48102   5.779   1.630  10.108 -0.0214  0.0622 -0.0540
29899ION     NA48103   5.304  12.722   3.414  0.0351  0.0272 -0.0409
29900ION     NA48104   2.897   7.618  12.443 -0.1579  0.0600  0.4007
29901ION     NA48105   8.569   9.353  13.982 -0.1263 -0.1346 -0.1170
29902ION     NA48106  10.097  12.671  13.785  0.1437 -0.4959  0.1425
29903ION     NA48107   7.789   3.526  10.084 -0.1345 -0.0115 -0.0600
29904ION     NA48108  11.242   9.559  11.814  0.4477  0.1236  0.4788
29905ION     NA48109  16.727   4.138   9.813 -0.0811  0.0228 -0.4496
29906ION     NA48110  10.226   7.240   0.618  0.0668  0.3250 -0.3755
29907ION     NA48111   1.995  11.385   3.130  0.1866 -0.1239 -0.0964
29908ION     NA48112  11.302   7.083   3.174 -0.2462  0.0850 -0.0124
29909ION     NA48113  14.946  14.082   1.341 -0.0285  0.1178  0.0621
29910ION     NA48114  10.668  16.722  10.973  0.0868 -0.1894  0.0534
29911ION     NA48115  18.216  13.904   5.087  0.3260  0.1856  0.2272
29912ION     NA48116  12.975   2.276  14.916  0.1540  0.0827  0.1590
29913ION     NA48117  10.669   5.204   4.833  0.0144  0.4195 -0.4077
29914ION     NA48118  13.825  15.200   9.818 -0.1715 -0.2233 -0.2375
29915ION     NA48119  10.913   2.000  10.977  0.0482  0.3705  0.0729
29916ION     NA48120   4.706  16.677   5.335 -0.0829  0.4113  0.2061
29917ION     NA48121   7.209   6.644   1.108  0.0818 -0.0666 -0.1558
29918ION     NA48122  16.830   2.966  13.860 -0.1550  0.0392  0.0864
29919ION     NA48123   8.861   4.494  10.387  0.1039 -0.3252 -0.0744
29920ION     NA48124  11.630  16.890   2.138 -0.1787  0.3158 -0.2592
29921ION     NA48125  12.720   7.044   1.022  0.0162 -0.0840  0.0193
29922ION     NA48126  11.792   6.360   0.940 -0.1080 -0.1259  0.5504
29923ION     NA48127  15.328   4.666   3.152  0.0669 -0.3410 -0.4223
29924ION     NA48128   0.940   4.028  10.031 -0.3594 -0.0990  0.0565
29925ION     NA48129   5.615  14.096   5.121  0.2304 -0.0089  0.3899
29926ION     NA48130  10.070   1.501   9.783  0.1800 -0.2126 -0.1066
29927ION     NA48131   2.597   3.215   5.229 -0.2536  0.0318  0.3047
29928ION     NA48132  12.493  14.685   0.681  0.3164 -0.1700 -0.0303
29929ION     NA48133   6.292  16.056   5.075 -0.0984  0.0718 -0.0495
29930ION     NA48134  12.987   2.579   3.800  0.2409  0.2088 -0.4198
29931ION     NA48135   4.012   5.562   0.881  0.1058  0.0510  0.2649
29932ION     NA48136  17.437  17.760   4.965  0.0278 -0.1269  0.1101
29933ION     NA48137   7.742   4.675  10.089 -0.0029  0.0256  0.0312
29934ION     NA48138  17.137   0.907  10.015  0.1693 -0.1435 -0.0389
29935ION     NA48139   9.943  13.992  14.164 -0.2248  0.1199 -0.1027
29936ION     NA48140   8.850  11.849   3.190 -0.0868  0.0869  0.3236
29937ION     NA48141   4.111  14.485  12.177  0.2376 -0.0489 -0.2193
29938ION     NA48142   3.404   0.913   3.508  0.0893  0.1296 -0.2960
29939ION     NA48143   0.784   8.171  10.288  0.1576  0.0849 -0.5348
29940ION     NA48144  11.087   2.415   0.786 -0.0308  0.2718 -0.2627
29941ION     NA48145  17.708  15.012  10.808 -0.0868 -0.6402 -0.0247
29942ION     NA48146   4.059   1.585   5.746  0.1637 -0.0088 -0.0745
29943ION     NA48147   9.312  15.785   5.340  0.0125  0.0069  0.3236
29944ION     NA48148  13.053   8.029   0.807 -0.0546  0.3898  0.1179
29945ION     NA48149  14.530   3.027   9.925 -0.0800 -0.0284  0.0738
29946ION     NA48150  12.562   8.278   5.489 -0.0802  0.3734 -0.0685
29947ION     NA48151  15.356  12.484   0.975 -0.1362 -0.1522 -0.0630
29948ION     NA48152  17.107   9.893   0.085  0.0155 -0.0123 -0.0782
29949ION     NA48153  18.158  15.437   9.512 -0.1285 -0.5708 -0.3652
29950ION     NA48154  12.107   8.510   9.688  0.0288  0.1679  0.1594
29951ION     NA48155  15.998   0.033  10.118  0.0872 -0.1136 -0.1065
29952ION     NA48156  10.238   6.239   9.855 -0.2304  0.0589  0.1230
29953ION     NA48157   3.187  14.169   5.360  0.3343  0.0713 -0.1869
29954ION     NA48158   2.331  14.526   5.208 -0.3283 -0.3371  0.0026
29955ION     NA48159   6.970  16.524   9.959 -0.0323  0.1168 -0.2374
29956ION     NA48160   4.028   0.628  10.731 -0.1023  0.0772  0.0993
29957ION     NA48161  16.343  18.533   2.340  0.1138  0.1106 -0.1427
29958ION     NA48162  13.616  14.174   9.559  0.1886 -0.0405 -0.1501
29959ION     NA48163   5.182   7.431   5.326 -0.2286 -0.1124 -0.1502
29960ION     NA48164   2.105  18.899  13.940 -0.0399  0.0818  0.2209
29961ION     NA48165   5.065   5.666  13.198  0.2036 -0.0995 -0.0318
29962ION     NA48166   2.741   5.356   4.350  0.0338  0.1199 -0.0166
29963ION     NA48167  12.622  13.515  14.619  0.0059 -0.0955 -0.2459
29964ION     NA48168   1.121  16.755  12.829  0.0430 -0.0398  0.1216
29965ION     NA48169   8.545  14.915  10.594 -0.1111 -0.1872 -0.2503
29966ION     NA48170   6.119   2.621  13.159 -0.3407  0.2004 -0.0400
29967ION     NA48171  17.841  11.525   4.616  0.2339 -0.0497 -0.4106
29968ION     NA48172  12.423  10.864   5.301 -0.1795  0.2449  0.0029
29969ION     NA48173  18.342  16.698  13.777 -0.0796 -0.4916  0.3097
29970ION     NA48174   5.305  18.301   5.485  0.1264  0.2186 -0.1562
29971ION     NA48175   5.263  12.232   5.292 -0.0110  0.2432 -0.1003
29972ION     NA48176   7.101   9.782   5.357  0.0425 -0.1016  0.0010
29973ION     NA48177   3.239  15.851   5.035 -0.2159 -0.0405  0.1432
29974ION     NA48178   6.291  14.110  10.244 -0.2622  0.0378  0.1554
29975ION     NA48179   9.615   5.331   5.364  0.2722  0.1610 -0.1029
29976ION     NA48180   4.950   2.076   4.820  0.2775  0.2829  0.1483
29977ION     NA48181  17.719   1.436   9.921 -0.1003  0.0209 -0.0098
29978ION     NA48182   3.053   1.225   5.531 -0.0647 -0.0751  0.0656
29979ION     NA48183  10.003   6.796   5.235  0.0870  0.0388  0.0579
29980ION     NA48184   0.200   9.338  11.999 -0.0033  0.0597  0.0318
29981ION     NA48185  15.438  10.452   5.364 -0.1663 -0.0615 -0.0051
29982ION     NA48186   9.823   1.686   4.676 -0.0973  0.0148  0.0650
29983ION     NA48187   1.386   1.327   9.938  0.0581 -0.1041 -0.1632
29984ION     NA48188  18.581  11.757  10.095 -0.1476 -0.0500  0.2115
29985ION     NA48189  10.876   4.588  11.532 -0.1559 -0.1770 -0.0673
29986ION     NA48190   0.733   8.578  13.120  0.0161  0.1430 -0.1655
29987ION     NA48191   2.923  10.218  10.252 -0.0809  0.0257 -0.1361
29988ION     NA48192  11.906  15.063   9.770  0.0129 -0.0029  0.1406
29989ION     NA48193   9.255   9.690   5.112 -0.1057 -0.0013  0.1636
29990ION     NA48194   1.000  15.494   2.109  0.0336  0.0330  0.1617
29991ION     NA48195   6.052  11.752  10.179 -0.3294  0.1263 -0.1269
29992ION     NA48196   4.267   8.396   9.821  0.0867  0.3558  0.0103
29993ION     NA48197   1.460   7.480  10.081  0.4274  0.0808 -0.0273
29994ION     NA48198   9.968  14.417   1.437 -0.1714  0.0909 -0.0026
29995ION     NA48199   1.466  17.526   9.849 -0.1624  0.2796  0.1234
29996ION     NA48200  12.733  12.134  10.438 -0.1050  0.0856 -0.0188
29997ION     NA48201  17.749  17.432   5.198  0.1016 -0.2770 -0.0049
29998ION     NA48202  14.194  10.912   9.957  0.1442  0.0994 -0.1999
29999ION     NA48203  15.595   8.683   5.099 -0.1821  0.0822  0.1559
30000ION     NA48204  13.469  15.550   4.824 -0.3535 -0.2812 -0.4276
30001ION     NA48205   4.740   5.624   4.883  0.0102 -0.1646 -0.0452
30002ION     NA48206   6.390   1.002   3.234 -0.2366  0.0914  0.3913
30003ION     NA48207  13.153  17.528   2.029 -0.0058  0.2926  0.1450
30004ION     NA48208  13.837   3.161  10.459  0.1312 -0.1065  0.1100
30005ION     NA48209   8.327   5.372   5.422  0.0805 -0.0376 -0.0546
30006ION     NA48210   8.810  12.773   5.122  0.0359  0.3567 -0.1101
30007ION     NA48211  15.107   7.787   9.718  0.0097  0.0565  0.1016
30008ION     NA48212   0.884   7.763   5.402 -0.2598 -0.0750  0.2114
30009ION     NA48213  11.945  16.563   4.975  0.1072  0.0764 -0.0091
30010ION     NA48214   6.543   7.241   9.661 -0.1821  0.0795 -0.2054
30011ION     NA48215  18.687  14.347   3.718  0.0527  0.1486  0.1928
30012ION     NA48216  11.893  16.544   9.806 -0.1647 -0.0844  0.1985
30013ION     NA48217   5.365  15.433   9.697  0.1527 -0.0806  0.1196
30014ION     NA48218   7.566  15.904  14.963 -0.0741  0.0909  0.3007
30015ION     NA48219  12.056  13.282  10.060 -0.2587 -0.0505 -0.0786
30016ION     NA48220  14.544  13.932   5.037  0.1949 -0.2168 -0.1389
30017ION     NA48221  17.527  14.723   2.173  0.0102 -0.0657 -0.0324
30018ION     NA48222   2.180   9.402   4.999 -0.1270  0.1066 -0.1747
30019ION     NA48223   8.901   4.615   5.266  0.1612 -0.0926  0.0649
30020ION     NA48224   0.622   5.722  10.536  0.2183  0.1250  0.1377
30021ION     NA48225  16.297  17.251   0.873 -0.4257 -0.0856  0.0027
30022ION     NA48226  12.387   3.583  10.007 -0.0504  0.2114 -0.2827
30023ION     NA48227   3.904   7.388   5.873  0.0429  0.1262  0.1208
30024ION     NA48228   5.881   4.604   5.224 -0.0114  0.1260  0.0487
30025ION     NA48229   2.460   8.794  13.712 -0.1926  0.0609  0.1528
30026ION     NA48230  13.278  11.972  10.036  0.1417 -0.1485  0.0126
30027ION     NA48231  14.717   4.510   9.602 -0.1613 -0.2745  0.1414
30028ION     NA48232  14.277  16.051   9.786  0.0195 -0.3158  0.0339
30029ION     NA48233   3.141  16.968  11.808  0.0826 -0.4269  0.3462
30030ION     NA48234   8.944   1.592   5.080  0.0731 -0.1203  0.2881
30031ION     NA48235   1.864  16.283   3.282 -0.3435 -0.1960 -0.0465
30032ION     NA48236  15.671  13.652   5.190  0.2905 -0.1253 -0.0114
30033ION     NA48237  10.395   5.390   3.022  0.0585 -0.1168  0.1362
30034ION     NA48238   8.544  12.379  10.050  0.1841  0.0992 -0.1377
30035ION     NA48239  12.487  17.409  11.634 -0.0952 -0.1294 -0.0279
30036ION     NA48240   7.909   9.510  10.217  0.0522 -0.3289  0.0972
30037ION     NA48241  16.538  10.218   0.775  0.2778  0.0872  0.1018
30038ION     NA48242   0.896  18.950   5.322 -0.0266  0.1297  0.1147
30039ION     NA48243  13.881   3.452   5.013 -0.1306 -0.2455 -0.2829
30040ION     NA48244  18.117  18.576  12.779  0.0402  0.1621  0.0223
30041ION     NA48245  17.639   3.926   2.091 -0.2532  0.0075  0.1866
30042ION     NA48246   7.689  10.815  12.383  0.0739 -0.0473 -0.2960
30043ION     NA48247   4.977   0.975  14.394  0.2367  0.0749  0.2823
30044ION     NA48248  11.553  13.413   4.896 -0.1132  0.0430  0.2827
30045ION     NA48249   8.379  10.393   1.359 -0.0910 -0.0188  0.0098
30046ION     NA48250  14.063   0.041   2.205  0.0711 -0.0920  0.0990
30047ION     NA48251  18.006   8.123   5.680  0.1205  0.2103 -0.3849
30048ION     NA48252   5.301  17.824  13.611 -0.0985 -0.2243 -0.0525
30049ION     NA48253   9.368  14.753   5.305 -0.1788 -0.0435 -0.3163
30050ION     NA48254  11.868   4.447   0.915 -0.0987  0.0097  0.0872
30051ION     NA48255  11.871  15.397   4.571  0.0484  0.1589  0.0631
30052ION     NA48256   4.436  17.144   1.527  0.1545 -0.1159 -0.2887
30053ION     NA48257   2.499  13.088  14.471  0.2598 -0.0742 -0.2498
30054ION     NA48258   1.820   0.205   1.101 -0.1218 -0.0225 -0.0971
30055ION     NA48259   8.370  15.829   5.509  0.2272 -0.2919 -0.2040
30056ION     NA48260   7.530   1.389   2.811 -0.1477  0.0726  0.0637
30057ION     NA48261  17.803  15.342  14.593  0.0014  0.4360  0.0015
30058ION     NA48262   1.647   3.251   5.268 -0.2721  0.3203  0.0172
30059ION     NA48263   7.546   6.906   1.481 -0.2962  0.0717  0.0864
30060ION     NA48264  11.655   1.338  12.860 -0.3178  0.1226  0.3121
30061ION     NA48265   9.590   3.063   5.434 -0.2417 -0.0136 -0.1341
30062ION     NA48266  11.335  10.708   5.044  0.1216  0.2123 -0.2715
30063ION     NA48267   5.611  14.998   4.659  0.0220  0.1621 -0.0938
30064ION     NA48268   9.316  18.798  12.234 -0.0379  0.2570 -0.0780
30065ION     NA48269   8.585   7.337  13.465  0.3439  0.2079  0.0936
30066ION     NA48270   6.302  10.978   5.101 -0.1028 -0.2392  0.0496
30067ION     NA48271   1.420  13.533   3.271 -0.0860  0.0458 -0.0167
30068ION     NA48272   7.962  12.307  12.307  0.5116  0.3962  0.0247
30069ION     NA48273   4.088  18.614  10.093  0.0109  0.1821  0.3726
30070ION     NA48274  15.862   3.136   5.032 -0.1685 -0.1531  0.0031
30071ION     NA48275   3.666  15.009   5.244 -0.0768 -0.1481 -0.2140
30072ION     NA48276   7.143  12.053   3.156  0.0203 -0.0909  0.0262
30073ION     NA48277   0.068   4.303  14.224  0.2921  0.1006 -0.1775
30074ION     NA48278  15.102  14.486  14.381  0.1617  0.0583  0.5175
30075ION     NA48279  11.184   8.278   5.409  0.1164  0.2540 -0.0138
30076ION     NA48280  10.878  17.423   3.143 -0.0035 -0.2237  0.2346
30077ION     NA48281  16.312   7.022  13.115 -0.1277 -0.0101 -0.2325
30078ION     NA48282  12.714   7.616  10.104  0.1973 -0.0628 -0.1151
30079ION     NA48283  13.556   3.911   2.890  0.1267 -0.2524  0.2842
30080ION     NA48284  12.173  14.499   2.612  0.0280  0.0409 -0.0904
30081ION     NA48285  17.140   3.588  10.026  0.0426 -0.3457  0.1443
30082ION     NA48286   6.077   3.602   4.943 -0.0491  0.1574 -0.0767
30083ION     NA48287  12.604   7.388   5.451 -0.2055  0.0637  0.0589
30084ION     NA48288  14.657  18.443   9.566 -0.0170  0.2068  0.4198
30085ION     NA48289  13.016  14.438  12.823 -0.1546 -0.0400 -0.2075
30086ION     NA48290  12.768  12.805   9.876  0.1695 -0.2598  0.1323
30087ION     NA48291   0.452   5.016   2.028  0.0027 -0.1150  0.4231
30088ION     NA48292   7.930  18.162   5.192 -0.2189  0.2902 -0.0108
30089ION     NA48293   3.155   6.020  10.151 -0.1121 -0.1758 -0.1363
30090ION     NA48294  10.143  15.007  10.316 -0.0330  0.0612  0.0222
30091ION     NA48295   5.583  15.915  14.269  0.1926  0.2216 -0.0687
30092ION     NA48296   3.309   8.317  10.431 -0.2531  0.2212 -0.1465
30093ION     NA48297  13.236  16.072  13.874 -0.1737  0.0299  0.2184
30094ION     NA48298   4.930   1.339   5.326  0.0814 -0.1462  0.0466
30095ION     NA48299   5.892  15.135  12.565  0.1725  0.1683  0.0862
30096ION     NA48300   8.543   4.165   9.813 -0.2144 -0.1517 -0.0009
30097ION     NA48301  18.754  16.927   9.825 -0.0233  0.2996  0.3577
30098ION     NA48302   9.680   4.671   3.853  0.0246 -0.2700 -0.3302
30099ION     NA48303   1.839   5.084   1.740 -0.1417  0.0000  0.2355
30100ION     NA48304   4.753   5.144  10.132 -0.3729  0.1089 -0.0529
30101ION     NA48305   0.532   8.984   5.188  0.2316 -0.3921  0.0053
30102ION     NA48306  17.650  18.630   4.771 -0.0261  0.0251  0.2204
30103ION     NA48307   7.795   6.767   0.068 -0.3799 -0.1409  0.2182
30104ION     NA48308  16.662   4.984  10.071  0.0185  0.0211 -0.4140
30105ION     NA48309  10.967   1.035   9.737 -0.3344 -0.0361 -0.0411
30106ION     NA48310  11.570   6.475   4.794 -0.2688 -0.0465  0.1174
30107ION     NA48311   8.682   9.161  10.368  0.2871  0.1674  0.2571
30108ION     NA48312   5.185  18.196  10.299 -0.1912  0.2805  0.2202
30109ION     NA48313  17.340  16.081  14.803  0.3169 -0.1428 -0.2760
30110ION     NA48314  13.130  17.337   9.577 -0.1393 -0.2423  0.1223
30111ION     NA48315   3.381  10.863   4.931  0.0157 -0.1983 -0.3257
30112ION     NA48316  16.292  16.246   1.691  0.1849 -0.2521 -0.1694
30113ION     NA48317   0.214   9.942   5.388 -0.2936 -0.3851 -0.0000
30114ION     NA48318   4.952  12.778   2.090 -0.0192 -0.0085 -0.2023
30115ION     NA48319  15.943   9.626  11.608 -0.3667  0.2810  0.2221
30116ION     NA48320  10.744   9.705   9.547  0.0134  0.1094  0.0355
30117ION     NA48321  16.982   9.811   1.343 -0.0495  0.2866  0.2242
30118ION     NA48322  17.178  17.992   4.547  0.1827 -0.0019 -0.0287
30119ION     NA48323  14.716   5.695   4.949 -0.3872  0.0595 -0.1018
30120ION     NA48324  10.482  11.778   9.975 -0.0323  0.2286 -0.0446
30121ION     NA48325   4.029  17.665   9.701 -0.2144  0.1170 -0.1565
30122ION     NA48326  10.482  14.606   4.860  0.0524  0.0628 -0.2022
30123ION     NA48327   7.918  15.601   3.882 -0.0547 -0.0655  0.0896
30124ION     NA48328   0.681   1.660   0.460  0.1326 -0.0331  0.0033
30125ION     NA48329   9.066   6.762   3.220 -0.0684 -0.2697  0.1745
30126ION     NA48330   9.912  16.968   2.279  0.2266 -0.1404  0.2835
30127ION     NA48331   4.385  18.564   5.551 -0.4422 -0.1072 -0.2333
30128ION     NA48332   7.708   8.969   5.316  0.1516 -0.1573 -0.3020
30129ION     NA48333   7.471   0.678  11.840 -0.1626  0.1642  0.2799
30130ION     NA48334   9.572   0.470   9.865  0.4651  0.1027  0.1495
30131ION     NA48335   1.212   2.006  14.393 -0.1274  0.1229  0.0669
30132ION     NA48336   2.391  12.488   9.934 -0.0523 -0.0031 -0.2072
30133ION     NA48337  16.671  12.750   3.930  0.2247  0.0121  0.0756
30134ION     NA48338  10.226   0.217   3.258 -0.1436  0.1782 -0.1105
30135ION     NA48339   6.754  15.349   5.313 -0.1062  0.1146  0.0853
30136ION     NA48340   1.538  16.267   4.642  0.0000 -0.2633 -0.1955
30137ION     NA48341   4.929  14.542   5.190  0.1118 -0.3910  0.1384
30138ION     NA48342   1.625   4.769   9.824  0.0324  0.0181 -0.0799
30139ION     NA48343  11.314  11.966   5.188 -0.2221 -0.2442 -0.0064
30140ION     NA48344   2.834  13.407   5.263  0.1124  0.0260 -0.1699
30141ION     NA48345  16.563  11.453   2.239  0.1320  0.4325 -0.1620
30142ION     NA48346   8.189  15.846   9.750  0.2642  0.1269  0.3200
30143ION     NA48347  11.419  18.737   1.774 -0.1271  0.0643  0.1231
30144ION     NA48348  13.252   2.852   4.911 -0.2147  0.2459 -0.0095
30145ION     NA48349  11.705  12.028  10.298 -0.0718  0.2707 -0.3436
30146ION     NA48350  14.693   6.229   9.844 -0.1814  0.0418  0.1716
30147ION     NA48351  12.844  10.056   5.199  0.2799 -0.1179  0.2190
30148ION     NA48352  17.882   4.858   9.632  0.0718 -0.1504 -0.1890
30149ION     NA48353  11.257  15.708   9.804 -0.2820 -0.1809 -0.0060
30150ION     NA48354  15.949   5.280   9.720  0.0522 -0.1039  0.1303
30151ION     NA48355  17.510   0.585   3.245 -0.1687  0.0204  0.0253
30152ION     NA48356   7.979   7.482   9.901  0.0060 -0.1847 -0.0931
30153ION     NA48357  12.936  16.976   4.908 -0.0504  0.0004  0.1493
30154ION     NA48358   1.247   4.012  14.177  0.0604  0.0564 -0.2749
30155ION     NA48359   3.050   1.112  10.310 -0.1348  0.0924  0.0218
30156ION     NA48360  13.740   9.170   1.085 -0.0957 -0.2871  0.0764
30157ION     NA48361   8.535   2.634   9.882 -0.0319  0.1290  0.4092
30158ION     NA48362  16.964   3.550   4.795 -0.3880  0.0913 -0.0486
30159ION     NA48363  10.529   4.463   9.820  0.0693  0.1896 -0.0192
30160ION     NA48364  14.484  13.126   9.660 -0.2506 -0.0487  0.1466
30161ION     NA48365   1.855  18.870   5.443  0.1427  0.1799  0.1403
30162ION     NA48366   9.127  13.307   5.048 -0.0779  0.3140  0.1376
30163ION     NA48367  10.128   6.653  10.186 -0.0830  0.0413  0.1508
30164ION     NA48368  13.850  17.182   5.242  0.0691  0.0008  0.0577
30165ION     NA48369   5.552   8.836   1.404 -0.2436  0.2251 -0.2252
30166ION     NA48370   8.093  13.699  10.223 -0.0661  0.6481 -0.0628
30167ION     NA48371   7.339   1.598   1.480  0.2624  0.0193  0.1507
30168ION     NA48372  17.841  12.241  11.798  0.0056 -0.0843 -0.1626
30169ION     NA48373   3.645   9.940  10.278 -0.4544 -0.1965  0.4930
30170ION     NA48374  11.844  11.842  14.284  0.2826 -0.0753  0.1244
30171ION     NA48375   7.366   2.953   5.230  0.2348 -0.0588 -0.1007
30172ION     NA48376   0.040   9.806  10.091  0.2459  0.1212  0.1365
30173ION     NA48377  16.622   7.753  10.391 -0.0499  0.1905  0.0625
30174ION     NA48378   6.732   8.847   5.299  0.3008  0.1336 -0.1428
30175ION     NA48379  18.696  14.323  10.186  0.1605 -0.0862 -0.0068
30176ION     NA48380  17.880   5.654  10.209 -0.0230 -0.1044 -0.0109
30177ION     NA48381  16.086   0.664  10.910 -0.3216  0.3440 -0.1878
30178ION     NA48382   0.652  11.223  11.750 -0.0785  0.1420 -0.3025
30179ION     NA48383  11.812  11.583  10.003 -0.0534  0.0302  0.0601
30180ION     NA48384  15.697   0.742   4.877  0.2456  0.1386 -0.5569
30181ION     NA48385  15.650  15.385   4.553 -0.3097  0.0312  0.1011
30182ION     NA48386   7.885  11.691   5.085  0.2971 -0.3408  0.1359
30183ION     NA48387   8.169   7.880  11.169  0.0374 -0.0326  0.1013
30184ION     NA48388  15.159   1.314   9.638 -0.4573 -0.1377 -0.3123
30185ION     NA48389   0.457   0.318   5.329  0.2377  0.1071 -0.2278
30186ION     NA48390   3.558   5.760   5.666  0.0194  0.2192  0.3070
30187ION     NA48391   6.437   6.823   4.555 -0.2481  0.0210  0.0649
30188ION     NA48392   5.874  10.965  14.628 -0.0970 -0.2730 -0.0860
30189ION     NA48393  12.865   6.696   2.710  0.2135  0.1060  0.5719
30190ION     NA48394   3.468  11.230  13.842 -0.2549  0.3110 -0.0785
30191ION     NA48395   0.618  12.482   0.238  0.2355 -0.1293 -0.1452
30192ION     NA48396  11.542  18.399  12.287  0.1430 -0.1937 -0.0411
30193ION     NA48397   1.787   6.220  14.995 -0.0851 -0.0486  0.1138
30194ION     NA48398   9.539  12.476   5.426 -0.3744 -0.0563  0.1710
30195ION     NA48399  10.848  12.531   1.588 -0.0061 -0.0152  0.2269
30196ION     NA48400   5.786  16.205  10.249 -0.2210  0.0002 -0.1340
30197ION     NA48401  11.314   3.133   0.166 -0.1499  0.0147  0.1546
30198ION     NA48402   7.326   2.095   5.209  0.4338  0.2026  0.2798
30199ION     NA48403   4.520   0.472   5.563  0.1678 -0.0363 -0.1505
30200ION     NA48404  13.186  17.781   4.817  0.0077 -0.1414 -0.0952
30201ION     NA48405  16.058   3.801   5.129 -0.2081  0.1850  0.0981
30202ION     NA48406   6.515  18.823   4.467  0.3839 -0.0091 -0.2757
30203ION     NA48407   5.182   3.637   5.048  0.1487  0.3191 -0.1950
30204ION     NA48408   9.611   6.733  10.182 -0.1832  0.2236 -0.1835
30205ION     NA48409  18.098   2.730   4.962  0.3256  0.0212 -0.1420
30206ION     NA48410   4.086   9.475   5.329 -0.0519 -0.0347 -0.1333
30207ION     NA48411  13.739   8.924   9.650  0.1331 -0.0893 -0.0053
30208ION     NA48412   8.634   7.438   5.286  0.1415  0.3325 -0.3775
30209ION     NA48413   9.387   8.411   9.942 -0.0004  0.3458  0.1257
30210ION     NA48414   9.319  18.949  10.383  0.0728  0.0487  0.0315
30211ION     NA48415  16.285   8.494   4.404  0.2193  0.1853  0.1608
30212ION     NA48416   3.282   8.389  11.800  0.0301  0.1344 -0.1892
30213ION     NA48417   2.820  17.541   5.359 -0.0763  0.1508  0.0592
30214ION     NA48418   9.648   1.556  10.619  0.2640 -0.3039  0.2104
30215ION     NA48419  10.408   5.882   5.385 -0.1218  0.0701  0.0518
30216ION     NA48420   3.241   4.034  14.591 -0.1723  0.0772  0.1755
30217ION     NA48421   0.796   2.162  11.504  0.0634 -0.2886 -0.1356
30218ION     NA48422  13.271  13.371   3.730 -0.0262 -0.2187 -0.1016
30219ION     NA48423  17.189  11.605   5.256 -0.0018 -0.1343 -0.0498
30220ION     NA48424  16.702   6.977   5.337  0.1056  0.3830 -0.1156
30221ION     NA48425   8.160   0.903   0.571 -0.0877 -0.1596  0.1826
30222ION     NA48426   6.233  14.786   5.181 -0.1691  0.3204 -0.0576
30223ION     NA48427  16.966   1.470   5.171 -0.3062 -0.3299 -0.0411
30224ION     NA48428  10.307  15.372  11.420  0.0499  0.1889  0.0267
30225ION     NA48429  15.718   0.424   3.207  0.1044  0.1039 -0.1258
30226ION     NA48430  13.479  11.012   5.558  0.1531  0.0588 -0.3334
30227ION     NA48431  13.194   5.326   2.905 -0.1426 -0.1134  0.0395
30228ION     NA48432   3.356  15.756   3.641  0.0291  0.2377 -0.1476
30229ION     NA48433   6.223  13.448   5.174 -0.3071  0.1375 -0.1159
30230ION     NA48434  12.552   5.616   2.089 -0.2687  0.4337  0.1137
30231ION     NA48435  13.934   6.832   3.442  0.1293  0.0558  0.0801
30232ION     NA48436   9.146   2.405  10.791 -0.1716 -0.1049  0.1890
30233ION     NA48437  13.331   0.246   9.542 -0.2477 -0.2214 -0.1257
30234ION     NA48438   1.709  10.361   9.976  0.1030 -0.1623  0.0835
30235ION     NA48439  16.247   0.085  14.708  0.2120  0.1699 -0.0810
30236ION     NA48440   1.938   5.190  12.069  0.0949  0.0503  0.0832
30237ION     NA48441   6.903   9.392   3.928  0.1062  0.1631  0.0419
30238ION     NA48442   2.192  12.318   2.156  0.0728 -0.2144 -0.1446
30239ION     NA48443   0.623   9.160   1.568 -0.0548 -0.0660  0.1793
30240ION     NA48444   3.730   4.722   5.510 -0.1117 -0.2230  0.1446
30241ION     NA48445   2.275  18.142   9.944  0.0032 -0.1660 -0.0538
30242ION     NA48446  15.051  15.641  13.832  0.1303  0.4263 -0.2249
30243ION     NA48447   0.045   1.530   4.814  0.0286  0.2456  0.0021
30244ION     NA48448   4.344   3.348  10.142  0.0936  0.0107  0.1100
30245ION     NA48449  13.112   1.386   9.612  0.0265  0.1280 -0.0329
30246ION     NA48450   6.782  18.932  12.264 -0.1694  0.2054 -0.1759
30247ION     NA48451  17.470  10.870  10.143  0.0791 -0.0542 -0.0396
30248ION     NA48452  10.489   2.423   9.825  0.2980  0.0023 -0.4125
30249ION     NA48453  17.176  11.882  10.180  0.1024  0.1254  0.2756
30250ION     NA48454   8.933  13.596   5.453  0.1509  0.2536  0.0037
30251ION     NA48455   6.411  17.368  14.540  0.0632  0.1130 -0.1074
30252ION     NA48456  11.855  17.363  14.697  0.0339  0.0034 -0.0261
30253ION     NA48457   3.043  14.378  12.826 -0.1778  0.2793 -0.1885
30254ION     NA48458  14.899  14.320   3.842  0.0217  0.3091 -0.3067
30255ION     NA48459   9.602  16.191  13.493 -0.1279 -0.1867 -0.0301
30256ION     NA48460  18.078   5.367  13.822  0.1094 -0.1962 -0.1450
30257ION     NA48461   4.487   4.155  10.086 -0.2211  0.1600  0.1334
30258ION     NA48462   9.344  10.023  14.274 -0.1852  0.2833 -0.0783
30259ION     NA48463  16.127   6.605  14.027  0.1384 -0.0423 -0.0242
30260ION     NA48464   0.116  11.006   5.083  0.1716  0.0696 -0.0128
30261ION     NA48465  12.254   0.699   0.755 -0.1892  0.1784 -0.1371
30262ION     NA48466  15.566  16.345   4.888  0.0571 -0.4324 -0.2925
30263ION     NA48467  11.585   4.042   2.246  0.0143 -0.2932 -0.1662
30264ION     NA48468  13.679   9.748   9.642  0.1401 -0.2741 -0.2353
30265ION     NA48469   3.331  12.707   9.740 -0.2238  0.0613 -0.1233
30266ION     NA48470   5.641  11.520   9.856  0.2982 -0.0779 -0.1744
30267ION     NA48471  15.660  17.904   9.749 -0.1894 -0.2221  0.1582
30268ION     NA48472   4.462   9.945   1.229  0.1342 -0.0689  0.2415
30269ION     NA48473  18.338   1.923   5.059  0.1408 -0.4064  0.3277
30270ION     NA48474  16.073  14.142  12.890  0.0320  0.0051 -0.0960
30271ION     NA48475   7.197   7.077   5.421  0.0031  0.0906 -0.0447
30272ION     NA48476   8.304   5.881   1.185 -0.1809  0.2499  0.2110
30273ION     NA48477  10.921  12.585  10.253  0.1038  0.1209  0.0116
30274ION     NA48478   6.204   6.339   9.655 -0.3645  0.2887 -0.0609
30275ION     NA48479   1.570  14.581   0.576 -0.1388 -0.3037  0.2813
30276ION     NA48480  13.582  13.654   5.119  0.0868 -0.1623 -0.1696
30277ION     NA48481  11.115   4.995  13.984 -0.0171  0.1386  0.0750
30278ION     NA48482   7.291  12.730   1.964  0.1502  0.0709  0.0630
30279ION     NA48483   2.298   4.795   5.488 -0.0670  0.2085  0.0756
30280ION     NA48484  18.517  18.756   5.029  0.0389 -0.0388  0.4096
30281ION     NA48485  15.767   4.380   9.623  0.2777 -0.2982 -0.0769
30282ION     NA48486  11.899  17.533   1.154  0.0504  0.0408  0.0527
30283ION     NA48487   9.648  18.691   5.020 -0.0233  0.0094 -0.0065
30284ION     NA48488  17.389  16.513  13.358 -0.1588  0.2930  0.0668
30285ION     NA48489   2.352   8.014  13.342 -0.2114  0.1417  0.1308
30286ION     NA48490  14.361  16.940   9.708  0.1014 -0.1500 -0.0275
30287ION     NA48491   1.351   9.999   5.551 -0.1956  0.0170 -0.2549
30288ION     NA48492   8.053   6.838  11.350 -0.4922 -0.1278  0.0248
30289ION     NA48493   0.386   4.862  10.168 -0.3259 -0.2201 -0.0788
30290ION     NA48494  17.578   7.348  10.296 -0.0392  0.3008  0.3327
30291ION     NA48495   4.300  15.195   3.607 -0.2672  0.1596  0.0774
30292ION     NA48496   0.006   0.732  10.076 -0.1441 -0.4158  0.0085
30293ION     NA48497   7.310  13.809   5.391  0.3656 -0.1650 -0.1040
30294ION     NA48498   0.782  13.169  10.012  0.0295 -0.1040 -0.1071
30295ION     NA48499   5.177  14.721  10.422  0.2686  0.2207  0.1068
30296ION     NA48500   2.851  16.123   5.295 -0.2238 -0.1348  0.0421
30297ION     NA48501   7.381   6.525   9.989 -0.0489 -0.1103 -0.0642
30298ION     NA48502   8.934   1.279  13.755 -0.1021 -0.0926  0.1070
30299ION     NA48503   8.713  10.254  13.484  0.0613  0.1151 -0.1857
30300ION     NA48504  11.464   9.532   9.581 -0.2287 -0.3587  0.2747
30301ION     NA48505   4.069  11.611  14.919 -0.1438 -0.2831 -0.1203
30302ION     NA48506   3.051  16.208  14.732  0.1696 -0.0128  0.2862
30303ION     NA48507  16.378  13.916   4.963 -0.0553  0.2149  0.3316
30304ION     NA48508  15.468   9.036   2.295 -0.0767  0.2615 -0.1075
30305ION     NA48509   9.546   5.065  12.531 -0.2127  0.0570 -0.1142
30306ION     NA48510   1.064   3.460  10.647  0.2232 -0.0230  0.1648
30307ION     NA48511   1.302   6.662   5.553 -0.1198  0.0247  0.0591
30308ION     NA48512   7.930  16.444   1.973 -0.2708  0.0082  0.0501
30309ION     NA48513  10.485   8.138  10.089 -0.1214 -0.2034  0.1404
30310ION     NA48514  16.219   8.567   9.922 -0.0018  0.2286  0.1396
30311ION     NA48515   4.865   9.316  13.890 -0.1335 -0.2331 -0.2175
30312ION     NA48516  14.823   2.311   4.954  0.4130 -0.3729  0.2405
30313ION     NA48517   8.389   8.848   1.401 -0.0022  0.1369  0.2588
30314ION     NA48518  10.785  12.669  12.074  0.0818  0.1216 -0.1678
30315ION     NA48519   6.036  14.760   9.821  0.0539 -0.2948  0.2651
30316ION     NA48520  15.772  17.962  14.816  0.0920  0.0604  0.1275
30317ION     NA48521   6.358  18.551   0.469  0.2015  0.0990  0.1062
30318ION     NA48522   4.761  10.006   5.349  0.0494  0.4615  0.2766
30319ION     NA48523   5.839   7.941   9.799  0.1928 -0.0082  0.1442
30320ION     NA48524   1.106  12.100   1.956 -0.1894 -0.2084 -0.1319
30321ION     NA48525  14.385   7.205   9.816 -0.0521 -0.2619  0.1302
30322ION     NA48526   1.627   8.127  10.092  0.0869 -0.0141 -0.2169
30323ION     NA48527  11.890   8.972   5.300  0.1686  0.4726 -0.1657
30324ION     NA48528  18.221  11.745   5.306 -0.0035 -0.1034 -0.1368
30325ION     NA48529   4.114  12.664   9.988 -0.2567 -0.1938  0.2514
30326ION     NA48530  17.288   4.261  12.136  0.2694 -0.1237 -0.1046
30327ION     NA48531  15.936   9.734  10.565  0.1435  0.1163 -0.1948
30328ION     NA48532  17.312  18.930   9.883  0.1160 -0.1628 -0.2072
30329ION     NA48533  15.417  18.359   5.065  0.1261  0.0845 -0.0530
30330ION     NA48534  11.563   3.151   9.600 -0.0636  0.0618  0.1555
30331ION     NA48535   5.301  17.383   2.688 -0.3866  0.1455  0.1383
30332ION     NA48536   5.582  10.426   5.283  0.1215  0.3365 -0.0890
30333ION     NA48537  18.847   7.905   5.287  0.1214 -0.3904 -0.0327
30334ION     NA48538   2.554   2.757  14.534  0.1011 -0.1367 -0.0156
30335ION     NA48539   0.281  15.816   4.703 -0.2095 -0.0130  0.2281
30336ION     NA48540   9.876   2.321   2.596 -0.0810 -0.0906 -0.2842
30337ION     NA48541   0.658   3.104  10.033 -0.0249 -0.1334  0.1212
30338ION     NA48542   7.724   8.159   0.436  0.2314 -0.0096 -0.0575
30339ION     NA48543  18.498   5.299   5.241  0.2181  0.1823 -0.1443
30340ION     NA48544   0.909   6.519  14.844  0.0715 -0.0160  0.1951
30341ION     NA48545  16.867   0.479  11.791 -0.2379  0.1745 -0.3594
30342ION     NA48546  17.841   2.228  10.127  0.0040  0.1892 -0.1181
30343ION     NA48547   1.119   5.672   1.005 -0.0639  0.0141  0.3259
30344ION     NA48548  14.738   5.599   9.882  0.0044 -0.1039 -0.1842
30345ION     NA48549   0.270  18.441  10.216 -0.2231  0.1302  0.2446
30346ION     NA48550   6.904  18.866  10.417  0.1985 -0.2453  0.0536
30347ION     NA48551   8.912  13.151  10.080 -0.0827 -0.0038 -0.1599
30348ION     NA48552  16.095   7.754   1.373  0.2763 -0.1323 -0.1058
30349ION     NA48553   1.846  11.009   5.319  0.1256  0.1036 -0.0667
30350ION     NA48554   4.355   3.425   5.242  0.0336  0.2413  0.0678
30351ION     NA48555   5.995   9.205  14.994  0.3334  0.1159 -0.3372
30352ION     NA48556  10.691  16.175   4.881  0.0230  0.1674  0.4119
30353ION     NA48557   2.625  11.332   4.995  0.2717 -0.2513 -0.1924
30354ION     NA48558  16.951   4.176   4.208  0.0087  0.3884 -0.0975
30355ION     NA48559  10.434  17.107   5.142 -0.1658  0.1355 -0.1928
30356ION     NA48560   6.784  18.263  10.588  0.1663 -0.1488  0.0826
30357ION     NA48561   7.268   3.058   4.046 -0.0069  0.1655 -0.2692
30358ION     NA48562   9.022  18.041   5.326 -0.0896 -0.1094 -0.2677
30359ION     NA48563   4.077  13.973   5.372 -0.0962  0.0749 -0.0128
30360ION     NA48564  11.311  11.426   1.687  0.1241 -0.1420  0.1548
30361ION     NA48565   4.877  10.044  13.138 -0.0157 -0.3538  0.1147
30362ION     NA48566   2.029  17.177   4.832  0.0964 -0.2752 -0.0447
30363ION     NA48567  11.792   7.545   9.808 -0.0246 -0.3113 -0.0884
30364ION     NA48568  10.216  14.039   9.964  0.1058 -0.2006  0.0333
30365ION     NA48569   3.454  13.436  10.127 -0.2592  0.0196  0.2371
30366ION     NA48570  12.143   9.741   5.500  0.2340 -0.0460 -0.0324
30367ION     NA48571   2.023  10.044   4.168  0.2780 -0.0330 -0.3755
30368ION     NA48572   1.782  13.320  10.069  0.2396 -0.5137  0.0244
30369ION     NA48573  18.636   1.664   9.908 -0.0728 -0.0023  0.3944
30370ION     NA48574   6.800  16.301   5.478 -0.0289  0.0282 -0.2270
30371ION     NA48575  10.930   2.712   1.961  0.1651  0.1051 -0.1120
30372ION     NA48576   0.350  14.868   4.755  0.0170 -0.1034 -0.1118
30373ION     NA48577   3.568   3.048   2.443 -0.0151 -0.0886 -0.2413
30374ION     NA48578  14.498  15.174   1.002  0.3535  0.0229 -0.0731
30375ION     NA48579   5.028   7.528   9.788  0.1961 -0.0995 -0.1378
30376ION     NA48580  14.167   3.156   4.717  0.0397 -0.0345  0.2848
30377ION     NA48581   0.518   0.802   0.635  0.2225  0.1125  0.3034
30378ION     NA48582  16.964   0.599   4.913  0.1972  0.1723 -0.2138
30379ION     NA48583  11.055   4.037   9.680  0.0073 -0.3060  0.1408
30380ION     NA48584   8.890   2.498   1.667 -0.1239 -0.2600  0.0332
30381ION     NA48585   9.561  16.941   3.039 -0.4134  0.0620  0.1621
30382ION     NA48586  15.996  18.518   4.336  0.1283 -0.3045 -0.0331
30383ION     NA48587   4.624  16.042  10.078  0.2239 -0.1551 -0.1602
30384ION     NA48588   0.650  13.022  12.652  0.0046 -0.0802  0.1561
30385ION     NA48589   9.182  16.325  14.222 -0.0240 -0.1804  0.0219
30386ION     NA48590  12.596   4.199  14.929  0.1716  0.0583 -0.3749
30387ION     NA48591  16.083  18.944   5.046  0.2510  0.1281 -0.1574
30388ION     NA48592   0.701   7.993   4.986  0.3203 -0.0837  0.1142
30389ION     NA48593   3.013  12.480  10.778  0.0552  0.0392 -0.2594
30390ION     NA48594   2.503  11.584  10.242 -0.0500 -0.1652  0.1532
30391ION     NA48595   5.112  15.831   3.934  0.1829 -0.2946 -0.2235
30392ION     NA48596   1.332  14.888   9.610 -0.3399  0.4071 -0.1400
30393ION     NA48597  12.636  13.444  12.731  0.2924  0.1522 -0.3945
30394ION     NA48598   7.454  17.444   5.348 -0.2520 -0.2364 -0.1786
30395ION     NA48599  10.084   9.238   5.122  0.0330  0.4305 -0.1023
30396ION     NA48600   7.897   7.244   4.071 -0.0236  0.0270  0.1792
30397ION     NA48601  11.922  18.224   9.638  0.1048  0.0777 -0.4218
30398ION     NA48602   9.712   6.406   5.006 -0.1644  0.0931  0.1756
30399ION     NA48603  14.912   8.199  10.059 -0.0492  0.1181 -0.1390
30400ION     NA48604   1.812  10.683  14.527  0.0371  0.0836 -0.0717
30401ION     NA48605  13.360  18.413   3.898  0.0155  0.0620 -0.1085
30402ION     NA48606   5.514  10.620   9.719 -0.0731  0.1836  0.3064
30403ION     NA48607  15.794  12.654   9.858  0.0575 -0.1425 -0.1951
30404ION     NA48608   2.567  18.224  13.444 -0.2805  0.2017  0.0820
30405ION     NA48609   3.460   2.694  11.431  0.0504  0.1901 -0.2899
30406ION     NA48610   6.154  12.644   5.016 -0.2570 -0.1387  0.0932
30407ION     NA48611   9.074  17.378   0.930  0.2394  0.0655  0.1151
30408ION     NA48612  16.099   0.823   9.726 -0.2436 -0.0176  0.4228
30409ION     NA48613   6.508  14.280   5.243  0.1667 -0.3129  0.0663
30410ION     NA48614  15.224  11.056   9.988 -0.1488  0.2320  0.2264
30411ION     NA48615  17.203   0.348  13.195  0.0700  0.1093  0.1545
30412ION     NA48616  13.427   6.101   5.212 -0.0988 -0.1873 -0.0178
30413ION     NA48617   3.054   3.207  10.515 -0.1525  0.0215 -0.0127
30414ION     NA48618  16.071  13.085   5.156  0.0828 -0.0343 -0.2391
30415ION     NA48619   9.384   3.710   5.236 -0.2144 -0.2691 -0.2705
30416ION     NA48620  10.283  11.148  11.167  0.1043  0.0658 -0.1175
30417ION     NA48621  17.209   4.659   5.013 -0.3805  0.3093 -0.1150
30418ION     NA48622   0.839   6.173   5.049 -0.0023 -0.3521 -0.0170
30419ION     NA48623  12.444  18.390   4.899 -0.0739 -0.0521  0.0076
30420ION     NA48624   0.993  17.772   5.098 -0.0349  0.0614  0.0686
30421ION     NA48625   7.303  15.450   1.112  0.1843 -0.2111  0.1691
30422ION     NA48626  17.345  14.718   1.203  0.0912  0.0707  0.2578
30423ION     NA48627   9.822   8.479   2.948 -0.2130 -0.0251 -0.0052
30424ION     NA48628   7.526   1.778  10.298  0.3369 -0.1476  0.0596
30425ION     NA48629  14.984   3.771   9.792  0.2811 -0.1218  0.1661
30426ION     NA48630   4.621   1.600   5.679  0.0687 -0.1281 -0.1886
30427ION     NA48631   6.893   2.468  10.051  0.0016 -0.2812 -0.0815
30428ION     NA48632  18.097  12.263   1.165  0.0778  0.1315  0.2692
30429ION     NA48633  15.369   4.572   4.197 -0.1292 -0.2500  0.4347
30430ION     NA48634  11.180   2.156   5.171  0.3499 -0.0471  0.1116
30431ION     NA48635  12.999   5.697  10.085 -0.1546  0.4151 -0.0271
30432ION     NA48636  17.874   3.270  14.231 -0.1827 -0.3354 -0.0933
30433ION     NA48637  15.188   5.024   9.536  0.0956  0.1378  0.2679
30434ION     NA48638  12.024   4.710  13.113 -0.0536  0.2422 -0.1753
30435ION     NA48639   5.085   2.122  10.427 -0.0167 -0.0441 -0.0201
30436ION     NA48640  15.410  12.455  13.722 -0.0878  0.3597 -0.1244
30437ION     NA48641  12.397   6.074   4.874 -0.0839  0.1191  0.4335
30438ION     NA48642   3.672  18.848   5.756 -0.1791  0.2686 -0.0794
30439ION     NA48643   4.530  17.678   5.560  0.0166  0.0505  0.3501
30440ION     NA48644  14.034   1.006   9.697 -0.1917  0.0896 -0.0571
30441ION     NA48645   5.292  17.158  14.431  0.0972  0.0422 -0.1183
30442ION     NA48646  13.185  17.869   1.133  0.2862  0.1726  0.1186
30443ION     NA48647  16.429   1.348   1.826  0.1626  0.1077 -0.3221
30444ION     NA48648  10.484  14.329  12.707  0.0892  0.1072  0.1240
30445ION     NA48649  10.548   8.056   1.057  0.1383 -0.1431 -0.1392
30446ION     NA48650  15.306   9.073   9.703  0.1677  0.1738  0.0054
30447ION     NA48651  13.449   4.569   5.028  0.1636 -0.2513  0.2558
30448ION     NA48652   7.812  14.922   9.974  0.2516 -0.0994  0.1161
30449ION     NA48653   9.085   3.542   9.991 -0.0206 -0.1037  0.1875
30450ION     NA48654   6.496  18.096   5.105  0.0337  0.0885 -0.0977
30451ION     NA48655  10.593   6.633   1.956 -0.0619 -0.0487  0.0984
30452ION     NA48656   2.455  13.345   9.809  0.2689 -0.1839  0.0417
30453ION     NA48657   0.715   9.832  11.286  0.0971 -0.1868 -0.1417
30454ION     NA48658  17.301   7.631   5.261  0.1754 -0.2612  0.1396
30455ION     NA48659   9.314   3.314   1.786  0.0077  0.1955 -0.2862
30456ION     NA48660  14.644   0.784   5.038 -0.1608 -0.0777  0.0071
30457ION     NA48661  12.183  17.399   9.678 -0.2142  0.2202  0.3227
30458ION     NA48662  13.779  14.587   5.021  0.1080  0.0851 -0.0021
30459ION     NA48663   1.949   6.716  12.143 -0.0578  0.1692  0.2432
30460ION     NA48664   4.416   6.780   5.566  0.1154 -0.3988  0.0888
30461ION     NA48665   2.089   2.912   1.086 -0.0076 -0.0218 -0.2752
30462ION     NA48666   2.130   7.057   2.452  0.0893  0.0322  0.1983
30463ION     NA48667   8.103  12.173   3.353 -0.1627 -0.1122  0.1181
30464ION     NA48668  18.441   7.112   5.402  0.1878  0.1371  0.0561
30465ION     NA48669   3.732  11.282   3.540 -0.0411 -0.0521 -0.1730
30466ION     NA48670   6.889   6.734  14.594 -0.4581  0.0144 -0.1752
30467ION     NA48671   8.347  17.442  10.298  0.0905  0.2010  0.0932
30468ION     NA48672  16.629  16.375   4.888  0.1376 -0.0995 -0.1778
30469ION     NA48673   1.056  10.018  10.233 -0.0378 -0.1788  0.1985
30470ION     NA48674  14.431  18.212   4.600 -0.1276  0.2692  0.3775
30471ION     NA48675   1.026   4.781  13.874  0.1129 -0.0903  0.2453
30472ION     NA48676   0.324   3.075   1.482  0.2990  0.1619  0.0239
30473ION     NA48677  10.780  15.273  12.840 -0.0509  0.0259 -0.3844
30474ION     NA48678   4.691  16.626   3.644  0.0652  0.2111  0.3302
30475ION     NA48679   4.486   9.770   9.965 -0.5890  0.3827 -0.3193
30476ION     NA48680   6.388  15.650  10.083  0.2123  0.0092 -0.1813
30477ION     NA48681   7.729  13.387   0.571  0.1849 -0.0571 -0.0135
30478ION     NA48682   3.422   2.101   5.402 -0.0529 -0.0837 -0.0453
30479ION     NA48683   5.720   6.081   4.961  0.0885  0.2744  0.1921
30480ION     NA48684   0.748  18.759   0.950 -0.3770  0.2171 -0.1911
30481ION     NA48685   2.725   9.156  10.249 -0.1379 -0.0851 -0.1933
30482ION     NA48686   1.895  13.046   5.197  0.2712 -0.2163 -0.2375
30483ION     NA48687  17.730   4.996   0.007 -0.2000  0.0245 -0.1261
30484ION     NA48688  14.439  11.200  12.168  0.0908  0.1069  0.1326
30485ION     NA48689  10.340  12.024   5.325 -0.0655  0.0246 -0.0397
30486ION     NA48690   3.827  12.077   1.142 -0.2516 -0.1359 -0.1037
30487ION     NA48691   0.929  17.080   2.476 -0.1490  0.1098  0.2824
30488ION     NA48692   7.605  18.912   5.188 -0.0923  0.3664  0.2804
30489ION     NA48693   5.608   5.107   3.939 -0.2186  0.2159  0.0757
30490ION     NA48694  18.476  15.106   2.607  0.2579  0.1163 -0.0893
30491ION     NA48695   3.216  17.780  14.107 -0.1944 -0.0126 -0.0255
30492ION     NA48696  11.700  10.162   5.472  0.1236 -0.0255  0.1154
30493ION     NA48697   8.460   9.282   4.770 -0.2743 -0.2216 -0.0040
30494ION     NA48698  13.704  18.540   4.872  0.2372 -0.0061  0.0765
30495ION     NA48699   4.774  11.087   0.202  0.0725 -0.1708 -0.2225
30496ION     NA48700   3.579  13.185   3.928  0.1970 -0.3104 -0.0293
30497ION     NA48701   3.218  18.733   9.890  0.0242 -0.1361  0.4000
30498ION     NA48702  18.707  12.823   9.945 -0.2248 -0.0237 -0.1739
30499ION     NA48703   9.458   4.202  13.189  0.0659 -0.0085 -0.2774
30500ION     NA48704  15.389  14.490   4.914 -0.2161 -0.2236 -0.0341
30501ION     NA48705  15.189  15.669  11.862  0.0742 -0.2446 -0.1130
30502ION     NA48706   0.132   0.748   5.097 -0.2551  0.2113 -0.2437
30503ION     NA48707  17.638  13.934   9.868 -0.2509 -0.2644 -0.2297
30504ION     NA48708   9.456   6.251   0.404 -0.2353 -0.1813 -0.2213
30505ION     NA48709  12.164   6.942  11.235 -0.0486  0.1699  0.0150
30506ION     NA48710   7.250  11.219  10.248  0.1452 -0.1090  0.0008
30507ION     NA48711  13.873  10.948  14.390 -0.1169  0.1796  0.0522
30508ION     NA48712   8.663  11.865  12.969 -0.1781  0.1017  0.0359
30509ION     NA48713  12.686   6.948   9.963 -0.1481  0.0112 -0.0089
30510ION     NA48714  10.862   6.531   5.228 -0.0577  0.2367  0.0824
30511ION     NA48715   3.245   3.258  12.841  0.1547 -0.0179 -0.2082
30512ION     NA48716   5.553   9.486   9.889  0.0393 -0.1522  0.1427
30513ION     NA48717   1.996   2.425   5.269 -0.0775 -0.2678  0.1997
30514ION     NA48718   6.722   5.210  12.848 -0.0405 -0.0401 -0.0852
30515ION     NA48719   6.630   6.934   5.408 -0.1598 -0.3454 -0.1096
30516ION     NA48720   7.189  18.273   0.187 -0.2348  0.1903 -0.1896
30517ION     NA48721   9.965   2.064   0.335  0.1152  0.0369  0.0276
30518ION     NA48722  12.718   1.182   0.134  0.2096  0.0383 -0.1066
30519ION     NA48723  10.584  13.628   4.841  0.0218  0.0125 -0.1985
30520ION     NA48724  18.430  15.558   4.934 -0.0375 -0.3869 -0.0882
30521ION     NA48725   6.255   4.488  10.016  0.0082 -0.0345 -0.1405
30522ION     NA48726  12.486   1.922   9.617 -0.0449  0.1101  0.0412
30523ION     NA48727   3.962  15.605   4.863 -0.0126  0.2952  0.3645
30524ION     NA48728  16.508   6.460  10.141  0.0090 -0.3045  0.2521
30525ION     NA48729   0.832   2.513  14.268  0.2355  0.3069 -0.0407
30526ION     NA48730   0.567   5.311  15.011 -0.2007 -0.0646  0.1233
30527ION     NA48731   1.596  11.404  10.199 -0.0605 -0.0565  0.0461
30528ION     NA48732  11.387   5.751   9.758  0.1128  0.1123  0.2548
30529ION     NA48733   7.196  10.195  10.232 -0.2577 -0.2766 -0.2055
30530ION     NA48734  16.382   8.212   5.275 -0.0668 -0.0800 -0.0670
30531ION     NA48735  12.657  15.913   4.703  0.0933  0.2241 -0.0954
30532ION     NA48736   9.900   6.286   1.243 -0.0515 -0.2937  0.3072
30533ION     NA48737   2.133   1.484   9.997  0.0306 -0.0816  0.0542
30534ION     NA48738   9.943  16.422   5.197  0.2899 -0.2085 -0.1119
30535ION     NA48739   7.093   5.114  13.241 -0.0243  0.1252  0.0432
30536ION     NA48740   1.986   5.823   5.334  0.1441  0.2048 -0.1158
30537ION     NA48741   1.481  10.576  12.715 -0.0663 -0.1039 -0.2246
30538ION     NA48742   6.801   0.746  10.236 -0.0791 -0.0103 -0.0578
30539ION     NA48743   6.345  15.939  12.304 -0.1336 -0.0687 -0.2627
30540ION     NA48744  16.242  14.570   9.597 -0.0496  0.0285 -0.1442
30541ION     NA48745   5.254   7.050   9.886  0.0061  0.0757  0.0119
30542ION     NA48746   0.267  18.735  14.610 -0.0860  0.0950  0.0080
30543ION     NA48747   7.774   0.135  11.192  0.2290  0.0150 -0.2239
30544ION     NA48748  18.095   8.085  13.304 -0.2968 -0.2378  0.0968
30545ION     NA48749   5.663  17.648   5.642  0.1238 -0.0140 -0.1123
30546ION     NA48750   4.693  13.353  13.295 -0.2074  0.0730  0.3266
30547ION     NA48751  12.472   2.606   4.569  0.1023 -0.2163  0.1404
30548ION     NA48752   6.004  15.946  13.184 -0.1705  0.1223 -0.1148
30549ION     NA48753  12.376   6.787   3.434  0.1595  0.0928  0.3129
30550ION     NA48754  14.150   3.859   9.691 -0.0109  0.2020 -0.0031
30551ION     NA48755   7.253   4.215  10.189  0.0196 -0.0787  0.0276
30552ION     NA48756  14.606   1.701   4.938  0.3472 -0.0340 -0.1509
30553ION     NA48757  10.075  18.765   9.833  0.0366  0.0984  0.0094
30554ION     NA48758   4.106   5.399  10.819 -0.0823  0.2520 -0.2686
30555ION     NA48759  15.354  10.486   4.328 -0.0156 -0.2944 -0.2068
30556ION     NA48760   6.750  18.570  13.174 -0.0403 -0.1912  0.0396
30557ION     NA48761  14.584   6.547  13.322 -0.0963 -0.2609 -0.2169
30558ION     NA48762   5.123   8.261   5.416  0.4320  0.0058  0.1148
30559ION     NA48763  18.760   8.067   2.198 -0.1483 -0.4232  0.0247
30560ION     NA48764   7.091   5.293   2.732 -0.1009 -0.0895 -0.0508
30561ION     NA48765   8.385   2.245   5.132 -0.2066 -0.0213  0.1152
30562ION     NA48766   9.211  15.115   9.998  0.0930  0.0048  0.1500
30563ION     NA48767   9.368  16.497   0.535 -0.2909 -0.2068  0.0982
30564ION     NA48768   3.721  17.772   5.585  0.2726 -0.2299  0.3084
30565ION     NA48769   1.693  14.037   3.883 -0.2464  0.0542  0.1364
30566ION     NA48770   9.007   5.946   5.245  0.3343  0.0577  0.0112
30567ION     NA48771  14.406   8.620   0.491 -0.0784 -0.2841 -0.0624
30568ION     NA48772  15.118  11.966   9.741 -0.0094  0.2090 -0.1079
30569ION     NA48773  13.380  14.561   9.850 -0.5068  0.0265  0.1194
30570ION     NA48774  11.866   7.927   5.219 -0.1134  0.2890 -0.1982
30571ION     NA48775  17.339  13.158   2.760  0.0744 -0.2575 -0.0781
30572ION     NA48776   8.030   2.393  13.383 -0.0085  0.0922  0.1422
30573ION     NA48777   6.682  10.732   4.272  0.2773  0.0998  0.1364
30574ION     NA48778  12.911  13.614   9.960 -0.1984 -0.0110  0.2820
30575ION     NA48779  12.710   5.881  13.700 -0.4648  0.0544  0.1595
30576ION     NA48780   3.379   1.343   0.886 -0.2370 -0.0546 -0.1240
30577ION     NA48781   0.307   4.580   5.201  0.0135 -0.0085 -0.0135
30578ION     NA48782  12.433  15.314   4.578 -0.3676  0.1677 -0.0057
30579ION     NA48783   2.853  18.007   3.854  0.1315 -0.1594 -0.0861
30580ION     NA48784   5.476   3.941  10.198  0.1349 -0.5260  0.0732
30581ION     NA48785  12.433   8.388   1.750  0.0178 -0.2104  0.2798
30582ION     NA48786   2.605  15.464   4.235 -0.1285 -0.0571  0.1173
30583ION     NA48787  16.621  13.032   1.335  0.3839 -0.0865 -0.1832
30584ION     NA48788  12.618  11.867   9.964 -0.2696  0.2538 -0.0544
30585ION     NA48789   0.122  17.935   5.059  0.1651 -0.3979 -0.0332
30586ION     NA48790  14.161  12.204  14.430  0.0150  0.1120  0.0588
30587ION     NA48791   9.617   0.794   4.936 -0.3135 -0.3598 -0.1965
30588ION     NA48792  10.957   2.889   1.038 -0.0782 -0.1782 -0.1279
30589ION     NA48793   7.680   6.193   3.999 -0.0367  0.0780 -0.1408
30590ION     NA48794   9.105  16.246   9.945 -0.0940 -0.2977 -0.3364
30591ION     NA48795  13.133   3.756   5.161  0.0022 -0.1758 -0.2778
30592ION     NA48796  11.960   4.843   9.707 -0.0674  0.0524  0.1955
30593ION     NA48797   8.039  14.253  13.886 -0.2131  0.2094 -0.2264
30594ION     NA48798   6.479   0.024   5.296  0.2397  0.0840  0.3170
30595ION     NA48799  13.293   7.810   5.244  0.1521 -0.3432  0.0264
30596ION     NA48800   1.870  13.321   0.638 -0.1748  0.2970  0.0619
30597ION     NA48801   9.648  18.218  14.292 -0.2552  0.1190 -0.3782
30598ION     NA48802   9.151  17.157  12.780 -0.0032 -0.4130 -0.0659
30599ION     NA48803  12.124   7.531   1.660 -0.1634 -0.3920  0.0783
30600ION     NA48804   0.769   3.226   5.385  0.0409  0.0949 -0.3906
30601ION     NA48805  14.620   4.362   0.688 -0.0164 -0.0718 -0.1884
30602ION     NA48806   0.455   4.624   0.744 -0.0782 -0.0037 -0.0291
30603ION     NA48807   5.765  16.947   5.337  0.1974 -0.0506  0.1850
30604ION     NA48808   8.852  15.404  13.729  0.1422  0.2735 -0.2088
30605ION     NA48809  15.426  17.995   2.548  0.1858  0.0378  0.4066
30606ION     NA48810   2.654   1.858   5.012 -0.0774  0.2036 -0.0079
30607ION     NA48811   7.638  17.265   1.165  0.1199  0.0973 -0.1843
30608ION     NA48812   9.169  13.024   2.411 -0.0301 -0.1847  0.3227
30609ION     NA48813   5.728   9.492   5.405 -0.4740  0.3003 -0.3285
30610ION     NA48814  17.122  16.963   4.602  0.1636 -0.0628 -0.1533
30611ION     NA48815   0.604  17.991   9.947 -0.1544  0.1174  0.1996
30612ION     NA48816   2.388   5.921   9.945  0.1602  0.0894  0.2661
30613ION     NA48817  14.109  11.728   5.226  0.0246 -0.0520  0.1434
30614ION     NA48818   0.783  12.034  11.280 -0.1666 -0.0171 -0.0702
30615ION     NA48819   3.240   7.590  10.040 -0.0919  0.3049  0.2670
30616ION     NA48820  15.006  17.459   9.646  0.1292 -0.2675  0.3000
30617ION     NA48821   9.122  18.854   9.934  0.2564 -0.0105 -0.0026
30618ION     NA48822   3.598  12.458  12.540 -0.1648 -0.0514  0.0252
30619ION     NA48823  10.460  18.664  14.501 -0.1272  0.0899 -0.1114
30620ION     NA48824  15.830  11.360   0.660 -0.1739  0.0697 -0.1429
30621ION     NA48825  18.020   2.697   1.070  0.3192  0.1296  0.1756
30622ION     NA48826  18.834   6.224   5.384 -0.0517 -0.0099 -0.0701
30623ION     NA48827  13.921   1.796   3.767 -0.1786 -0.1751  0.1696
30624ION     NA48828   4.739  13.568   4.949 -0.1463 -0.1209 -0.1848
30625ION     NA48829   0.319   2.451   5.113  0.2464  0.0087  0.0751
30626ION     NA48830   6.008  15.537   0.150  0.1087  0.2107 -0.0410
30627ION     NA48831  10.677   5.354   9.825 -0.1510  0.5929 -0.1426
30628ION     NA48832   2.755   7.020   5.508  0.1450 -0.1577  0.4867
30629ION     NA48833  17.344  15.706   9.827  0.2639  0.2391 -0.1153
30630ION     NA48834   6.761   0.939   0.043  0.2030  0.0810  0.1724
30631ION     NA48835   2.152   6.060   4.128 -0.5187 -0.2009  0.0105
30632ION     NA48836   3.940   8.212   1.829 -0.1886  0.1908  0.0985
30633ION     NA48837  13.786   9.580   5.496 -0.1983 -0.0039 -0.1777
30634ION     NA48838   0.810   8.325   0.986  0.2734  0.0370  0.0297
30635ION     NA48839  17.024   1.809   9.979 -0.1053  0.4146  0.2551
30636ION     NA48840  15.260  12.558   5.249  0.0968  0.0136  0.0769
30637ION     NA48841   4.805  15.947   4.967  0.0006  0.0826  0.1185
30638ION     NA48842   5.034  11.913   0.015 -0.2107  0.1378 -0.0906
30639ION     NA48843  14.322   7.858   5.243  0.0453 -0.2116 -0.0921
30640ION     NA48844  13.452   0.978   4.895  0.1675 -0.2437 -0.1813
30641ION     NA48845  18.011   9.935   5.431 -0.0368 -0.1144  0.0070
30642ION     NA48846  16.240   1.365   4.757 -0.0725  0.3112 -0.0673
30643ION     NA48847   9.693  17.307   5.381  0.0615 -0.1104  0.1369
30644ION     NA48848  15.814   0.869   3.522  0.2544  0.0959 -0.2105
30645ION     NA48849   4.838  17.434   9.815  0.0500 -0.0982  0.1882
30646ION     NA48850   3.927   1.449   2.936  0.0684 -0.2889 -0.3673
30647ION     NA48851  16.093  14.786   3.244  0.0258  0.2317  0.0912
30648ION     NA48852  11.353  17.684   4.991 -0.0418  0.0914  0.0100
30649ION     NA48853  11.976  10.374   3.360  0.0564 -0.2616 -0.0387
30650ION     NA48854  11.963  13.793   4.704  0.0489 -0.2957 -0.0097
  18.95553  18.95553  15.03352
