INSANE! Membrane UpperLeaflet>loPI:POPI:DPPI:PYPI:ERGO=180.0:5.0:3.0:2.0:10.0 LowerLeaflet>loPI:POPI:DPPI:PYPI:ERGO=180.0:5.0:3.0:2.0:10.0
49303
    1loPI    C1    1   3.132  11.169  11.466 -0.0434  0.0036 -0.0027
    1loPI    C2    2   3.431  10.998  11.670 -0.0458 -0.0757 -0.0650
    1loPI    C3    3   3.180  11.249  11.855  0.1457  0.1038 -0.0456
    1loPI   PO4    4   3.127  11.321  11.300 -0.0841 -0.0647 -0.0833
    1loPI   GL1    5   3.033  11.343  10.941 -0.0751 -0.5714  0.4744
    1loPI   GL2    6   2.792  11.442  10.638  0.1177  0.0119 -0.0350
    1loPI   C1A    7   3.302  11.203  10.601  0.1582 -0.0853 -0.0717
    1loPI   C2A    8   3.245  11.266  10.225  0.2314 -0.2316 -0.0746
    1loPI   C3A    9   3.194  11.194   9.799 -0.0047 -0.0742  0.2752
    1loPI   C4A   10   3.124  11.301   9.405  0.3987 -0.0622 -0.0910
    1loPI   C5A   11   3.170  11.340   8.959 -0.1520 -0.1454  0.1542
    1loPI   C6A   12   3.415  11.291   8.543  0.0296  0.0235  0.0727
    1loPI   C1B   13   2.731  11.389  10.248  0.1068 -0.0602  0.2452
    1loPI   C2B   14   2.745  11.426   9.774 -0.3287 -0.0143 -0.0283
    1loPI   C3B   15   2.690  11.537   9.331 -0.0750 -0.0110 -0.1137
    1loPI   C4B   16   2.627  11.477   8.908 -0.1639  0.0875  0.0868
    2loPI    C1   17   7.096   0.636  11.720 -0.0907  0.0076  0.0617
    2loPI    C2   18   6.911   0.965  11.852 -0.3678 -0.1315  0.0253
    2loPI    C3   19   7.088   0.718  12.112  0.1667  0.2339  0.0225
    2loPI   PO4   20   7.012   0.618  11.501  0.4912  0.4500  0.0812
    2loPI   GL1   21   7.215   0.569  11.109  0.0721  0.0274  0.1250
    2loPI   GL2   22   7.206   0.864  10.945 -0.2319  0.2517  0.0342
    2loPI   C1A   23   7.083   0.397  10.733 -0.0530  0.2692 -0.0969
    2loPI   C2A   24   7.003   0.363  10.350  0.0775 -0.2138 -0.1147
    2loPI   C3A   25   7.086   0.363   9.911 -0.0356 -0.4271  0.0196
    2loPI   C4A   26   7.107   0.352   9.477  0.4320  0.2142 -0.1131
    2loPI   C5A   27   7.076   0.414   9.087  0.1143  0.3234  0.2166
    2loPI   C6A   28   7.007   0.772   8.798  0.0727  0.0631  0.0903
    2loPI   C1B   29   7.347   0.807  10.591  0.1025  0.1534 -0.3747
    2loPI   C2B   30   7.268   0.815  10.151  0.3673 -0.2299 -0.1687
    2loPI   C3B   31   7.423   0.826   9.814  0.1072 -0.3951 -0.1870
    2loPI   C4B   32   7.393   0.907   9.402  0.0366  0.1015  0.0132
    3loPI    C1   33   4.192  14.206  11.341  0.2619 -0.1641  0.0065
    3loPI    C2   34   4.490  14.297  11.592  0.0415  0.2820  0.1166
    3loPI    C3   35   4.135  14.476  11.630 -0.1498 -0.0160 -0.2060
    3loPI   PO4   36   4.315  14.206  11.117 -0.1820 -0.1481 -0.2111
    3loPI   GL1   37   4.234  14.033  10.751  0.0428  0.1071 -0.1334
    3loPI   GL2   38   4.022  13.820  10.778  0.1436  0.2845 -0.0609
    3loPI   C1A   39   4.275  14.153  10.245  0.1247  0.3342 -0.2401
    3loPI   C2A   40   4.303  14.165   9.789 -0.0182 -0.1946 -0.3562
    3loPI   C3A   41   4.102  14.272   9.386 -0.1288 -0.1659  0.0917
    3loPI   C4A   42   4.146  14.272   8.926  0.1342 -0.1496  0.1541
    3loPI   C5A   43   4.213  14.079   8.613  0.0757 -0.1212  0.3430
    3loPI   C6A   44   4.094  13.835   8.272 -0.2817  0.1318  0.0401
    3loPI   C1B   45   3.757  13.929  10.388 -0.1625 -0.1891 -0.0255
    3loPI   C2B   46   3.817  14.203  10.062  0.0448 -0.1349 -0.0020
    3loPI   C3B   47   4.192  14.585  10.009  0.0941 -0.1420 -0.2391
    3loPI   C4B   48   4.338  14.708   9.618  0.3188 -0.3746 -0.2327
    4loPI    C1   49   8.893   6.696  11.509 -0.0221  0.5441  0.0541
    4loPI    C2   50   9.264   6.840  11.556  0.1215  0.1947  0.0182
    4loPI    C3   51   9.091   6.631  11.851  0.0952  0.0471 -0.1005
    4loPI   PO4   52   8.868   6.539  11.198  0.1003  0.1547 -0.0564
    4loPI   GL1   53   8.909   6.505  10.756  0.0368 -0.0350  0.1944
    4loPI   GL2   54   8.826   6.255  10.785 -0.0949 -0.3737  0.0444
    4loPI   C1A   55   9.020   6.629  10.327  0.0219 -0.2186  0.2021
    4loPI   C2A   56   8.999   6.605   9.830  0.1889 -0.2680 -0.1640
    4loPI   C3A   57   9.072   6.371   9.424 -0.1234  0.1501  0.1885
    4loPI   C4A   58   8.984   6.014   9.239  0.1100 -0.2268  0.0223
    4loPI   C5A   59   9.060   5.863   8.939  0.0922 -0.1250  0.0010
    4loPI   C6A   60   8.987   5.543   8.622  0.0036  0.1289  0.2826
    4loPI   C1B   61   8.622   6.281  10.412 -0.1663 -0.3655 -0.1345
    4loPI   C2B   62   8.768   6.197  10.024  0.0518 -0.2751 -0.1883
    4loPI   C3B   63   8.948   5.964   9.768  0.2896 -0.1236  0.0030
    4loPI   C4B   64   9.281   5.879   9.704 -0.0830  0.1659  0.1183
    5loPI    C1   65  10.995   3.736  11.544  0.0243  0.1541 -0.3011
    5loPI    C2   66  11.304   3.553  11.721 -0.2573  0.0334  0.0767
    5loPI    C3   67  11.283   3.952  11.718 -0.1717  0.0391  0.1813
    5loPI   PO4   68  11.058   3.686  11.243  0.1399 -0.1526  0.2021
    5loPI   GL1   69  11.251   3.644  10.865 -0.1115 -0.0685  0.0036
    5loPI   GL2   70  11.431   3.947  10.921  0.1328  0.0452  0.2959
    5loPI   C1A   71  11.275   3.635  10.475 -0.0467  0.0338  0.0360
    5loPI   C2A   72  11.287   3.658  10.012 -0.2515 -0.0938 -0.1641
    5loPI   C3A   73  11.285   3.650   9.565  0.3540 -0.0133  0.1830
    5loPI   C4A   74  11.445   3.651   9.122 -0.0024 -0.0719  0.1108
    5loPI   C5A   75  11.367   3.863   8.691 -0.1078 -0.0087 -0.1190
    5loPI   C6A   76  11.257   4.254   8.489  0.1876  0.0423  0.0621
    5loPI   C1B   77  11.490   4.197  10.520 -0.0102 -0.2873  0.2600
    5loPI   C2B   78  11.541   4.096  10.108 -0.1477  0.0817  0.1049
    5loPI   C3B   79  11.640   4.150   9.722  0.0860  0.0075 -0.0372
    5loPI   C4B   80  11.558   4.077   9.263 -0.0380  0.0372 -0.3050
    6loPI    C1   81   0.561   2.340  11.945 -0.1995 -0.1415  0.0774
    6loPI    C2   82   0.315   2.452  12.239 -0.1594  0.1220  0.0126
    6loPI    C3   83   0.505   2.102  12.262 -0.2577  0.0812  0.2369
    6loPI   PO4   84   0.490   2.368  11.697 -0.2199  0.1668 -0.0058
    6loPI   GL1   85   0.403   2.474  11.224 -0.0111  0.1469  0.0385
    6loPI   GL2   86   0.733   2.565  11.258  0.0509  0.3299 -0.2493
    6loPI   C1A   87   0.098   2.294  10.887  0.1200  0.2251  0.1376
    6loPI   C2A   88   0.051   2.343  10.498 -0.0656  0.0344  0.2003
    6loPI   C3A   89   0.078   2.388  10.033  0.1596  0.1704 -0.2271
    6loPI   C4A   90   0.025   2.308   9.675  0.2502 -0.0717 -0.0848
    6loPI   C5A   91  -0.035   2.426   9.297 -0.1244 -0.3581  0.0580
    6loPI   C6A   92  -0.049   2.228   8.895  0.0529  0.4036  0.1111
    6loPI   C1B   93   0.576   2.415  10.800 -0.4144  0.1624  0.5414
    6loPI   C2B   94   0.563   2.388  10.350 -0.1778  0.2785  0.0986
    6loPI   C3B   95   0.542   2.394   9.874  0.4434  0.1247 -0.1203
    6loPI   C4B   96   0.576   2.432   9.413  0.5521  0.0049  0.0044
    7loPI    C1   97  17.413   1.836  12.039 -0.0455  0.2220  0.1737
    7loPI    C2   98  17.738   2.067  12.060  0.1574 -0.0627  0.2338
    7loPI    C3   99  17.456   2.093  12.342  0.0971  0.2254  0.1511
    7loPI   PO4  100  17.348   1.821  11.761 -0.2628 -0.1532  0.0383
    7loPI   GL1  101  17.441   1.643  11.336  0.2998  0.1229  0.1819
    7loPI   GL2  102  17.347   1.397  11.109  0.1602 -0.0473 -0.0095
    7loPI   C1A  103  17.582   1.829  10.896  0.3555 -0.3253  0.0473
    7loPI   C2A  104  17.433   1.947  10.492 -0.0432  0.0238  0.1001
    7loPI   C3A  105  17.475   1.972  10.100  0.2133 -0.0770  0.3810
    7loPI   C4A  106  17.431   1.913   9.649  0.2117  0.0902  0.1078
    7loPI   C5A  107  17.520   1.873   9.208  0.1560  0.0365  0.1442
    7loPI   C6A  108  17.263   1.662   8.917  0.0383  0.2908 -0.0913
    7loPI   C1B  109  17.228   1.486  10.676 -0.4074  0.1913  0.1536
    7loPI   C2B  110  17.253   1.536  10.264 -0.1521  0.1894  0.2559
    7loPI   C3B  111  17.184   1.545   9.902  0.2582  0.0953 -0.1429
    7loPI   C4B  112  17.254   1.527   9.444 -0.0689  0.0804 -0.0960
    8loPI    C1  113   8.697   8.093  11.656 -0.2081 -0.3024 -0.1135
    8loPI    C2  114   8.576   7.912  11.991 -0.0819 -0.3132 -0.0731
    8loPI    C3  115   8.449   8.282  11.906  0.0690 -0.2193  0.1037
    8loPI   PO4  116   8.675   7.943  11.479  0.1772  0.0596 -0.4220
    8loPI   GL1  117   8.532   7.973  11.062  0.0046  0.0849 -0.0339
    8loPI   GL2  118   8.840   7.901  11.029 -0.1135  0.1856  0.1850
    8loPI   C1A  119   8.226   8.022  10.732 -0.1499 -0.1356 -0.0005
    8loPI   C2A  120   7.999   8.004  10.353  0.2990  0.2548  0.2338
    8loPI   C3A  121   7.968   7.928   9.949  0.0920  0.0949 -0.4963
    8loPI   C4A  122   7.905   7.948   9.614 -0.2630 -0.2840  0.1591
    8loPI   C5A  123   7.747   7.978   9.177  0.1865 -0.1455  0.1636
    8loPI   C6A  124   7.813   7.876   8.758 -0.1765  0.1514  0.2086
    8loPI   C1B  125   8.711   7.967  10.580  0.1341  0.0254 -0.1438
    8loPI   C2B  126   8.444   7.882  10.236 -0.1500 -0.0213  0.1944
    8loPI   C3B  127   8.428   7.795   9.792  0.0754  0.1581  0.2102
    8loPI   C4B  128   8.259   7.777   9.275 -0.2075  0.2111  0.2849
    9loPI    C1  129   2.087   3.897  11.781  0.0719  0.0861 -0.0301
    9loPI    C2  130   1.866   4.189  11.941  0.0740  0.1184 -0.0856
    9loPI    C3  131   2.218   4.091  12.105 -0.1111 -0.1275  0.1760
    9loPI   PO4  132   1.977   3.836  11.587 -0.3031 -0.0585  0.4626
    9loPI   GL1  133   1.914   3.917  11.107 -0.0831 -0.0086  0.2084
    9loPI   GL2  134   2.227   3.923  11.139 -0.0895  0.0430 -0.3585
    9loPI   C1A  135   1.807   3.795  10.741 -0.0377 -0.1237  0.3321
    9loPI   C2A  136   1.789   3.803  10.294 -0.0363 -0.2427  0.1499
    9loPI   C3A  137   1.839   3.688   9.989 -0.1088  0.1553  0.2821
    9loPI   C4A  138   1.846   3.698   9.456  0.1691  0.1863 -0.0847
    9loPI   C5A  139   2.029   3.768   9.108  0.3871  0.1294 -0.0170
    9loPI   C6A  140   2.091   3.777   8.674 -0.3088  0.0303  0.1421
    9loPI   C1B  141   2.293   3.870  10.757 -0.2012  0.2035  0.1770
    9loPI   C2B  142   2.415   3.791  10.366 -0.0683 -0.2838  0.2117
    9loPI   C3B  143   2.288   3.798   9.988  0.0538 -0.0508 -0.2294
    9loPI   C4B  144   2.348   3.722   9.601 -0.2811 -0.3517  0.2475
   10loPI    C1  145   0.439   3.400  11.899 -0.0344 -0.1754  0.0727
   10loPI    C2  146   0.429   3.706  12.156 -0.1128 -0.1240  0.0088
   10loPI    C3  147   0.556   3.347  12.278 -0.1463 -0.0990  0.1185
   10loPI   PO4  148   0.537   3.553  11.629 -0.1457  0.0330 -0.2023
   10loPI   GL1  149   0.911   3.276  11.431 -0.0939 -0.0054 -0.0333
   10loPI   GL2  150   1.226   3.384  11.311 -0.0460 -0.1429  0.1301
   10loPI   C1A  151   0.875   2.984  11.117 -0.0946  0.1006 -0.1239
   10loPI   C2A  152   0.761   2.915  10.706 -0.2161 -0.2847  0.0154
   10loPI   C3A  153   0.761   2.887  10.235 -0.2756 -0.2417 -0.0209
   10loPI   C4A  154   0.833   2.809   9.831 -0.2305 -0.0172 -0.1949
   10loPI   C5A  155   0.817   2.918   9.354  0.1350 -0.2210 -0.1843
   10loPI   C6A  156   1.033   3.156   9.059 -0.0873  0.0560  0.1884
   10loPI   C1B  157   1.143   3.506  10.963  0.1333  0.1362 -0.1276
   10loPI   C2B  158   1.127   3.372  10.575 -0.0911 -0.1476  0.0539
   10loPI   C3B  159   1.026   3.379  10.176 -0.1382 -0.1526  0.2146
   10loPI   C4B  160   1.056   3.292   9.772  0.0957 -0.2225 -0.1493
   11loPI    C1  161   0.388   7.302  11.426  0.0031 -0.1046  0.2653
   11loPI    C2  162   0.357   7.671  11.274  0.1363 -0.1818  0.0459
   11loPI    C3  163   0.397   7.619  11.669 -0.0706  0.0285  0.0961
   11loPI   PO4  164   0.257   7.144  11.138 -0.2520 -0.1244 -0.2645
   11loPI   GL1  165   0.397   7.184  10.691 -0.2588 -0.0063 -0.0137
   11loPI   GL2  166   0.329   6.801  10.769  0.0889  0.0650 -0.1865
   11loPI   C1A  167   0.424   7.203  10.252 -0.0508  0.0458  0.0169
   11loPI   C2A  168   0.423   7.179   9.725  0.2186  0.0315  0.0771
   11loPI   C3A  169   0.438   7.245   9.349  0.1968 -0.1067  0.0158
   11loPI   C4A  170   0.202   7.171   9.055  0.4052  0.0724  0.1214
   11loPI   C5A  171  -0.035   7.486   8.806 -0.1076  0.0472  0.2239
   11loPI   C6A  172  -0.260   7.652   8.402  0.1762  0.2030  0.1201
   11loPI   C1B  173   0.030   6.919  10.394  0.1984  0.2120 -0.0665
   11loPI   C2B  174   0.075   6.953  10.016 -0.1252  0.1101  0.0804
   11loPI   C3B  175   0.017   6.932   9.505 -0.0102 -0.1325  0.0138
   11loPI   C4B  176  -0.010   6.669   9.131  0.0091  0.0346  0.0852
   12loPI    C1  177   7.711  15.591  11.354  0.1783  0.1644  0.0487
   12loPI    C2  178   7.698  15.825  11.029  0.0719 -0.0144 -0.0775
   12loPI    C3  179   7.905  15.942  11.351  0.1167  0.1987 -0.1816
   12loPI   PO4  180   7.690  15.390  11.267 -0.0422  0.1911 -0.1387
   12loPI   GL1  181   7.447  15.409  10.804 -0.1553 -0.2638  0.2303
   12loPI   GL2  182   7.064  15.430  10.779 -0.2446  0.3486  0.1207
   12loPI   C1A  183   7.764  15.586  10.535  0.0653 -0.1929 -0.0093
   12loPI   C2A  184   7.886  15.772  10.111 -0.3607  0.0052 -0.2103
   12loPI   C3A  185   7.906  15.872   9.617 -0.1159 -0.2509 -0.0131
   12loPI   C4A  186   7.878  15.749   9.134  0.2131 -0.1848 -0.1156
   12loPI   C5A  187   8.099  15.537   8.789 -0.1148  0.0393  0.1336
   12loPI   C6A  188   8.062  15.114   8.654 -0.0172  0.4506 -0.0036
   12loPI   C1B  189   7.278  15.342  10.313 -0.0178  0.1673  0.2506
   12loPI   C2B  190   7.247  15.327   9.762  0.3529 -0.2066  0.2332
   12loPI   C3B  191   7.119  15.371   9.342 -0.3730 -0.1510 -0.0845
   12loPI   C4B  192   7.075  15.100   8.978 -0.0202  0.0202  0.0509
   13loPI    C1  193  12.091   3.886  11.474 -0.1177 -0.1075  0.2717
   13loPI    C2  194  12.242   4.190  11.686  0.2409 -0.1206  0.0446
   13loPI    C3  195  12.242   3.820  11.838  0.1101 -0.0630  0.1873
   13loPI   PO4  196  12.040   4.023  11.269 -0.1888  0.1823  0.1362
   13loPI   GL1  197  12.381   4.061  11.018 -0.1332  0.0514 -0.1336
   13loPI   GL2  198  12.420   3.702  11.125 -0.0457 -0.2059 -0.1900
   13loPI   C1A  199  12.465   4.108  10.586 -0.2301 -0.0594 -0.0046
   13loPI   C2A  200  12.528   4.190  10.126  0.1081  0.0787  0.1017
   13loPI   C3A  201  12.616   4.114   9.699 -0.3827 -0.2440 -0.1649
   13loPI   C4A  202  12.535   4.001   9.342  0.0111  0.0969 -0.2175
   13loPI   C5A  203  12.546   3.968   8.924  0.0404  0.0923 -0.2064
   13loPI   C6A  204  12.987   3.900   8.698 -0.0516 -0.0063  0.0357
   13loPI   C1B  205  12.259   3.646  10.613  0.0389 -0.0490  0.3786
   13loPI   C2B  206  12.293   3.692  10.174  0.3796  0.0407 -0.1058
   13loPI   C3B  207  12.328   3.674   9.679 -0.1443 -0.0352 -0.2249
   13loPI   C4B  208  12.384   3.524   9.314 -0.0144 -0.1189  0.2588
   14loPI    C1  209  10.556   4.132  11.486  0.2233  0.0923 -0.0322
   14loPI    C2  210  10.502   3.849  11.763  0.3153 -0.2665 -0.3720
   14loPI    C3  211  10.772   4.138  11.823  0.1398 -0.1781  0.0282
   14loPI   PO4  212  10.606   3.995  11.243  0.1638  0.0020 -0.0976
   14loPI   GL1  213  10.707   3.822  10.904 -0.0751  0.3426 -0.0067
   14loPI   GL2  214  10.906   4.028  10.803 -0.2651  0.0507 -0.0921
   14loPI   C1A  215  10.776   3.674  10.474  0.0166 -0.3669 -0.1558
   14loPI   C2A  216  10.780   3.742  10.086 -0.0581 -0.0845  0.0340
   14loPI   C3A  217  10.816   3.657   9.723 -0.0395  0.2352  0.0127
   14loPI   C4A  218  10.851   3.557   9.307  0.3258 -0.0294  0.1020
   14loPI   C5A  219  10.949   3.784   9.005  0.0142  0.2896 -0.0088
   14loPI   C6A  220  10.631   4.025   8.779  0.0830 -0.1864 -0.0149
   14loPI   C1B  221  11.019   4.122  10.317 -0.0421  0.2196 -0.1776
   14loPI   C2B  222  11.019   4.109   9.882 -0.0038  0.1487 -0.1587
   14loPI   C3B  223  11.034   4.104   9.394 -0.2753 -0.0405 -0.1331
   14loPI   C4B  224  11.128   4.231   8.946 -0.2871  0.0324  0.0993
   15loPI    C1  225  10.021   8.587  11.393  0.0295  0.0781  0.1625
   15loPI    C2  226  10.096   8.873  11.663  0.0150  0.0482  0.1983
   15loPI    C3  227   9.769   8.645  11.698 -0.0542  0.1289  0.0842
   15loPI   PO4  228  10.119   8.727  11.121 -0.1796  0.0103 -0.0092
   15loPI   GL1  229   9.970   8.697  10.785 -0.1218 -0.2429  0.2414
   15loPI   GL2  230   9.807   9.029  10.797 -0.1658 -0.1381  0.1085
   15loPI   C1A  231   9.776   8.750  10.385  0.1043 -0.0380 -0.0310
   15loPI   C2A  232   9.776   8.645   9.952 -0.1256  0.2236  0.1545
   15loPI   C3A  233   9.734   8.554   9.576  0.0036 -0.1509  0.1342
   15loPI   C4A  234   9.517   8.581   9.142 -0.0111  0.2002 -0.0161
   15loPI   C5A  235   9.126   8.799   8.978  0.1133  0.0236 -0.1420
   15loPI   C6A  236   8.717   8.968   8.844 -0.0480 -0.0386 -0.3703
   15loPI   C1B  237   9.668   9.260  10.514  0.0917  0.1581  0.2232
   15loPI   C2B  238   9.703   9.219  10.132  0.1138 -0.1515 -0.3569
   15loPI   C3B  239   9.702   9.123   9.728  0.1040 -0.1907 -0.0706
   15loPI   C4B  240   9.634   9.063   9.310 -0.1421  0.2034 -0.0930
   16loPI    C1  241   8.481   3.964  11.498 -0.0359  0.0593  0.0523
   16loPI    C2  242   8.096   4.007  11.601  0.0270  0.2352  0.2207
   16loPI    C3  243   8.377   4.230  11.778  0.2061  0.1186  0.0879
   16loPI   PO4  244   8.498   4.009  11.247  0.0107 -0.1126  0.0787
   16loPI   GL1  245   8.787   3.762  10.884  0.2337 -0.1963  0.3052
   16loPI   GL2  246   8.599   3.998  10.717  0.0563  0.3197  0.0244
   16loPI   C1A  247   8.693   3.648  10.433  0.2945  0.0383  0.1097
   16loPI   C2A  248   8.771   3.696  10.064  0.2274 -0.0497 -0.0511
   16loPI   C3A  249   8.747   3.641   9.627  0.0364 -0.4444  0.1487
   16loPI   C4A  250   8.776   3.497   9.143 -0.0682  0.1037 -0.0944
   16loPI   C5A  251   8.611   3.442   8.761  0.0347 -0.1632  0.3035
   16loPI   C6A  252   8.305   3.596   8.439 -0.0091  0.0632  0.2852
   16loPI   C1B  253   8.503   4.066  10.255 -0.3582  0.2000 -0.2429
   16loPI   C2B  254   8.489   4.069   9.836  0.0613 -0.0609  0.0435
   16loPI   C3B  255   8.527   4.039   9.333 -0.0241  0.3388  0.1915
   16loPI   C4B  256   8.516   3.953   8.875 -0.1573 -0.3114 -0.0899
   17loPI    C1  257  10.047   4.016  11.662  0.0284  0.1448 -0.2630
   17loPI    C2  258  10.036   3.694  11.898  0.1376  0.1045 -0.3120
   17loPI    C3  259   9.730   3.952  11.897  0.0451 -0.0039 -0.2801
   17loPI   PO4  260  10.087   3.959  11.446 -0.1403 -0.0562 -0.0269
   17loPI   GL1  261  10.135   3.809  11.078 -0.2971 -0.0098  0.0773
   17loPI   GL2  262   9.800   3.783  11.071  0.1625 -0.3177  0.0329
   17loPI   C1A  263  10.248   3.685  10.588  0.0875 -0.1531  0.0996
   17loPI   C2A  264  10.267   3.746  10.192  0.3458  0.0564  0.1256
   17loPI   C3A  265  10.269   3.654   9.776  0.2490  0.1852  0.0775
   17loPI   C4A  266  10.381   3.583   9.458  0.1288  0.0133  0.1148
   17loPI   C5A  267  10.410   3.570   9.012 -0.0464  0.0236 -0.1883
   17loPI   C6A  268  10.393   3.646   8.614  0.0648  0.1280  0.0238
   17loPI   C1B  269   9.684   3.619  10.680  0.0308 -0.1064  0.2117
   17loPI   C2B  270   9.747   3.670  10.281 -0.0609  0.2777 -0.2016
   17loPI   C3B  271   9.772   3.607   9.803 -0.1779 -0.0185 -0.1055
   17loPI   C4B  272   9.744   3.614   9.376 -0.2084 -0.0862  0.0007
   18loPI    C1  273   4.541  15.467  11.229 -0.0108  0.0532  0.0029
   18loPI    C2  274   4.295  15.206  11.052 -0.0680  0.0168  0.1345
   18loPI    C3  275   4.689  15.139  11.055 -0.0815 -0.0632  0.1592
   18loPI   PO4  276   4.470  15.690  11.039  0.2875  0.0053 -0.1291
   18loPI   GL1  277   4.609  15.572  10.656 -0.0800 -0.0039 -0.1672
   18loPI   GL2  278   4.865  15.826  10.677 -0.0410 -0.0055  0.0442
   18loPI   C1A  279   4.376  15.177  10.588 -0.1078  0.0413  0.5254
   18loPI   C2A  280   4.385  15.028  10.212  0.0116 -0.2199  0.0947
   18loPI   C3A  281   4.604  15.066   9.854 -0.3212 -0.4589  0.2078
   18loPI   C4A  282   4.581  15.132   9.403 -0.1269  0.4412  0.0312
   18loPI   C5A  283   4.669  15.206   8.898 -0.1564 -0.0354 -0.1474
   18loPI   C6A  284   4.650  14.999   8.620 -0.1043  0.3583 -0.0674
   18loPI   C1B  285   4.876  15.919  10.317  0.0718 -0.1178  0.1837
   18loPI   C2B  286   5.053  16.038   9.908  0.2414 -0.1105  0.0708
   18loPI   C3B  287   5.084  16.065   9.458 -0.0141 -0.3822  0.0993
   18loPI   C4B  288   5.093  16.145   8.994  0.1883  0.0166 -0.0863
   19loPI    C1  289  13.234   7.813  11.176  0.2602  0.0416  0.0450
   19loPI    C2  290  12.863   7.914  11.288  0.1063 -0.1079 -0.3163
   19loPI    C3  291  13.119   7.766  11.557  0.0534  0.4099  0.0329
   19loPI   PO4  292  13.193   7.738  10.970  0.3032 -0.0164  0.1362
   19loPI   GL1  293  13.296   7.631  10.572 -0.0890 -0.1074 -0.1104
   19loPI   GL2  294  13.426   7.901  10.504 -0.0098 -0.0082  0.0257
   19loPI   C1A  295  13.104   7.601  10.192  0.1761 -0.0926  0.1366
   19loPI   C2A  296  13.072   7.459   9.841 -0.0775  0.2411  0.0657
   19loPI   C3A  297  13.000   7.428   9.386  0.0112  0.1572 -0.4198
   19loPI   C4A  298  12.872   7.498   9.014 -0.0454 -0.0573 -0.3666
   19loPI   C5A  299  12.660   7.819   8.775  0.2499 -0.2853  0.0397
   19loPI   C6A  300  12.587   8.004   8.373  0.3246 -0.3359 -0.0314
   19loPI   C1B  301  13.533   7.715  10.145 -0.1675  0.0423 -0.0016
   19loPI   C2B  302  13.408   7.814   9.693 -0.1424  0.2238  0.0095
   19loPI   C3B  303  13.366   7.740   9.209  0.0745  0.0819 -0.0830
   19loPI   C4B  304  13.588   7.626   8.886 -0.0031 -0.1672 -0.0784
   20loPI    C1  305  14.469  10.178  11.644  0.0165  0.0054  0.0546
   20loPI    C2  306  14.114  10.099  11.811  0.0853  0.2126  0.3059
   20loPI    C3  307  14.444  10.105  12.037  0.2178  0.2431  0.1139
   20loPI   PO4  308  14.429  10.314  11.421 -0.0464  0.2406  0.1480
   20loPI   GL1  309  14.313  10.390  10.990  0.0918 -0.0196  0.1061
   20loPI   GL2  310  14.230  10.624  10.855  0.2437  0.2610 -0.2442
   20loPI   C1A  311  14.549  10.269  10.646  0.0797  0.3861  0.3872
   20loPI   C2A  312  14.541  10.200  10.249  0.0795 -0.2224  0.0824
   20loPI   C3A  313  14.579  10.235   9.816 -0.0640 -0.2320 -0.0611
   20loPI   C4A  314  14.585  10.217   9.377 -0.0145 -0.0110  0.0333
   20loPI   C5A  315  14.596  10.206   8.936  0.3689 -0.0302  0.4591
   20loPI   C6A  316  14.529   9.970   8.573  0.1122  0.3723 -0.3528
   20loPI   C1B  317  14.121  10.445  10.399  0.0397 -0.2238 -0.0479
   20loPI   C2B  318  14.103  10.373   9.936  0.2484 -0.1186  0.1847
   20loPI   C3B  319  14.150  10.428   9.481 -0.1566  0.2721 -0.1748
   20loPI   C4B  320  14.077  10.477   9.019  0.1429  0.2443  0.1225
   21loPI    C1  321   8.929   5.507  11.369  0.1087  0.2401  0.0771
   21loPI    C2  322   9.221   5.450  11.638  0.1619  0.0254 -0.0239
   21loPI    C3  323   9.004   5.786  11.646  0.2450  0.0751  0.2091
   21loPI   PO4  324   9.095   5.441  11.083  0.3670 -0.1460 -0.2141
   21loPI   GL1  325   9.065   5.325  10.646 -0.0362  0.0613  0.1727
   21loPI   GL2  326   8.714   5.342  10.532  0.2919  0.1283 -0.1500
   21loPI   C1A  327   9.010   5.062  10.270 -0.2992 -0.1887 -0.1304
   21loPI   C2A  328   9.018   4.850   9.896  0.2493  0.0943  0.0146
   21loPI   C3A  329   8.977   4.929   9.480 -0.3290 -0.1289  0.0607
   21loPI   C4A  330   9.053   4.918   9.052 -0.0533 -0.1074 -0.1158
   21loPI   C5A  331   9.271   5.128   8.764  0.0934 -0.0528 -0.0491
   21loPI   C6A  332   9.273   5.221   8.307  0.1801 -0.2424  0.0242
   21loPI   C1B  333   8.284   5.369  10.180  0.1048 -0.3631  0.0454
   21loPI   C2B  334   8.164   5.473   9.825 -0.0576  0.1796 -0.0819
   21loPI   C3B  335   8.116   5.391   9.411  0.2602 -0.1640  0.1450
   21loPI   C4B  336   8.252   5.348   8.944  0.1001  0.0787  0.0919
   22loPI    C1  337   7.677  13.851  11.324  0.0492 -0.2062 -0.2428
   22loPI    C2  338   7.700  13.600  11.635 -0.1874  0.1046  0.0344
   22loPI    C3  339   7.956  13.906  11.606 -0.1407  0.0536 -0.1007
   22loPI   PO4  340   7.694  13.677  11.124 -0.0595 -0.1467  0.0051
   22loPI   GL1  341   7.896  13.635  10.767 -0.0662 -0.1775  0.1270
   22loPI   GL2  342   7.982  13.388  10.532 -0.1754  0.0535  0.1059
   22loPI   C1A  343   8.003  13.989  10.530  0.1240  0.1874 -0.3004
   22loPI   C2A  344   7.994  14.061  10.055  0.2211  0.2960 -0.0752
   22loPI   C3A  345   8.018  13.996   9.578  0.0480  0.2450 -0.2722
   22loPI   C4A  346   8.017  13.978   9.123  0.1098 -0.0912  0.3421
   22loPI   C5A  347   8.121  14.225   8.809  0.0207 -0.0291  0.0258
   22loPI   C6A  348   8.368  14.288   8.399 -0.0550 -0.0594 -0.0351
   22loPI   C1B  349   8.158  13.620  10.212  0.0497  0.0600 -0.3753
   22loPI   C2B  350   8.201  13.638   9.821 -0.0933  0.0015  0.2288
   22loPI   C3B  351   8.011  13.529   9.430  0.1823 -0.0675 -0.0970
   22loPI   C4B  352   7.965  13.499   9.062  0.0337  0.1212 -0.0500
   23loPI    C1  353   5.637  17.617  11.582 -0.0459  0.2669 -0.0281
   23loPI    C2  354   5.739  17.890  11.856  0.0275  0.1569  0.0554
   23loPI    C3  355   5.399  17.682  11.897  0.1299  0.0089  0.1626
   23loPI   PO4  356   5.632  17.844  11.336 -0.0945 -0.0989 -0.0361
   23loPI   GL1  357   5.658  17.818  10.960 -0.1833  0.6107 -0.3424
   23loPI   GL2  358   6.071  17.876  11.061 -0.1665 -0.0228  0.0691
   23loPI   C1A  359   5.509  17.930  10.621 -0.0225 -0.2557  0.2472
   23loPI   C2A  360   5.489  17.976  10.327 -0.1018  0.2227 -0.0247
   23loPI   C3A  361   5.603  17.987   9.989  0.1850  0.1109  0.0468
   23loPI   C4A  362   5.513  17.853   9.464 -0.2611 -0.1357 -0.5375
   23loPI   C5A  363   5.583  17.996   9.015 -0.0559  0.0483 -0.2008
   23loPI   C6A  364   5.670  18.403   8.922  0.2588  0.0332  0.0134
   23loPI   C1B  365   5.992  17.973  10.633  0.0667  0.4267 -0.1769
   23loPI   C2B  366   6.014  17.978  10.206  0.0680  0.1112  0.0471
   23loPI   C3B  367   6.019  17.987   9.746 -0.2581 -0.1387 -0.1199
   23loPI   C4B  368   6.059  17.912   9.434 -0.2458 -0.1995  0.4488
   24loPI    C1  369  11.415  16.942  11.745  0.0959  0.2353  0.0810
   24loPI    C2  370  11.091  16.962  11.979  0.0653  0.1727  0.0441
   24loPI    C3  371  11.445  17.086  12.117  0.0714  0.0201  0.1680
   24loPI   PO4  372  11.371  16.876  11.569  0.1222 -0.3792  0.0595
   24loPI   GL1  373  11.353  16.907  11.199 -0.0746 -0.0039  0.0228
   24loPI   GL2  374  11.555  16.726  11.146  0.0162  0.1853 -0.0829
   24loPI   C1A  375  10.980  16.936  10.825 -0.0445 -0.2900  0.1820
   24loPI   C2A  376  10.957  16.862  10.397  0.0274 -0.1398 -0.1493
   24loPI   C3A  377  10.969  16.787  10.002 -0.0054 -0.0479  0.1236
   24loPI   C4A  378  10.907  16.842   9.549 -0.3549 -0.0540  0.1087
   24loPI   C5A  379  10.882  16.631   9.167 -0.3021 -0.0483  0.1920
   24loPI   C6A  380  10.886  16.180   8.901 -0.1446 -0.1209  0.0582
   24loPI   C1B  381  11.450  16.842  10.661  0.3704 -0.1356 -0.1692
   24loPI   C2B  382  11.480  16.873  10.216 -0.0381  0.0172 -0.0309
   24loPI   C3B  383  11.411  16.863   9.706  0.3126 -0.0049 -0.0275
   24loPI   C4B  384  11.306  16.847   9.230  0.2048  0.0198  0.2493
   25loPI    C1  385   7.414   8.716  11.609  0.3147  0.4915  0.1057
   25loPI    C2  386   7.297   8.419  11.849  0.1596  0.3557 -0.1332
   25loPI    C3  387   7.160   8.789  11.909 -0.1364  0.2606 -0.2083
   25loPI   PO4  388   7.379   8.647  11.355 -0.0272  0.1986  0.2060
   25loPI   GL1  389   7.265   8.678  11.089 -0.1081  0.0209 -0.2758
   25loPI   GL2  390   7.156   8.946  10.903  0.2759  0.0341  0.1105
   25loPI   C1A  391   7.089   8.522  10.662 -0.1238 -0.0717  0.0457
   25loPI   C2A  392   7.074   8.461  10.277 -0.3374 -0.1250  0.3772
   25loPI   C3A  393   7.050   8.466   9.874  0.0692 -0.1146 -0.2689
   25loPI   C4A  394   6.964   8.406   9.461 -0.1670  0.1248  0.0555
   25loPI   C5A  395   6.860   8.636   9.003 -0.1220 -0.0919  0.1283
   25loPI   C6A  396   6.522   8.936   9.010 -0.3876  0.1397 -0.0331
   25loPI   C1B  397   7.148   8.972  10.448  0.1474  0.2642 -0.0910
   25loPI   C2B  398   7.052   8.958   9.995  0.0436  0.0548 -0.4257
   25loPI   C3B  399   7.079   8.998   9.662 -0.1302  0.0423  0.0641
   25loPI   C4B  400   6.968   8.973   9.299 -0.1842  0.0047  0.2485
   26loPI    C1  401   2.321   1.603  11.874  0.0489  0.0972 -0.0560
   26loPI    C2  402   2.483   1.687  12.230  0.1230 -0.1618 -0.0266
   26loPI    C3  403   2.631   1.389  12.008  0.2323  0.1503 -0.3848
   26loPI   PO4  404   2.407   1.809  11.573 -0.0818  0.0331 -0.2790
   26loPI   GL1  405   2.321   1.897  11.121 -0.0720 -0.0668 -0.0212
   26loPI   GL2  406   2.591   2.112  11.117  0.0015  0.1065 -0.1545
   26loPI   C1A  407   2.254   2.017  10.705  0.0307 -0.2877 -0.1136
   26loPI   C2A  408   2.310   1.963  10.194 -0.0683  0.0589  0.1251
   26loPI   C3A  409   2.419   2.072   9.721 -0.0793  0.0918  0.0256
   26loPI   C4A  410   2.344   2.123   9.208 -0.3501  0.0217 -0.2344
   26loPI   C5A  411   2.553   1.922   8.847 -0.0547 -0.3048  0.1690
   26loPI   C6A  412   2.506   1.494   8.752  0.3132 -0.1437  0.0399
   26loPI   C1B  413   2.798   2.024  10.605 -0.1511  0.1852  0.0824
   26loPI   C2B  414   2.868   2.110  10.220  0.1497 -0.0531  0.2177
   26loPI   C3B  415   2.994   2.025   9.824 -0.1671  0.1504  0.1011
   26loPI   C4B  416   2.948   1.984   9.405  0.2115 -0.0422  0.0662
   27loPI    C1  417   2.945   7.823  11.518  0.1844 -0.0083 -0.0710
   27loPI    C2  418   3.274   7.878  11.739  0.2110 -0.1380 -0.0780
   27loPI    C3  419   2.913   7.960  11.893  0.2153 -0.4044  0.0802
   27loPI   PO4  420   2.915   7.907  11.211  0.0001 -0.3970 -0.1962
   27loPI   GL1  421   3.192   7.940  10.818  0.1338  0.0293 -0.1798
   27loPI   GL2  422   2.765   7.993  10.766 -0.0082 -0.1081  0.1269
   27loPI   C1A  423   3.128   7.886  10.375  0.0527  0.1631  0.1224
   27loPI   C2A  424   3.043   7.856  10.056  0.0697 -0.2613 -0.0268
   27loPI   C3A  425   3.039   7.834   9.581 -0.2675 -0.0566 -0.3521
   27loPI   C4A  426   3.008   7.939   9.151  0.1635 -0.0500 -0.0166
   27loPI   C5A  427   3.090   8.234   8.787 -0.1685 -0.0390  0.0336
   27loPI   C6A  428   2.992   8.374   8.318 -0.2494  0.1513  0.0237
   27loPI   C1B  429   2.621   8.176  10.457 -0.1235 -0.2338  0.1536
   27loPI   C2B  430   2.463   8.192  10.086 -0.1184 -0.0739 -0.1176
   27loPI   C3B  431   2.566   8.149   9.713  0.0906 -0.2766  0.2279
   27loPI   C4B  432   2.548   8.088   9.303 -0.1686 -0.1447  0.2998
   28loPI    C1  433  12.455   7.579  11.523 -0.0653 -0.1140 -0.0407
   28loPI    C2  434  12.743   7.384  11.720 -0.1307 -0.1531  0.0171
   28loPI    C3  435  12.691   7.776  11.779 -0.0779 -0.1423 -0.0072
   28loPI   PO4  436  12.531   7.563  11.214 -0.0665 -0.1567 -0.1613
   28loPI   GL1  437  12.335   7.391  10.796 -0.0303 -0.1094 -0.1492
   28loPI   GL2  438  12.176   7.184  10.938  0.2318  0.0193 -0.1792
   28loPI   C1A  439  12.270   7.459  10.367  0.0331  0.0319 -0.0107
   28loPI   C2A  440  12.157   7.505   9.882 -0.0310  0.3276  0.0747
   28loPI   C3A  441  12.074   7.325   9.469  0.2875 -0.1154  0.1764
   28loPI   C4A  442  12.152   7.096   9.053 -0.1450  0.0183  0.2427
   28loPI   C5A  443  12.347   6.733   8.954  0.1309  0.3672  0.2718
   28loPI   C6A  444  12.404   6.394   8.992  0.1530  0.0095  0.1746
   28loPI   C1B  445  12.265   6.902  10.581  0.1434 -0.3113  0.1199
   28loPI   C2B  446  12.258   6.959  10.130  0.0921  0.0344 -0.1279
   28loPI   C3B  447  12.139   6.937   9.785  0.1391  0.0356  0.0906
   28loPI   C4B  448  12.263   6.813   9.460  0.2458  0.0450 -0.0442
   29loPI    C1  449   4.294  12.331  11.345  0.1636  0.1611  0.0584
   29loPI    C2  450   4.607  12.161  11.527 -0.0735 -0.0347  0.2916
   29loPI    C3  451   4.294  12.287  11.742 -0.1366  0.2034  0.0658
   29loPI   PO4  452   4.301  12.490  11.226  0.1627  0.0138  0.1572
   29loPI   GL1  453   4.402  12.619  10.870 -0.0961 -0.4137 -0.2649
   29loPI   GL2  454   4.080  12.795  10.834 -0.0266  0.3808  0.0293
   29loPI   C1A  455   4.356  12.731  10.415 -0.2369  0.0209 -0.3948
   29loPI   C2A  456   4.309  12.678  10.021  0.0781 -0.1612 -0.1620
   29loPI   C3A  457   4.465  12.701   9.564  0.1643  0.2317 -0.4635
   29loPI   C4A  458   4.427  12.617   9.188 -0.0621 -0.2816  0.1134
   29loPI   C5A  459   4.388  12.975   8.984 -0.0978  0.0787  0.1835
   29loPI   C6A  460   4.611  13.139   8.668 -0.0865  0.2587  0.1464
   29loPI   C1B  461   3.868  12.981  10.530 -0.0079 -0.0733 -0.0515
   29loPI   C2B  462   3.921  12.992  10.146  0.1304  0.5146 -0.2564
   29loPI   C3B  463   3.908  12.876   9.675 -0.1508  0.2572  0.0669
   29loPI   C4B  464   3.950  12.886   9.249  0.1775  0.0559  0.2095
   30loPI    C1  465  14.636  11.928  11.549 -0.1695 -0.0671  0.0010
   30loPI    C2  466  14.873  11.909  11.870 -0.1148  0.1533 -0.0251
   30loPI    C3  467  14.749  11.573  11.694  0.0933  0.0347  0.0510
   30loPI   PO4  468  14.769  12.134  11.360 -0.0371  0.1648 -0.0112
   30loPI   GL1  469  14.807  12.100  10.938 -0.3115 -0.1022  0.0601
   30loPI   GL2  470  14.587  11.832  10.765  0.2617  0.0522  0.2498
   30loPI   C1A  471  14.912  12.062  10.430 -0.0171 -0.2527 -0.4029
   30loPI   C2A  472  14.907  12.051   9.904  0.0061 -0.1770  0.1355
   30loPI   C3A  473  14.932  12.072   9.435  0.0170  0.2633 -0.0564
   30loPI   C4A  474  14.700  12.100   9.152  0.0180  0.0219  0.2696
   30loPI   C5A  475  14.633  12.070   8.769 -0.3633  0.0159 -0.2429
   30loPI   C6A  476  14.993  12.186   8.490 -0.3606  0.0600 -0.0284
   30loPI   C1B  477  14.499  11.829  10.348 -0.0530  0.0309 -0.0703
   30loPI   C2B  478  14.450  11.703   9.891  0.0464  0.2728 -0.2478
   30loPI   C3B  479  14.397  11.763   9.449  0.1061  0.0596  0.0585
   30loPI   C4B  480  14.335  11.625   9.006 -0.1593 -0.0572  0.1527
   31loPI    C1  481  11.213  12.661  11.484  0.0528 -0.2479 -0.0326
   31loPI    C2  482  11.482  12.835  11.724 -0.1411 -0.0767  0.0642
   31loPI    C3  483  11.312  12.489  11.832 -0.2658  0.0259  0.2003
   31loPI   PO4  484  11.257  12.675  11.254 -0.3443 -0.0906  0.0179
   31loPI   GL1  485  11.529  12.555  10.835  0.0536 -0.2398 -0.0351
   31loPI   GL2  486  11.313  12.401  10.884 -0.0332  0.2110  0.2198
   31loPI   C1A  487  11.347  12.786  10.507  0.0786 -0.3067  0.2174
   31loPI   C2A  488  11.305  12.796  10.050  0.0529 -0.3377  0.1149
   31loPI   C3A  489  11.289  12.768   9.768  0.1949  0.1741 -0.0012
   31loPI   C4A  490  11.205  12.764   9.357 -0.2529 -0.0157  0.1382
   31loPI   C5A  491  10.959  12.769   9.018 -0.0866 -0.2472 -0.0737
   31loPI   C6A  492  10.646  12.979   8.662  0.1431 -0.2215 -0.0847
   31loPI   C1B  493  11.238  12.333  10.487  0.2320  0.0915  0.0402
   31loPI   C2B  494  11.311  12.311  10.097  0.0664 -0.1933  0.0287
   31loPI   C3B  495  11.201  12.233   9.633  0.4996 -0.4546  0.2128
   31loPI   C4B  496  11.190  12.269   9.199 -0.0270 -0.1498 -0.0825
   32loPI    C1  497  15.459   2.760  11.960 -0.3572  0.0705  0.0021
   32loPI    C2  498  15.429   2.375  12.065 -0.1339 -0.0216 -0.2609
   32loPI    C3  499  15.569   2.644  12.326  0.0523 -0.1815 -0.1938
   32loPI   PO4  500  15.405   2.861  11.784  0.1790 -0.0428 -0.0513
   32loPI   GL1  501  15.237   2.757  11.396  0.1056  0.1687 -0.0138
   32loPI   GL2  502  15.479   2.716  11.330 -0.1133 -0.1861  0.1344
   32loPI   C1A  503  15.186   2.458  11.017  0.1105 -0.1192  0.0061
   32loPI   C2A  504  15.159   2.354  10.599 -0.1913 -0.0330  0.0368
   32loPI   C3A  505  15.206   2.389  10.159  0.2307  0.0427 -0.1746
   32loPI   C4A  506  15.136   2.412   9.739 -0.1727  0.0380 -0.0825
   32loPI   C5A  507  15.224   2.284   9.347 -0.2906 -0.1045 -0.1510
   32loPI   C6A  508  15.282   2.514   8.961 -0.0351  0.0051  0.0601
   32loPI   C1B  509  15.321   2.898  10.925 -0.1157 -0.0075 -0.0517
   32loPI   C2B  510  15.355   2.838  10.456  0.0002 -0.2258  0.2491
   32loPI   C3B  511  15.429   2.817   9.983  0.1824 -0.1285  0.1082
   32loPI   C4B  512  15.382   2.824   9.517  0.1964 -0.0111  0.2203
   33loPI    C1  513   9.836   1.926  11.572 -0.0076  0.0630  0.0311
   33loPI    C2  514  10.188   2.018  11.737  0.0334  0.0925 -0.0717
   33loPI    C3  515   9.887   1.888  11.967  0.1475 -0.0458  0.0013
   33loPI   PO4  516   9.937   1.912  11.355  0.0428  0.0534  0.1667
   33loPI   GL1  517   9.928   1.880  10.948  0.1075 -0.0464  0.1970
   33loPI   GL2  518  10.221   1.682  11.038  0.1560  0.1123 -0.0403
   33loPI   C1A  519   9.788   1.825  10.573 -0.0781 -0.0029 -0.0221
   33loPI   C2A  520   9.774   1.871  10.127  0.1726  0.0496  0.2161
   33loPI   C3A  521   9.842   1.896   9.685  0.0588 -0.2988 -0.2995
   33loPI   C4A  522   9.812   1.863   9.243 -0.3590  0.0006  0.1595
   33loPI   C5A  523   9.680   1.763   8.818 -0.0968 -0.1845 -0.0237
   33loPI   C6A  524   9.421   2.049   8.630  0.0754  0.3134 -0.1590
   33loPI   C1B  525  10.299   1.776  10.592  0.1980 -0.1302  0.3001
   33loPI   C2B  526  10.277   1.848  10.190  0.1102 -0.0231 -0.0396
   33loPI   C3B  527  10.373   1.802   9.706 -0.2181 -0.2449  0.0796
   33loPI   C4B  528  10.311   1.838   9.254 -0.1059  0.1754  0.1686
   34loPI    C1  529   5.117  12.085  11.430  0.0425  0.1612  0.0503
   34loPI    C2  530   5.299  11.851  11.699  0.0528 -0.0702 -0.1552
   34loPI    C3  531   4.904  11.821  11.642  0.0416  0.0192 -0.1251
   34loPI   PO4  532   5.231  12.040  11.149 -0.2364 -0.0748  0.2139
   34loPI   GL1  533   5.345  12.221  10.726 -0.2442  0.2333  0.0867
   34loPI   GL2  534   5.023  12.038  10.643  0.1418  0.2351  0.1367
   34loPI   C1A  535   5.396  12.278  10.312  0.1180 -0.1806 -0.0066
   34loPI   C2A  536   5.350  12.214   9.860  0.1819 -0.0077 -0.0526
   34loPI   C3A  537   5.383  12.245   9.483 -0.2749  0.0812 -0.1328
   34loPI   C4A  538   5.307  12.234   8.986  0.0881  0.1258  0.0037
   34loPI   C5A  539   5.307  12.334   8.640 -0.1220  0.1599  0.0538
   34loPI   C6A  540   5.600  12.309   8.224  0.1261  0.4421  0.0450
   34loPI   C1B  541   5.038  11.930  10.182 -0.1465  0.2978 -0.0445
   34loPI   C2B  542   4.926  11.923   9.812  0.2494  0.2138  0.0781
   34loPI   C3B  543   5.012  11.923   9.352  0.3032 -0.1229  0.1332
   34loPI   C4B  544   4.908  11.929   8.931  0.1416  0.2725 -0.0365
   35loPI    C1  545   2.499   0.441  11.838 -0.0150 -0.0444 -0.0061
   35loPI    C2  546   2.268   0.197  12.055  0.1348 -0.2186 -0.0409
   35loPI    C3  547   2.667   0.175  12.084  0.1489  0.1238  0.0665
   35loPI   PO4  548   2.408   0.423  11.607  0.1879  0.0239  0.1499
   35loPI   GL1  549   2.319   0.537  11.142 -0.1600 -0.0256  0.0448
   35loPI   GL2  550   2.586   0.516  10.997  0.2399  0.0716  0.2039
   35loPI   C1A  551   2.211   0.676  10.724 -0.0096  0.0244 -0.3059
   35loPI   C2A  552   2.141   0.710  10.296 -0.1853  0.0072  0.1089
   35loPI   C3A  553   2.094   0.765   9.812  0.3190 -0.0232 -0.1847
   35loPI   C4A  554   2.112   0.705   9.305 -0.0370  0.0493  0.0712
   35loPI   C5A  555   1.841   0.782   8.885  0.0432  0.0958 -0.1496
   35loPI   C6A  556   1.492   1.057   8.632 -0.1974 -0.0049  0.2583
   35loPI   C1B  557   2.725   0.656  10.673  0.1888 -0.0589 -0.0085
   35loPI   C2B  558   2.656   0.722  10.266  0.1290 -0.0441  0.1375
   35loPI   C3B  559   2.570   0.753   9.794 -0.2019  0.0854  0.4254
   35loPI   C4B  560   2.696   0.659   9.367  0.5427 -0.1025  0.0864
   36loPI    C1  561   5.825   5.532  11.401  0.2513  0.0548  0.4810
   36loPI    C2  562   5.660   5.765  11.121  0.4829  0.0403  0.3298
   36loPI    C3  563   5.636   5.869  11.506  0.3192  0.1536  0.2904
   36loPI   PO4  564   6.049   5.494  11.348 -0.1281  0.0711  0.0715
   36loPI   GL1  565   6.107   5.486  10.865 -0.0605 -0.0069  0.1647
   36loPI   GL2  566   6.365   5.263  10.713 -0.0104  0.0061  0.1507
   36loPI   C1A  567   5.909   5.873  10.529  0.1667 -0.4346  0.1658
   36loPI   C2A  568   5.888   5.940  10.162 -0.3226 -0.0886  0.1209
   36loPI   C3A  569   5.900   5.924   9.747  0.0729  0.1361 -0.1497
   36loPI   C4A  570   5.837   5.714   9.405 -0.4183  0.0392  0.0527
   36loPI   C5A  571   5.769   5.608   8.965 -0.0347  0.1494  0.1362
   36loPI   C6A  572   5.633   5.532   8.576 -0.0374 -0.0508 -0.1346
   36loPI   C1B  573   6.199   5.309  10.369  0.3007 -0.1239  0.3108
   36loPI   C2B  574   6.155   5.260   9.916  0.5158  0.1063  0.1888
   36loPI   C3B  575   6.089   5.206   9.532 -0.4542 -0.1027  0.0945
   36loPI   C4B  576   6.193   5.353   9.069  0.0421  0.2948  0.0339
   37loPI    C1  577   4.837   0.183  11.697  0.0519 -0.1311 -0.0917
   37loPI    C2  578   4.669   0.410  11.981  0.1782 -0.0437 -0.0863
   37loPI    C3  579   4.921   0.117  12.083  0.1718 -0.0556 -0.1044
   37loPI   PO4  580   4.764   0.301  11.524 -0.4860 -0.0223  0.1682
   37loPI   GL1  581   4.616   0.441  11.105 -0.3082 -0.0462  0.1819
   37loPI   GL2  582   4.484   0.184  10.985  0.1833  0.0834  0.3463
   37loPI   C1A  583   4.718   0.708  10.734 -0.1663  0.2122 -0.0813
   37loPI   C2A  584   4.681   0.735  10.321  0.0604 -0.0680 -0.3094
   37loPI   C3A  585   4.777   0.698   9.913  0.2448  0.2801 -0.0770
   37loPI   C4A  586   4.730   0.811   9.538  0.1938  0.1838  0.0614
   37loPI   C5A  587   4.782   0.761   9.066 -0.0135 -0.0170  0.0295
   37loPI   C6A  588   4.692   1.056   8.795  0.4517 -0.0544 -0.1944
   37loPI   C1B  589   4.459   0.328  10.446  0.0662 -0.1612  0.0048
   37loPI   C2B  590   4.453   0.236  10.035 -0.0431 -0.0147  0.1333
   37loPI   C3B  591   4.525   0.203   9.601  0.0725 -0.2307 -0.0531
   37loPI   C4B  592   4.545   0.219   9.184 -0.0434  0.0369  0.2545
   38loPI    C1  593  15.482  13.438  11.197 -0.0588 -0.0278  0.0773
   38loPI    C2  594  15.742  13.484  10.897 -0.2470 -0.1947 -0.1147
   38loPI    C3  595  15.832  13.619  11.263 -0.0857  0.1626 -0.2811
   38loPI   PO4  596  15.271  13.536  11.111  0.2262  0.1537 -0.0427
   38loPI   GL1  597  15.337  13.519  10.662  0.1770 -0.2384  0.1829
   38loPI   GL2  598  15.099  13.407  10.653  0.0483  0.1654  0.0694
   38loPI   C1A  599  15.348  13.572  10.168 -0.1229 -0.1029 -0.0513
   38loPI   C2A  600  15.236  13.432   9.814  0.0446  0.0938  0.2995
   38loPI   C3A  601  15.267  13.372   9.454  0.4199 -0.0637 -0.1930
   38loPI   C4A  602  15.091  13.341   9.121 -0.1547  0.3153  0.1283
   38loPI   C5A  603  14.791  13.496   8.908 -0.0274 -0.0510 -0.0168
   38loPI   C6A  604  14.450  13.771   9.004  0.0710 -0.1675 -0.0317
   38loPI   C1B  605  15.145  13.051  10.307  0.1441  0.2048 -0.0524
   38loPI   C2B  606  15.393  12.966  10.027  0.1308  0.2525 -0.2723
   38loPI   C3B  607  15.282  12.879   9.597 -0.1898  0.4237 -0.3221
   38loPI   C4B  608  15.279  12.865   9.104  0.1017  0.2396  0.0550
   39loPI    C1  609  15.967  16.377  11.484 -0.0507  0.0983 -0.1377
   39loPI    C2  610  16.177  16.600  11.740 -0.0174  0.0252 -0.1010
   39loPI    C3  611  15.976  16.281  11.872 -0.1605  0.1011 -0.1344
   39loPI   PO4  612  16.089  16.449  11.268 -0.0719 -0.0246  0.1077
   39loPI   GL1  613  16.073  16.404  10.976 -0.1273  0.2844  0.2497
   39loPI   GL2  614  16.408  16.519  10.889  0.0153  0.1065  0.2658
   39loPI   C1A  615  15.820  16.579  10.661  0.1332 -0.1401  0.0217
   39loPI   C2A  616  15.766  16.495  10.217 -0.1209  0.0134  0.1706
   39loPI   C3A  617  15.876  16.416   9.841 -0.1567  0.3100 -0.2772
   39loPI   C4A  618  15.795  16.458   9.416 -0.3928 -0.1649 -0.0177
   39loPI   C5A  619  15.682  16.512   9.018 -0.0216 -0.0691 -0.0043
   39loPI   C6A  620  15.774  16.712   8.659  0.2442 -0.0340  0.2266
   39loPI   C1B  621  16.284  16.428  10.469 -0.2016  0.2273  0.0859
   39loPI   C2B  622  16.411  16.433  10.037  0.3230 -0.0481 -0.0564
   39loPI   C3B  623  16.264  16.522   9.622  0.2568  0.0710  0.2411
   39loPI   C4B  624  16.297  16.498   9.223  0.0484 -0.2878 -0.1526
   40loPI    C1  625   3.748   4.703  11.662  0.0116 -0.1420 -0.0271
   40loPI    C2  626   3.683   4.468  11.979  0.0105  0.1355  0.1817
   40loPI    C3  627   4.053   4.592  11.895 -0.0266  0.2843  0.2349
   40loPI   PO4  628   3.654   4.577  11.342 -0.0286  0.2614  0.1488
   40loPI   GL1  629   3.401   4.742  10.898  0.1994 -0.1850  0.0836
   40loPI   GL2  630   3.470   5.057  11.000  0.0283  0.1402 -0.2436
   40loPI   C1A  631   3.332   4.773  10.434 -0.1619 -0.0994  0.0820
   40loPI   C2A  632   3.284   4.760  10.018  0.0530  0.0374 -0.1866
   40loPI   C3A  633   3.371   4.732   9.662  0.0704  0.0789 -0.2238
   40loPI   C4A  634   3.200   4.765   9.269 -0.2635 -0.0402 -0.0286
   40loPI   C5A  635   3.302   4.746   8.808  0.1585  0.0699  0.0398
   40loPI   C6A  636   3.224   5.146   8.485  0.1324 -0.0819  0.1381
   40loPI   C1B  637   3.691   5.080  10.638  0.0598 -0.0324 -0.0717
   40loPI   C2B  638   3.694   5.033  10.235 -0.3181 -0.0329 -0.0803
   40loPI   C3B  639   3.622   5.106   9.864 -0.0134  0.3682 -0.0505
   40loPI   C4B  640   3.585   5.137   9.473  0.1714 -0.1573 -0.0306
   41loPI    C1  641   9.768   4.734  11.782  0.2300  0.1876 -0.1605
   41loPI    C2  642   9.659   4.887  11.429 -0.0436 -0.0008 -0.1611
   41loPI    C3  643   9.473   5.004  11.763  0.0239 -0.0306 -0.1129
   41loPI   PO4  644   9.845   4.456  11.708 -0.1999  0.0628  0.0100
   41loPI   GL1  645   9.898   4.339  11.195 -0.0770 -0.1456 -0.0132
   41loPI   GL2  646   9.781   4.552  11.091  0.2142  0.2989  0.2506
   41loPI   C1A  647   9.977   4.119  10.751 -0.0599  0.2346  0.1928
   41loPI   C2A  648  10.022   4.203  10.308 -0.1445 -0.0800  0.2996
   41loPI   C3A  649  10.037   4.106   9.856  0.0444 -0.3182  0.1205
   41loPI   C4A  650   9.998   4.022   9.459  0.2710 -0.1328 -0.0519
   41loPI   C5A  651  10.107   3.930   9.064  0.3161 -0.0633 -0.0237
   41loPI   C6A  652  10.123   4.077   8.665  0.0626  0.1042 -0.0378
   41loPI   C1B  653   9.698   4.541  10.640  0.2134  0.3156 -0.2850
   41loPI   C2B  654   9.754   4.574  10.296 -0.2133  0.0152 -0.1646
   41loPI   C3B  655   9.804   4.580   9.879  0.2753 -0.3145 -0.1694
   41loPI   C4B  656   9.734   4.492   9.372 -0.3475 -0.1765  0.1401
   42loPI    C1  657   1.314  17.122  11.650  0.0796 -0.0325 -0.2272
   42loPI    C2  658   1.226  16.890  11.965  0.0845  0.1375 -0.0991
   42loPI    C3  659   1.546  16.808  11.739 -0.0614 -0.1335 -0.2119
   42loPI   PO4  660   1.113  17.141  11.494 -0.0749 -0.0488 -0.1226
   42loPI   GL1  661   1.155  17.236  11.073  0.0409 -0.3268 -0.1234
   42loPI   GL2  662   1.123  17.031  10.917  0.0713  0.1042 -0.1573
   42loPI   C1A  663   1.237  17.451  10.695  0.2759 -0.0586  0.1850
   42loPI   C2A  664   1.113  17.452  10.376 -0.0981 -0.0249  0.2730
   42loPI   C3A  665   1.111  17.428   9.867  0.0295  0.1085  0.2277
   42loPI   C4A  666   1.108  17.388   9.376  0.1756 -0.0480  0.4334
   42loPI   C5A  667   0.977  17.372   9.001 -0.2129  0.1043  0.3554
   42loPI   C6A  668   1.065  17.264   8.592  0.0966 -0.3178 -0.0131
   42loPI   C1B  669   0.900  16.987  10.591 -0.0235  0.0043  0.1220
   42loPI   C2B  670   0.901  16.960  10.207 -0.0936 -0.1954  0.1226
   42loPI   C3B  671   0.844  16.980   9.812  0.0580 -0.0871 -0.1344
   42loPI   C4B  672   0.835  16.983   9.327 -0.1970 -0.0031 -0.1784
   43loPI    C1  673  10.648   5.071  11.544 -0.1983  0.2623  0.1179
   43loPI    C2  674  10.984   5.048  11.760 -0.1925  0.0898  0.0919
   43loPI    C3  675  10.640   5.152  11.936 -0.1183  0.3123  0.1095
   43loPI   PO4  676  10.752   5.160  11.288  0.0743  0.0172 -0.0812
   43loPI   GL1  677  10.572   5.102  10.953 -0.1512  0.1102  0.1667
   43loPI   GL2  678  10.898   4.930  10.867 -0.1335  0.0884  0.1284
   43loPI   C1A  679  10.475   5.042  10.547 -0.0855  0.0898  0.0684
   43loPI   C2A  680  10.509   5.056  10.120  0.1057 -0.1058  0.2294
   43loPI   C3A  681  10.438   4.950   9.643 -0.1136  0.1162  0.2573
   43loPI   C4A  682  10.459   4.914   9.189  0.0647  0.0426 -0.2164
   43loPI   C5A  683  10.189   4.713   8.772  0.2987 -0.0643 -0.1861
   43loPI   C6A  684   9.878   4.613   8.440 -0.0440 -0.2542  0.2428
   43loPI   C1B  685  10.953   5.023  10.452  0.1077 -0.0051  0.1008
   43loPI   C2B  686  11.021   5.064   9.929  0.0085 -0.0306 -0.0353
   43loPI   C3B  687  11.027   5.021   9.497  0.0315  0.1185  0.1120
   43loPI   C4B  688  10.956   4.875   9.029  0.1234  0.2217  0.1508
   44loPI    C1  689   0.180  15.635  11.199 -0.0888 -0.1606  0.0756
   44loPI    C2  690   0.038  15.589  11.571  0.1673  0.0540  0.2031
   44loPI    C3  691   0.406  15.461  11.480  0.1754  0.1672  0.0724
   44loPI   PO4  692   0.021  15.595  11.055 -0.3071 -0.0255  0.2601
   44loPI   GL1  693   0.156  15.594  10.680 -0.3013 -0.1659 -0.0013
   44loPI   GL2  694   0.449  15.777  10.806 -0.0748 -0.0965  0.0004
   44loPI   C1A  695   0.354  15.530  10.304 -0.1210 -0.1549 -0.3112
   44loPI   C2A  696   0.182  15.568   9.962  0.1804 -0.1695 -0.1964
   44loPI   C3A  697   0.162  15.708   9.506  0.0765  0.0345 -0.1024
   44loPI   C4A  698   0.145  15.622   9.153 -0.2340 -0.1941 -0.1747
   44loPI   C5A  699   0.066  15.150   8.901  0.3500 -0.1702 -0.0327
   44loPI   C6A  700  -0.069  14.760   8.898  0.2612  0.0517  0.0704
   44loPI   C1B  701   0.539  16.042  10.538  0.2543 -0.0741 -0.2058
   44loPI   C2B  702   0.444  16.140  10.136  0.1931 -0.1689  0.0432
   44loPI   C3B  703   0.380  16.094   9.677 -0.0022 -0.0228 -0.1667
   44loPI   C4B  704   0.387  16.107   9.271  0.3530  0.0791 -0.0222
   45loPI    C1  705  12.914   2.525  11.936  0.2383 -0.0083  0.0016
   45loPI    C2  706  12.571   2.330  12.000  0.2570 -0.0499 -0.0250
   45loPI    C3  707  12.742   2.536  12.297  0.0914  0.1583 -0.0716
   45loPI   PO4  708  12.891   2.564  11.684  0.0466 -0.0821 -0.1814
   45loPI   GL1  709  12.702   2.476  11.290  0.1083 -0.0186 -0.0045
   45loPI   GL2  710  12.960   2.343  11.188  0.0753 -0.0585  0.0304
   45loPI   C1A  711  12.532   2.373  10.935  0.0912 -0.4151 -0.0575
   45loPI   C2A  712  12.525   2.266  10.545 -0.0628 -0.2280 -0.0707
   45loPI   C3A  713  12.585   2.339  10.172  0.2554 -0.3371 -0.1887
   45loPI   C4A  714  12.602   2.283   9.687 -0.2462  0.0703  0.0733
   45loPI   C5A  715  12.625   2.231   9.212 -0.0069  0.3570 -0.2926
   45loPI   C6A  716  12.491   1.849   9.022 -0.1056 -0.2507 -0.3678
   45loPI   C1B  717  13.041   2.353  10.739  0.0525 -0.1355 -0.0401
   45loPI   C2B  718  13.126   2.315  10.318 -0.0888 -0.1254 -0.0909
   45loPI   C3B  719  13.038   2.348   9.954  0.0664 -0.0285 -0.0425
   45loPI   C4B  720  13.184   2.182   9.551  0.1909 -0.1229  0.1325
   46loPI    C1  721   8.462  12.230  11.577  0.1189 -0.0206 -0.1717
   46loPI    C2  722   8.184  12.102  11.834  0.2730 -0.0806 -0.0334
   46loPI    C3  723   8.102  12.403  11.584  0.0770 -0.1123 -0.0086
   46loPI   PO4  724   8.525  12.039  11.442  0.1253  0.2868  0.2451
   46loPI   GL1  725   8.421  11.838  11.076 -0.0450  0.1340 -0.1327
   46loPI   GL2  726   8.203  11.730  10.909 -0.1960  0.0368  0.0045
   46loPI   C1A  727   8.608  11.666  10.656 -0.3907  0.4858 -0.1744
   46loPI   C2A  728   8.612  11.661  10.225 -0.1907  0.1121  0.0771
   46loPI   C3A  729   8.531  11.554   9.774  0.0074 -0.0993  0.2519
   46loPI   C4A  730   8.605  11.613   9.378  0.0325  0.0976 -0.0501
   46loPI   C5A  731   8.555  11.550   8.968  0.0849 -0.2521 -0.2543
   46loPI   C6A  732   8.575  11.542   8.536  0.0763 -0.0737 -0.0254
   46loPI   C1B  733   8.195  11.853  10.485  0.0867  0.1453  0.0285
   46loPI   C2B  734   8.125  11.859   9.981  0.0977  0.0296 -0.1914
   46loPI   C3B  735   8.178  11.837   9.527 -0.0416  0.0786  0.1093
   46loPI   C4B  736   8.230  11.917   9.157 -0.0781 -0.0059 -0.3100
   47loPI    C1  737   3.756   7.964  11.742  0.4438 -0.1206 -0.2291
   47loPI    C2  738   3.705   8.228  11.445  0.1687  0.1545  0.0552
   47loPI    C3  739   3.656   8.342  11.826 -0.1178 -0.3444  0.1781
   47loPI   PO4  740   3.819   7.719  11.559 -0.0582 -0.0883 -0.1719
   47loPI   GL1  741   3.809   7.488  11.102  0.1117  0.0901 -0.1849
   47loPI   GL2  742   3.565   7.241  11.052 -0.0413 -0.1466  0.2347
   47loPI   C1A  743   3.961   7.362  10.704 -0.0062 -0.0376 -0.3808
   47loPI   C2A  744   3.971   7.300  10.335 -0.1183 -0.1353 -0.0419
   47loPI   C3A  745   3.972   7.345   9.905  0.1467 -0.1764 -0.2119
   47loPI   C4A  746   3.899   7.321   9.527 -0.2391  0.0571  0.4867
   47loPI   C5A  747   3.940   7.504   9.143  0.1550 -0.0317  0.2500
   47loPI   C6A  748   3.912   7.912   8.982  0.1556 -0.2782  0.1503
   47loPI   C1B  749   3.551   7.024  10.614 -0.1905 -0.0330  0.0778
   47loPI   C2B  750   3.530   7.064  10.153 -0.2232 -0.1977  0.2228
   47loPI   C3B  751   3.505   7.172   9.777  0.1642 -0.0274 -0.2648
   47loPI   C4B  752   3.425   7.148   9.307  0.2060  0.1166  0.1957
   48loPI    C1  753   7.736   8.273  11.697  0.1596 -0.1171 -0.1730
   48loPI    C2  754   8.012   8.557  11.756  0.2331 -0.1921 -0.1534
   48loPI    C3  755   7.954   8.274  12.033 -0.2733  0.1605  0.1172
   48loPI   PO4  756   7.781   8.266  11.421 -0.1360 -0.1018 -0.4105
   48loPI   GL1  757   7.712   8.520  11.082 -0.0108 -0.1534  0.3472
   48loPI   GL2  758   8.047   8.549  10.983 -0.0191 -0.0315  0.2329
   48loPI   C1A  759   7.581   8.702  10.661  0.1200  0.3653 -0.1187
   48loPI   C2A  760   7.558   8.766  10.208 -0.0725  0.2201  0.2803
   48loPI   C3A  761   7.466   8.701   9.808 -0.2077 -0.1246 -0.0909
   48loPI   C4A  762   7.469   8.733   9.431 -0.2225  0.0414  0.1054
   48loPI   C5A  763   7.775   8.871   9.072  0.2023  0.0737 -0.1503
   48loPI   C6A  764   7.789   9.096   8.720  0.0200  0.0877 -0.1528
   48loPI   C1B  765   8.052   8.558  10.644  0.0537 -0.2510  0.4383
   48loPI   C2B  766   8.002   8.540  10.303 -0.3422 -0.0157  0.0294
   48loPI   C3B  767   7.959   8.417   9.858  0.2069 -0.1185  0.2421
   48loPI   C4B  768   7.797   8.389   9.386 -0.0163 -0.3900  0.2168
   49loPI    C1  769   4.183   8.066  11.538  0.1439  0.1437  0.0262
   49loPI    C2  770   4.499   8.058  11.783  0.1714 -0.1259 -0.0142
   49loPI    C3  771   4.317   7.717  11.682 -0.0664  0.0179 -0.0786
   49loPI   PO4  772   4.241   8.211  11.352  0.1296  0.0131 -0.1482
   49loPI   GL1  773   3.978   8.446  11.055 -0.3422  0.3557  0.1053
   49loPI   GL2  774   3.918   8.792  10.959  0.0665  0.0056 -0.0992
   49loPI   C1A  775   3.935   8.376  10.565  0.0723 -0.0382 -0.2366
   49loPI   C2A  776   3.940   8.251  10.122  0.1641  0.0010 -0.1387
   49loPI   C3A  777   3.877   8.426   9.793  0.1409  0.2742  0.1078
   49loPI   C4A  778   3.848   8.437   9.414 -0.1131  0.1009 -0.3877
   49loPI   C5A  779   3.873   8.450   8.998 -0.1214 -0.2675  0.4480
   49loPI   C6A  780   3.924   8.359   8.625 -0.0037 -0.0517  0.2651
   49loPI   C1B  781   3.932   8.921  10.538 -0.0788  0.2396 -0.0332
   49loPI   C2B  782   3.856   8.924   9.954 -0.1736  0.1320  0.0650
   49loPI   C3B  783   3.799   8.922   9.556 -0.1365  0.3617  0.2953
   49loPI   C4B  784   3.790   8.954   9.111 -0.2237 -0.1726  0.4678
   50loPI    C1  785   6.817   8.461  11.626 -0.0335  0.0534 -0.0277
   50loPI    C2  786   6.671   8.110  11.753  0.0227  0.0399 -0.0001
   50loPI    C3  787   6.437   8.434  11.748 -0.0089  0.0178  0.0418
   50loPI   PO4  788   6.955   8.329  11.381  0.1441  0.2632  0.1065
   50loPI   GL1  789   6.901   8.181  10.973 -0.0490 -0.1451 -0.0232
   50loPI   GL2  790   6.665   8.166  10.716 -0.0218 -0.0368 -0.2234
   50loPI   C1A  791   7.085   7.977  10.518  0.5084  0.1321 -0.1343
   50loPI   C2A  792   7.071   7.957  10.177 -0.1636 -0.0189  0.1030
   50loPI   C3A  793   7.014   7.886   9.781  0.0689  0.0150  0.1313
   50loPI   C4A  794   7.012   7.887   9.347  0.1357  0.1914 -0.0254
   50loPI   C5A  795   7.261   7.884   8.982  0.0457 -0.0861 -0.1344
   50loPI   C6A  796   7.432   8.155   8.636  0.3352 -0.0669  0.0263
   50loPI   C1B  797   6.625   8.133  10.251  0.0589  0.0774  0.0088
   50loPI   C2B  798   6.560   8.130   9.916 -0.1615 -0.0663 -0.0303
   50loPI   C3B  799   6.596   8.111   9.503 -0.0154  0.0736 -0.0849
   50loPI   C4B  800   6.660   8.139   9.027 -0.1451 -0.0540 -0.0462
   51loPI    C1  801   0.951   3.585  11.959 -0.3147  0.0180 -0.0595
   51loPI    C2  802   1.230   3.526  12.239 -0.1543 -0.0742 -0.2366
   51loPI    C3  803   0.909   3.750  12.321 -0.1045 -0.0923  0.0169
   51loPI   PO4  804   1.113   3.610  11.768  0.3388  0.0596 -0.2500
   51loPI   GL1  805   1.113   3.874  11.321 -0.0399 -0.0802 -0.0574
   51loPI   GL2  806   0.802   3.799  11.266  0.0799  0.3641  0.2008
   51loPI   C1A  807   1.378   3.924  10.970 -0.1939  0.1973  0.1264
   51loPI   C2A  808   1.353   3.832  10.534  0.1345  0.0660 -0.0728
   51loPI   C3A  809   1.312   3.832  10.076 -0.0899  0.6608  0.1187
   51loPI   C4A  810   1.274   3.775   9.683 -0.2342  0.2000  0.1548
   51loPI   C5A  811   1.264   3.749   9.299 -0.0169  0.1444 -0.0583
   51loPI   C6A  812   0.908   3.698   8.961  0.2084  0.0502 -0.0566
   51loPI   C1B  813   0.845   3.890  10.817  0.0122 -0.3522  0.2512
   51loPI   C2B  814   0.896   3.809  10.397 -0.0209 -0.3102  0.0662
   51loPI   C3B  815   0.796   3.785   9.897 -0.0367  0.1381 -0.0207
   51loPI   C4B  816   0.650   3.708   9.411  0.0360 -0.2272 -0.3068
   52loPI    C1  817   4.949   4.205  11.687  0.0505 -0.1836  0.0559
   52loPI    C2  818   5.147   4.537  11.789  0.0030 -0.0854 -0.1659
   52loPI    C3  819   5.126   4.230  12.045 -0.1840  0.1852  0.1518
   52loPI   PO4  820   5.008   4.154  11.381  0.0701 -0.3067  0.1606
   52loPI   GL1  821   4.933   4.326  11.055  0.0429 -0.0069  0.0105
   52loPI   GL2  822   4.654   4.364  10.935 -0.1610  0.1540 -0.0323
   52loPI   C1A  823   5.146   4.391  10.717 -0.2052  0.2548 -0.1400
   52loPI   C2A  824   5.118   4.356  10.196  0.0042 -0.0549 -0.1777
   52loPI   C3A  825   5.239   4.307   9.862  0.0272 -0.0687  0.1735
   52loPI   C4A  826   5.128   4.264   9.412 -0.0898 -0.0568 -0.1513
   52loPI   C5A  827   5.189   4.204   8.941  0.0991  0.0981  0.0754
   52loPI   C6A  828   5.098   4.064   8.584  0.0538 -0.1137  0.2812
   52loPI   C1B  829   4.688   4.297  10.494  0.5122  0.1604 -0.0903
   52loPI   C2B  830   4.656   4.256  10.036 -0.2314  0.2769  0.1543
   52loPI   C3B  831   4.665   4.306   9.570  0.1765  0.0428  0.0172
   52loPI   C4B  832   4.698   4.206   9.149 -0.0710 -0.0677 -0.0908
   53loPI    C1  833   9.584   7.851  11.436  0.2926 -0.0064 -0.1342
   53loPI    C2  834   9.919   7.731  11.619  0.1583  0.1206  0.2044
   53loPI    C3  835   9.827   8.120  11.604  0.0749  0.0951  0.0236
   53loPI   PO4  836   9.641   7.767  11.165 -0.0441 -0.0777 -0.0205
   53loPI   GL1  837   9.546   7.849  10.758  0.2359  0.0766 -0.1219
   53loPI   GL2  838   9.896   7.890  10.766 -0.1974  0.1402 -0.2216
   53loPI   C1A  839   9.597   7.781  10.346  0.0824 -0.2690 -0.0263
   53loPI   C2A  840   9.354   7.824   9.943 -0.0988 -0.1407 -0.1531
   53loPI   C3A  841   9.273   7.784   9.466 -0.1842  0.0895  0.2073
   53loPI   C4A  842   9.221   7.764   9.039 -0.1563 -0.1657  0.0686
   53loPI   C5A  843   9.079   7.858   8.616  0.2556 -0.0844  0.1372
   53loPI   C6A  844   8.676   8.060   8.458 -0.0783 -0.2320 -0.2993
   53loPI   C1B  845   9.877   8.225  10.405 -0.2468  0.4669  0.0701
   53loPI   C2B  846   9.833   8.103   9.930 -0.2385  0.1579 -0.0174
   53loPI   C3B  847   9.724   8.043   9.522 -0.1485 -0.0390  0.1116
   53loPI   C4B  848   9.651   8.064   9.117 -0.1027  0.0578  0.3713
   54loPI    C1  849  12.491   0.516  11.699  0.1386  0.2316 -0.0684
   54loPI    C2  850  12.219   0.600  11.980  0.1098  0.0578 -0.0433
   54loPI    C3  851  12.571   0.440  12.083  0.0709 -0.0737 -0.1125
   54loPI   PO4  852  12.474   0.670  11.558  0.1980 -0.0470  0.2283
   54loPI   GL1  853  12.707   0.849  11.228 -0.0311 -0.1061 -0.0517
   54loPI   GL2  854  13.069   0.939  11.177  0.1228 -0.2116 -0.3315
   54loPI   C1A  855  12.432   0.943  10.858  0.1720 -0.0861 -0.0464
   54loPI   C2A  856  12.403   0.951  10.381 -0.1471 -0.0180  0.1017
   54loPI   C3A  857  12.458   0.930   9.939  0.0458  0.1349  0.0566
   54loPI   C4A  858  12.292   0.923   9.581  0.2093 -0.2937 -0.2295
   54loPI   C5A  859  12.334   0.976   9.148  0.1194  0.2025  0.0103
   54loPI   C6A  860  12.110   1.058   8.767 -0.0219 -0.0662 -0.0453
   54loPI   C1B  861  12.952   0.937  10.739  0.1252  0.1432 -0.0056
   54loPI   C2B  862  12.907   0.913  10.279  0.1789  0.2485 -0.2035
   54loPI   C3B  863  12.934   0.884   9.838  0.1910 -0.2669 -0.2874
   54loPI   C4B  864  12.875   0.928   9.359 -0.2385  0.0573 -0.4326
   55loPI    C1  865  13.993   7.470  11.425 -0.2124 -0.0012 -0.0074
   55loPI    C2  866  14.151   7.136  11.578 -0.0695  0.0791  0.0235
   55loPI    C3  867  13.851   7.320  11.767 -0.2340 -0.0994 -0.0591
   55loPI   PO4  868  14.192   7.407  11.193 -0.0283 -0.3382 -0.1979
   55loPI   GL1  869  14.354   7.518  10.903  0.2582  0.3304 -0.2356
   55loPI   GL2  870  14.488   7.187  10.842 -0.1099  0.1760 -0.1498
   55loPI   C1A  871  14.419   7.805  10.479 -0.1187  0.3317 -0.3095
   55loPI   C2A  872  14.386   7.882  10.071 -0.1009 -0.0743  0.0535
   55loPI   C3A  873  14.328   7.738   9.802  0.0475 -0.0891  0.1528
   55loPI   C4A  874  14.438   7.760   9.312  0.0770 -0.1835  0.1161
   55loPI   C5A  875  14.615   7.701   8.872 -0.1953 -0.2937  0.0155
   55loPI   C6A  876  14.737   8.035   8.600  0.1531  0.1851  0.0027
   55loPI   C1B  877  14.414   7.319  10.388 -0.2735 -0.0764  0.1764
   55loPI   C2B  878  14.435   7.279   9.948 -0.1431  0.1258  0.1875
   55loPI   C3B  879  14.487   7.287   9.518 -0.2048  0.2058 -0.3433
   55loPI   C4B  880  14.479   7.239   9.095  0.0500 -0.0082 -0.2809
   56loPI    C1  881  13.790  12.674  11.666  0.0328 -0.3208 -0.0659
   56loPI    C2  882  14.051  12.548  11.941  0.3122  0.1395 -0.1101
   56loPI    C3  883  13.897  12.916  11.966  0.0478  0.0496 -0.3632
   56loPI   PO4  884  13.951  12.667  11.355  0.3290  0.1041  0.1837
   56loPI   GL1  885  14.084  12.492  10.927  0.0988  0.0756  0.2455
   56loPI   GL2  886  14.328  12.259  10.987  0.1074  0.1254 -0.0521
   56loPI   C1A  887  13.938  12.516  10.500 -0.0182  0.1729  0.0003
   56loPI   C2A  888  13.987  12.523  10.136 -0.0107  0.3301  0.3267
   56loPI   C3A  889  13.928  12.584   9.620 -0.1858 -0.0692  0.1150
   56loPI   C4A  890  13.939  12.542   9.147 -0.0109  0.1306 -0.4295
   56loPI   C5A  891  13.660  12.571   8.753 -0.0664  0.0802 -0.4136
   56loPI   C6A  892  13.207  12.388   8.696 -0.0593  0.0944 -0.0016
   56loPI   C1B  893  14.415  12.277  10.601  0.2820 -0.1202  0.2266
   56loPI   C2B  894  14.452  12.316  10.225  0.1399  0.0468 -0.3308
   56loPI   C3B  895  14.471  12.176   9.790 -0.1794 -0.0918 -0.0840
   56loPI   C4B  896  14.374  12.369   9.501 -0.1300  0.2406 -0.3795
   57loPI    C1  897   6.700  16.661  11.286 -0.0842 -0.0234  0.1671
   57loPI    C2  898   6.693  16.397  11.587  0.0887  0.1204  0.2995
   57loPI    C3  899   6.870  16.753  11.636  0.0485  0.1767  0.0526
   57loPI   PO4  900   6.662  16.549  11.117 -0.2890  0.2041 -0.2507
   57loPI   GL1  901   6.587  16.440  10.819 -0.0235 -0.1208 -0.1535
   57loPI   GL2  902   6.822  16.627  10.591  0.1985  0.1356 -0.0671
   57loPI   C1A  903   6.584  16.256  10.327  0.3004 -0.2457  0.0212
   57loPI   C2A  904   6.625  16.222   9.922  0.1069 -0.0876  0.2665
   57loPI   C3A  905   6.629  16.152   9.531  0.2097  0.1240 -0.2588
   57loPI   C4A  906   6.614  16.186   9.088  0.0087 -0.1832  0.0129
   57loPI   C5A  907   6.558  16.337   8.754  0.1641 -0.4284 -0.2232
   57loPI   C6A  908   6.850  16.192   8.449  0.2417 -0.1070 -0.2360
   57loPI   C1B  909   6.866  16.661  10.084  0.2019 -0.1569  0.0518
   57loPI   C2B  910   6.843  16.616   9.554  0.2323  0.1924 -0.0847
   57loPI   C3B  911   6.879  16.598   9.081 -0.0157  0.0030 -0.1271
   57loPI   C4B  912   7.008  16.608   8.656  0.1339 -0.0967  0.0893
   58loPI    C1  913   1.702   9.067  11.594 -0.0003 -0.0590  0.1150
   58loPI    C2  914   1.527   9.137  11.946  0.0019  0.0373  0.0972
   58loPI    C3  915   1.854   9.341  11.841 -0.1636  0.2143 -0.0827
   58loPI   PO4  916   1.621   9.098  11.453  0.2427 -0.2571  0.2501
   58loPI   GL1  917   1.463   8.852  11.095 -0.0872  0.0985  0.0934
   58loPI   GL2  918   1.595   9.038  10.955 -0.1045  0.1365  0.2026
   58loPI   C1A  919   1.214   8.821  10.645  0.3311  0.3583 -0.0584
   58loPI   C2A  920   1.144   8.768  10.285 -0.0373 -0.2450 -0.0748
   58loPI   C3A  921   1.187   8.783   9.848 -0.0544  0.0725 -0.3772
   58loPI   C4A  922   1.185   8.862   9.447 -0.1190 -0.0181  0.0114
   58loPI   C5A  923   1.103   8.846   9.043 -0.3245  0.0580 -0.1988
   58loPI   C6A  924   1.156   8.507   8.810  0.1334  0.1530 -0.2644
   58loPI   C1B  925   1.692   9.116  10.508  0.1586 -0.1445  0.1535
   58loPI   C2B  926   1.602   9.055  10.112 -0.1210 -0.4086 -0.3633
   58loPI   C3B  927   1.595   9.103   9.624  0.0309  0.2484 -0.0411
   58loPI   C4B  928   1.539   9.099   9.190  0.1939  0.4559 -0.1854
   59loPI    C1  929   5.723   1.549  11.487  0.1441  0.0972  0.1746
   59loPI    C2  930   5.543   1.758  11.777  0.0903 -0.0090  0.2182
   59loPI    C3  931   5.597   1.364  11.819  0.0986 -0.0217  0.0916
   59loPI   PO4  932   5.689   1.629  11.292 -0.2055  0.2493  0.3090
   59loPI   GL1  933   5.774   1.633  10.906 -0.1191  0.1377  0.1315
   59loPI   GL2  934   6.060   1.671  10.873 -0.1045 -0.0086  0.0359
   59loPI   C1A  935   5.673   1.712  10.531 -0.0420 -0.0964 -0.0606
   59loPI   C2A  936   5.716   1.655  10.150  0.3953  0.3368 -0.0429
   59loPI   C3A  937   5.731   1.614   9.777  0.0097 -0.0764  0.0251
   59loPI   C4A  938   5.798   1.700   9.293 -0.1239  0.1762  0.0298
   59loPI   C5A  939   5.901   1.577   8.843  0.0109 -0.0430 -0.1772
   59loPI   C6A  940   5.960   1.142   8.611  0.0499 -0.1141  0.0882
   59loPI   C1B  941   6.235   1.659  10.535 -0.2610 -0.1802 -0.0451
   59loPI   C2B  942   6.254   1.678  10.070 -0.0215  0.0947 -0.0421
   59loPI   C3B  943   6.327   1.625   9.637 -0.2341  0.0690  0.1118
   59loPI   C4B  944   6.249   1.546   9.188  0.2528  0.0023 -0.0533
   60loPI    C1  945  16.962  12.575  11.349  0.0495  0.2611  0.0161
   60loPI    C2  946  16.926  12.664  11.737  0.3506  0.2382  0.0517
   60loPI    C3  947  16.766  12.905  11.461 -0.1724  0.0716  0.1973
   60loPI   PO4  948  17.178  12.578  11.297  0.3161 -0.0677 -0.0278
   60loPI   GL1  949  17.171  12.470  10.732 -0.0432 -0.2039 -0.1772
   60loPI   GL2  950  17.420  12.474  10.821  0.0663  0.1353 -0.3180
   60loPI   C1A  951  17.085  12.452  10.346 -0.1380  0.0105 -0.2536
   60loPI   C2A  952  17.176  12.516   9.903  0.1028 -0.4225  0.4278
   60loPI   C3A  953  17.149  12.464   9.487 -0.0895 -0.1427  0.0725
   60loPI   C4A  954  17.154  12.518   9.054  0.1371 -0.2193 -0.0618
   60loPI   C5A  955  17.092  12.528   8.635  0.1635 -0.7686  0.2914
   60loPI   C6A  956  17.363  12.431   8.273 -0.1224 -0.0654  0.2159
   60loPI   C1B  957  17.535  12.327  10.348 -0.0260  0.1185  0.5131
   60loPI   C2B  958  17.608  12.332   9.942  0.0876 -0.0060  0.0557
   60loPI   C3B  959  17.647  12.333   9.518 -0.2375 -0.2104  0.2373
   60loPI   C4B  960  17.667  12.378   9.154  0.0731 -0.1361  0.2234
   61loPI    C1  961  17.149  16.553  11.700 -0.0454  0.1569  0.0251
   61loPI    C2  962  16.775  16.514  11.834 -0.0813 -0.1601 -0.1573
   61loPI    C3  963  17.041  16.221  11.895  0.0675 -0.0452 -0.2484
   61loPI   PO4  964  17.091  16.649  11.485 -0.3055 -0.1802  0.1801
   61loPI   GL1  965  17.289  16.614  11.129  0.0881  0.1990  0.1316
   61loPI   GL2  966  17.453  16.584  10.970  0.0134 -0.1477  0.1619
   61loPI   C1A  967  17.047  16.885  10.777  0.1463  0.1999  0.1422
   61loPI   C2A  968  17.017  16.984  10.383 -0.1868  0.0265  0.2111
   61loPI   C3A  969  17.137  16.927   9.947  0.0537 -0.0448  0.0756
   61loPI   C4A  970  17.042  16.915   9.443  0.1080 -0.3936  0.0614
   61loPI   C5A  971  16.975  16.819   8.949  0.2009  0.1651  0.1539
   61loPI   C6A  972  17.000  16.421   8.762  0.0727 -0.0043 -0.2215
   61loPI   C1B  973  17.273  16.494  10.558  0.0619 -0.1438  0.0148
   61loPI   C2B  974  17.361  16.510  10.106 -0.1125  0.2050 -0.5548
   61loPI   C3B  975  17.331  16.536   9.654  0.2747 -0.3414  0.2861
   61loPI   C4B  976  17.288  16.506   9.259 -0.1076  0.1408 -0.0067
   62loPI    C1  977   2.296  16.183  11.384  0.0889  0.2416 -0.0796
   62loPI    C2  978   2.371  16.328  11.749 -0.0530  0.3208 -0.0810
   62loPI    C3  979   2.253  15.949  11.706 -0.1128  0.3342 -0.0374
   62loPI   PO4  980   2.421  16.284  11.213  0.1857  0.3176 -0.0759
   62loPI   GL1  981   2.219  16.411  10.796 -0.0411 -0.3836  0.1260
   62loPI   GL2  982   2.591  16.513  10.814 -0.1278 -0.0613 -0.0075
   62loPI   C1A  983   2.277  16.488  10.410  0.0375  0.3598  0.0482
   62loPI   C2A  984   2.269  16.519   9.974 -0.1035  0.0251  0.2586
   62loPI   C3A  985   2.217  16.571   9.577 -0.1358  0.0937 -0.0097
   62loPI   C4A  986   2.241  16.623   9.120  0.0698  0.1005  0.0863
   62loPI   C5A  987   2.462  16.845   8.755  0.0052  0.1098 -0.1748
   62loPI   C6A  988   2.660  17.074   8.741 -0.1686  0.2932 -0.0706
   62loPI   C1B  989   2.768  16.479  10.447  0.1673  0.1523  0.4577
   62loPI   C2B  990   2.768  16.495  10.077 -0.2923  0.0296 -0.1334
   62loPI   C3B  991   2.819  16.529   9.635 -0.1614 -0.2023 -0.1307
   62loPI   C4B  992   2.802  16.587   9.200  0.0759 -0.0557 -0.0128
   63loPI    C1  993  10.697  13.342  11.602  0.1363 -0.4174 -0.0533
   63loPI    C2  994  10.316  13.234  11.546  0.0213  0.0459 -0.2114
   63loPI    C3  995  10.449  13.315  11.914 -0.0776  0.0417 -0.1745
   63loPI   PO4  996  10.708  13.503  11.366 -0.1067 -0.1115  0.0431
   63loPI   GL1  997  10.667  13.658  10.971 -0.2144  0.3619 -0.2831
   63loPI   GL2  998  11.008  13.520  10.870 -0.4141 -0.0269 -0.1755
   63loPI   C1A  999  10.782  13.755  10.495  0.0121 -0.1971  0.1902
   63loPI   C2A 1000  10.813  13.661  10.014 -0.0070  0.1269  0.2369
   63loPI   C3A 1001  10.654  13.582   9.671  0.0318  0.1228 -0.1963
   63loPI   C4A 1002  10.793  13.444   9.313  0.3188  0.0992 -0.2838
   63loPI   C5A 1003  11.077  13.248   9.097  0.3450  0.0231 -0.1393
   63loPI   C6A 1004  11.310  13.115   8.685 -0.0098  0.1717 -0.0916
   63loPI   C1B 1005  11.104  13.313  10.548  0.1375  0.1741 -0.1196
   63loPI   C2B 1006  11.145  13.231  10.113 -0.2282 -0.0205 -0.0395
   63loPI   C3B 1007  11.029  13.238   9.777 -0.1632  0.0731 -0.1157
   63loPI   C4B 1008  10.777  12.975   9.468  0.0647 -0.1961  0.0797
   64loPI    C1 1009   2.484   3.574  11.684  0.1935  0.1452 -0.0474
   64loPI    C2 1010   2.491   3.245  11.911  0.1577  0.0717 -0.1520
   64loPI    C3 1011   2.400   3.598  12.075 -0.1585 -0.0266 -0.1084
   64loPI   PO4 1012   2.389   3.538  11.489  0.3436  0.0503 -0.2965
   64loPI   GL1 1013   2.102   3.444  11.270  0.0199 -0.0721  0.2665
   64loPI   GL2 1014   2.297   3.063  11.296 -0.1700  0.1051  0.0657
   64loPI   C1A 1015   2.087   3.389  10.828 -0.3138  0.0482  0.3868
   64loPI   C2A 1016   2.082   3.431  10.410 -0.0894 -0.0027  0.5120
   64loPI   C3A 1017   2.050   3.269  10.110 -0.2430  0.0614  0.1863
   64loPI   C4A 1018   2.126   3.305   9.756  0.0108  0.1230 -0.2245
   64loPI   C5A 1019   2.092   3.316   9.286 -0.0969  0.2959  0.1468
   64loPI   C6A 1020   1.871   3.340   8.903  0.0401 -0.0828  0.0115
   64loPI   C1B 1021   2.417   3.006  10.905  0.0712  0.0849 -0.0597
   64loPI   C2B 1022   2.297   2.903  10.418 -0.0826  0.1360 -0.2001
   64loPI   C3B 1023   2.381   2.890   9.969  0.1425 -0.3139  0.1373
   64loPI   C4B 1024   2.341   2.944   9.507 -0.2736 -0.0539 -0.3065
   65loPI    C1 1025   5.513   3.359  11.706  0.2339 -0.0455  0.0009
   65loPI    C2 1026   5.774   3.547  11.944 -0.0356  0.1342  0.1607
   65loPI    C3 1027   5.525   3.274  12.096  0.2171 -0.2138 -0.0347
   65loPI   PO4 1028   5.621   3.464  11.509  0.2478 -0.0230 -0.1014
   65loPI   GL1 1029   5.777   3.324  11.137 -0.0398 -0.0132 -0.2120
   65loPI   GL2 1030   6.063   3.244  10.988 -0.3588  0.3021  0.0407
   65loPI   C1A 1031   5.714   3.496  10.704 -0.4892  0.2845  0.2432
   65loPI   C2A 1032   5.779   3.418  10.279 -0.0937  0.0650 -0.0058
   65loPI   C3A 1033   5.745   3.427   9.816 -0.0526 -0.0702 -0.0857
   65loPI   C4A 1034   5.747   3.354   9.416 -0.0447  0.2283  0.0991
   65loPI   C5A 1035   5.696   3.570   9.065 -0.0740  0.0830  0.1501
   65loPI   C6A 1036   5.597   3.891   8.762  0.3742  0.1126  0.0316
   65loPI   C1B 1037   5.921   3.057  10.618  0.3215  0.1175 -0.1288
   65loPI   C2B 1038   5.945   2.971  10.238  0.2326 -0.1881 -0.3299
   65loPI   C3B 1039   6.088   2.974   9.841  0.1000 -0.2980  0.2319
   65loPI   C4B 1040   6.078   2.985   9.431 -0.2629 -0.0726  0.1773
   66loPI    C1 1041   4.780   5.486  11.637  0.1131  0.3030 -0.2659
   66loPI    C2 1042   4.437   5.563  11.828  0.1537 -0.0619 -0.0365
   66loPI    C3 1043   4.784   5.570  12.028  0.2382 -0.0780 -0.1808
   66loPI   PO4 1044   4.708   5.603  11.386 -0.0979 -0.1926 -0.3378
   66loPI   GL1 1045   4.546   5.496  11.049  0.0696  0.1290 -0.0064
   66loPI   GL2 1046   4.422   5.737  10.987  0.1678  0.0785  0.1013
   66loPI   C1A 1047   4.680   5.254  10.729  0.3299 -0.0180  0.1216
   66loPI   C2A 1048   4.732   5.254  10.304 -0.0532 -0.1556 -0.0024
   66loPI   C3A 1049   4.659   5.345   9.840 -0.0199 -0.2378 -0.2899
   66loPI   C4A 1050   4.691   5.255   9.392 -0.1274  0.0643  0.3941
   66loPI   C5A 1051   4.630   5.151   8.961  0.2886  0.0120 -0.0783
   66loPI   C6A 1052   4.548   4.934   8.593 -0.1441 -0.0144 -0.1262
   66loPI   C1B 1053   4.457   5.725  10.493  0.1341  0.2357 -0.1625
   66loPI   C2B 1054   4.439   5.727  10.000 -0.0143 -0.1610 -0.2657
   66loPI   C3B 1055   4.448   5.683   9.549  0.0776  0.0094 -0.0697
   66loPI   C4B 1056   4.436   5.624   9.092  0.0268  0.1867  0.3185
   67loPI    C1 1057   1.779  14.359  11.317 -0.1190 -0.2576  0.0373
   67loPI    C2 1058   1.985  14.632  11.525 -0.1140 -0.1407 -0.1191
   67loPI    C3 1059   2.141  14.268  11.462  0.0229 -0.0701 -0.1930
   67loPI   PO4 1060   1.678  14.454  11.134 -0.0915 -0.0280 -0.0016
   67loPI   GL1 1061   1.656  14.517  10.756 -0.1754 -0.0846 -0.0796
   67loPI   GL2 1062   1.895  14.769  10.619  0.1840 -0.1841 -0.1279
   67loPI   C1A 1063   1.804  14.263  10.440 -0.3475 -0.1474 -0.0432
   67loPI   C2A 1064   2.007  14.232   9.985 -0.0876  0.0516  0.1687
   67loPI   C3A 1065   1.997  14.299   9.525 -0.5031 -0.2654 -0.0237
   67loPI   C4A 1066   2.037  14.425   9.125 -0.1016  0.2276 -0.1773
   67loPI   C5A 1067   1.946  14.248   8.709  0.0763 -0.5257  0.4025
   67loPI   C6A 1068   1.829  13.877   8.553 -0.1082 -0.1005 -0.1019
   67loPI   C1B 1069   1.772  14.704  10.118  0.0059  0.1817  0.1976
   67loPI   C2B 1070   1.950  14.811   9.678  0.0129 -0.1190 -0.0133
   67loPI   C3B 1071   2.285  14.848   9.388  0.4639 -0.2004 -0.0487
   67loPI   C4B 1072   2.328  14.926   8.967 -0.1150 -0.0057 -0.1546
   68loPI    C1 1073   3.089   4.424  11.414  0.4204 -0.1477  0.1399
   68loPI    C2 1074   3.200   4.807  11.382 -0.1637  0.0469  0.3039
   68loPI    C3 1075   3.278   4.603  11.717  0.0338  0.0590  0.2665
   68loPI   PO4 1076   3.129   4.215  11.214  0.0220 -0.1098  0.2295
   68loPI   GL1 1077   3.126   3.905  10.898  0.0455  0.0222  0.0056
   68loPI   GL2 1078   2.862   3.858  10.804  0.0028  0.0544  0.0471
   68loPI   C1A 1079   3.378   3.911  10.545 -0.0971  0.1729 -0.3439
   68loPI   C2A 1080   3.359   3.797  10.187  0.0528  0.2038 -0.1970
   68loPI   C3A 1081   3.309   3.810   9.728 -0.4760 -0.0351  0.0632
   68loPI   C4A 1082   3.416   3.876   9.295  0.1579  0.1110 -0.1658
   68loPI   C5A 1083   3.418   4.029   8.822  0.0279  0.1230  0.0638
   68loPI   C6A 1084   3.312   4.105   8.445  0.0648  0.0897  0.3139
   68loPI   C1B 1085   2.876   3.798  10.296 -0.2623  0.1026 -0.2301
   68loPI   C2B 1086   2.796   3.705   9.885 -0.1238  0.2683 -0.0498
   68loPI   C3B 1087   2.829   3.799   9.498  0.0471 -0.0115 -0.0672
   68loPI   C4B 1088   2.943   3.777   9.144 -0.2775 -0.3096 -0.2592
   69loPI    C1 1089   4.675   6.963  11.511 -0.2564  0.0578 -0.0643
   69loPI    C2 1090   4.313   6.886  11.663 -0.2441 -0.0344 -0.0811
   69loPI    C3 1091   4.502   7.225  11.758 -0.2436 -0.0837  0.0972
   69loPI   PO4 1092   4.622   7.028  11.267 -0.3166 -0.0091  0.0172
   69loPI   GL1 1093   4.776   7.061  10.916 -0.1590 -0.0938  0.0706
   69loPI   GL2 1094   5.018   6.875  10.824 -0.0764  0.2868  0.3289
   69loPI   C1A 1095   4.462   7.155  10.588  0.2169  0.3640  0.1301
   69loPI   C2A 1096   4.401   7.201  10.134  0.3127  0.2627  0.1501
   69loPI   C3A 1097   4.391   7.160   9.669 -0.0797  0.0066  0.1942
   69loPI   C4A 1098   4.341   7.232   9.281 -0.1924  0.0376  0.2579
   69loPI   C5A 1099   4.345   7.169   8.861  0.1215  0.0337 -0.0802
   69loPI   C6A 1100   4.358   6.970   8.467  0.1340 -0.0621  0.0899
   69loPI   C1B 1101   4.915   6.987  10.349  0.2434  0.2282 -0.0342
   69loPI   C2B 1102   4.859   6.968   9.875 -0.1838 -0.2125  0.3894
   69loPI   C3B 1103   4.833   6.949   9.457 -0.1234 -0.2979  0.0759
   69loPI   C4B 1104   4.825   7.061   9.033  0.0367  0.3626  0.1236
   70loPI    C1 1105  12.768   1.438  12.066  0.0041  0.2852  0.0346
   70loPI    C2 1106  12.742   1.706  12.362  0.2426 -0.0085  0.3297
   70loPI    C3 1107  12.666   1.320  12.434  0.0311 -0.0449 -0.0600
   70loPI   PO4 1108  12.595   1.651  11.885  0.0538 -0.1959  0.0828
   70loPI   GL1 1109  12.550   1.650  11.469 -0.0257  0.1600 -0.0259
   70loPI   GL2 1110  12.463   1.971  11.268 -0.0123 -0.2730 -0.2296
   70loPI   C1A 1111  12.503   1.468  11.031  0.0510 -0.3576 -0.0470
   70loPI   C2A 1112  12.633   1.431  10.635 -0.0114  0.1262  0.2397
   70loPI   C3A 1113  12.704   1.425  10.120 -0.0433  0.2106 -0.0117
   70loPI   C4A 1114  12.687   1.292   9.672  0.0119  0.0773 -0.1419
   70loPI   C5A 1115  12.698   1.366   9.253 -0.1156 -0.0218 -0.0536
   70loPI   C6A 1116  12.690   1.374   8.780  0.2488 -0.0582  0.2383
   70loPI   C1B 1117  12.333   1.911  10.887 -0.3012  0.0983  0.2583
   70loPI   C2B 1118  12.382   1.847  10.394  0.1669  0.1173  0.0463
   70loPI   C3B 1119  12.338   1.973  10.004  0.1296 -0.0877  0.0033
   70loPI   C4B 1120  12.439   1.801   9.623  0.2292  0.3576  0.0481
   71loPI    C1 1121   8.422  15.948  11.427  0.1360  0.1419 -0.2257
   71loPI    C2 1122   8.224  16.277  11.538  0.0117 -0.0916  0.2723
   71loPI    C3 1123   8.280  15.979  11.799  0.1834 -0.4400 -0.1490
   71loPI   PO4 1124   8.375  15.884  11.162  0.0775 -0.0447 -0.1911
   71loPI   GL1 1125   8.175  15.788  10.837  0.0921 -0.3155 -0.0421
   71loPI   GL2 1126   7.996  16.030  10.647 -0.1368 -0.1907  0.0380
   71loPI   C1A 1127   8.412  15.899  10.467 -0.0431 -0.1769 -0.0730
   71loPI   C2A 1128   8.486  15.913  10.036  0.1753  0.2911 -0.2107
   71loPI   C3A 1129   8.394  15.855   9.606  0.1205 -0.0622  0.2634
   71loPI   C4A 1130   8.409  15.704   9.199 -0.0418  0.1233 -0.0104
   71loPI   C5A 1131   8.565  15.807   8.815  0.5863  0.3618 -0.1120
   71loPI   C6A 1132   8.672  16.072   8.389 -0.2035 -0.5256  0.4707
   71loPI   C1B 1133   8.082  16.251  10.318  0.2133 -0.0864  0.2972
   71loPI   C2B 1134   8.156  16.263   9.916  0.0250 -0.0753 -0.3838
   71loPI   C3B 1135   8.136  16.274   9.449  0.0040  0.2291  0.0303
   71loPI   C4B 1136   8.082  16.179   8.964 -0.1373  0.5206 -0.1385
   72loPI    C1 1137   4.650  11.442  11.416  0.2046 -0.1153 -0.2399
   72loPI    C2 1138   4.431  11.280  11.709  0.1410  0.4550  0.0427
   72loPI    C3 1139   4.828  11.230  11.704  0.1104  0.1961  0.0537
   72loPI   PO4 1140   4.456  11.365  11.228  0.0582  0.0864 -0.0075
   72loPI   GL1 1141   4.417  11.515  10.837 -0.2713 -0.0813 -0.1865
   72loPI   GL2 1142   4.129  11.384  10.620 -0.0065  0.1671 -0.0656
   72loPI   C1A 1143   4.540  11.670  10.444  0.2433  0.0562 -0.3141
   72loPI   C2A 1144   4.632  11.599  10.011 -0.0397  0.1296 -0.0140
   72loPI   C3A 1145   4.510  11.708   9.634 -0.0700 -0.1124 -0.0571
   72loPI   C4A 1146   4.461  11.637   9.165  0.0140  0.0027 -0.3543
   72loPI   C5A 1147   4.605  11.497   8.817  0.1446 -0.0105  0.1225
   72loPI   C6A 1148   4.781  11.614   8.428 -0.1625  0.2358  0.1257
   72loPI   C1B 1149   4.238  11.386  10.183  0.1386 -0.1372 -0.0016
   72loPI   C2B 1150   4.094  11.294   9.765  0.0622  0.1343 -0.1625
   72loPI   C3B 1151   4.078  11.347   9.325 -0.1756 -0.0563  0.2006
   72loPI   C4B 1152   4.061  11.391   8.846  0.0472  0.1346  0.1547
   73loPI    C1 1153  15.273   0.300  11.715  0.3143  0.0222 -0.0417
   73loPI    C2 1154  15.492   0.443  12.017  0.0194  0.0244  0.1763
   73loPI    C3 1155  15.112   0.558  11.975  0.0696  0.0571 -0.2242
   73loPI   PO4 1156  15.306   0.291  11.514  0.1778  0.0374  0.1129
   73loPI   GL1 1157  15.325   0.146  11.103 -0.2454 -0.1427 -0.0131
   73loPI   GL2 1158  15.606   0.006  10.927  0.1581  0.0836 -0.0597
   73loPI   C1A 1159  15.089   0.130  10.848 -0.3370 -0.1490  0.3776
   73loPI   C2A 1160  14.995   0.035  10.377 -0.1368 -0.2962 -0.0608
   73loPI   C3A 1161  14.941   0.148   9.960  0.2408 -0.0464 -0.1451
   73loPI   C4A 1162  14.980   0.055   9.514 -0.0824  0.1188  0.0438
   73loPI   C5A 1163  14.875   0.100   9.082  0.0111  0.0623  0.0912
   73loPI   C6A 1164  15.212   0.433   8.850 -0.0479 -0.3590  0.0932
   73loPI   C1B 1165  15.541   0.136  10.495 -0.0006 -0.0768  0.2001
   73loPI   C2B 1166  15.460   0.110   9.994 -0.5074  0.1540 -0.2245
   73loPI   C3B 1167  15.491   0.147   9.636  0.3944 -0.2456 -0.2683
   73loPI   C4B 1168  15.442   0.075   9.167  0.1948 -0.0259 -0.1085
   74loPI    C1 1169   6.487  12.757  11.171 -0.2887  0.1504 -0.3256
   74loPI    C2 1170   6.562  13.086  11.386 -0.1447 -0.0521 -0.0611
   74loPI    C3 1171   6.205  12.908  11.411 -0.0429 -0.2240  0.2175
   74loPI   PO4 1172   6.577  12.855  10.928 -0.1428 -0.1087 -0.0852
   74loPI   GL1 1173   6.560  13.036  10.512 -0.1309 -0.1652  0.2395
   74loPI   GL2 1174   6.269  12.767  10.450  0.4643  0.0993 -0.3061
   74loPI   C1A 1175   6.769  13.085  10.151 -0.1424  0.0571 -0.0669
   74loPI   C2A 1176   6.603  13.058   9.744  0.2680 -0.3905 -0.0841
   74loPI   C3A 1177   6.631  13.169   9.262  0.0019  0.1608  0.0469
   74loPI   C4A 1178   6.629  13.123   8.816 -0.4318  0.1988 -0.0005
   74loPI   C5A 1179   6.727  12.881   8.439  0.2246 -0.1419 -0.0771
   74loPI   C6A 1180   7.059  12.855   8.113 -0.0696  0.1080 -0.2380
   74loPI   C1B 1181   6.267  12.925  10.092 -0.1366  0.0290  0.3445
   74loPI   C2B 1182   6.176  12.775   9.731 -0.1722 -0.1769 -0.0095
   74loPI   C3B 1183   6.179  12.863   9.317  0.0292 -0.0279  0.1710
   74loPI   C4B 1184   6.349  12.658   8.896 -0.1700 -0.1790  0.0553
   75loPI    C1 1185  14.102  17.418  11.962 -0.0261 -0.1110 -0.0799
   75loPI    C2 1186  14.269  17.191  12.247 -0.0720 -0.1331 -0.0704
   75loPI    C3 1187  13.916  17.368  12.312  0.1513  0.2720  0.0744
   75loPI   PO4 1188  14.124  17.329  11.756  0.4880  0.1956 -0.0230
   75loPI   GL1 1189  14.098  17.345  11.200  0.1358  0.0221  0.0465
   75loPI   GL2 1190  14.001  17.630  11.102 -0.2312 -0.1135 -0.2679
   75loPI   C1A 1191  14.251  17.295  10.817  0.3174 -0.0822  0.1652
   75loPI   C2A 1192  14.262  17.274  10.443 -0.0245  0.2013  0.4692
   75loPI   C3A 1193  14.244  17.360  10.018 -0.1853 -0.2293  0.1952
   75loPI   C4A 1194  14.181  17.346   9.636  0.1857 -0.0236  0.0770
   75loPI   C5A 1195  14.083  17.443   9.200  0.0145 -0.0011 -0.1939
   75loPI   C6A 1196  13.996  17.557   8.700 -0.0003 -0.1565  0.0798
   75loPI   C1B 1197  13.981  17.748  10.646 -0.0261  0.1682 -0.2488
   75loPI   C2B 1198  13.977  17.761  10.175  0.3265  0.1053  0.2132
   75loPI   C3B 1199  13.917  17.779   9.775  0.2002 -0.0195  0.0279
   75loPI   C4B 1200  13.970  17.911   9.323  0.0469 -0.2106 -0.1759
   76loPI    C1 1201   6.025   9.298  11.531 -0.0118 -0.2178  0.3316
   76loPI    C2 1202   6.214   9.543  11.785  0.0489 -0.2389  0.3069
   76loPI    C3 1203   5.831   9.609  11.690  0.1736  0.0750 -0.0007
   76loPI   PO4 1204   6.127   9.375  11.234  0.0767 -0.1593 -0.1582
   76loPI   GL1 1205   6.137   9.304  10.802  0.2418  0.0061  0.0215
   76loPI   GL2 1206   5.843   9.388  10.840 -0.0979  0.3419  0.0946
   76loPI   C1A 1207   6.157   9.339  10.322 -0.3409 -0.1877 -0.0813
   76loPI   C2A 1208   6.163   9.409   9.877  0.1540  0.2110 -0.0189
   76loPI   C3A 1209   6.059   9.508   9.569  0.2558  0.0843  0.1119
   76loPI   C4A 1210   5.954   9.492   9.076  0.1856  0.2859  0.1213
   76loPI   C5A 1211   5.944   9.442   8.702  0.1034 -0.1811 -0.4478
   76loPI   C6A 1212   5.868   9.690   8.352 -0.0111 -0.0922 -0.3611
   76loPI   C1B 1213   5.752   9.610  10.413  0.0177  0.0583 -0.0858
   76loPI   C2B 1214   5.713   9.529  10.017 -0.2504  0.1106  0.1246
   76loPI   C3B 1215   5.561   9.654   9.655 -0.2165 -0.0351  0.1262
   76loPI   C4B 1216   5.544   9.762   9.132 -0.0292 -0.2889  0.3851
   77loPI    C1 1217  14.329  11.299  11.463  0.4288  0.1443  0.2559
   77loPI    C2 1218  14.016  11.271  11.709  0.1571  0.2296 -0.0721
   77loPI    C3 1219  14.240  11.602  11.708  0.0983  0.2700 -0.0106
   77loPI   PO4 1220  14.223  11.298  11.211 -0.3631  0.3316 -0.1229
   77loPI   GL1 1221  14.268  11.104  10.875  0.1319 -0.0899  0.1638
   77loPI   GL2 1222  14.520  11.282  10.675  0.1779 -0.1931 -0.1071
   77loPI   C1A 1223  14.074  10.973  10.475  0.0567  0.0456 -0.1803
   77loPI   C2A 1224  14.107  11.018  10.068  0.0281  0.0426 -0.1704
   77loPI   C3A 1225  14.045  10.985   9.679  0.0581 -0.1280  0.1097
   77loPI   C4A 1226  14.058  10.955   9.256 -0.0492 -0.1175  0.0515
   77loPI   C5A 1227  14.170  10.986   8.831  0.2463  0.0768  0.2484
   77loPI   C6A 1228  13.865  10.947   8.481  0.1911 -0.1267 -0.2800
   77loPI   C1B 1229  14.517  11.198  10.223  0.0127 -0.2986  0.2389
   77loPI   C2B 1230  14.486  11.190   9.814 -0.0503  0.3302  0.3468
   77loPI   C3B 1231  14.475  11.301   9.515 -0.0845 -0.2252  0.1268
   77loPI   C4B 1232  14.557  11.175   9.072 -0.0265  0.1765 -0.3178
   78loPI    C1 1233  11.444  13.917  11.480  0.0608 -0.2700  0.0340
   78loPI    C2 1234  11.117  13.761  11.311 -0.0429  0.0307 -0.0492
   78loPI    C3 1235  11.210  13.669  11.689 -0.3669  0.1431  0.0619
   78loPI   PO4 1236  11.554  14.022  11.267  0.0114  0.2229 -0.0487
   78loPI   GL1 1237  11.328  13.918  10.901  0.2174 -0.2645 -0.2766
   78loPI   GL2 1238  11.007  14.043  10.899 -0.0580 -0.1080 -0.2119
   78loPI   C1A 1239  11.506  14.113  10.565  0.1533  0.4232 -0.3186
   78loPI   C2A 1240  11.505  14.134  10.085  0.2713  0.0053  0.2052
   78loPI   C3A 1241  11.596  14.094   9.608  0.0153 -0.0475 -0.0262
   78loPI   C4A 1242  11.682  13.951   9.187  0.1059  0.0764 -0.1459
   78loPI   C5A 1243  11.935  13.681   8.934  0.1143 -0.0157  0.3340
   78loPI   C6A 1244  12.024  13.238   8.885 -0.2038 -0.1130 -0.1638
   78loPI   C1B 1245  11.006  14.192  10.500  0.1731  0.0646  0.2001
   78loPI   C2B 1246  10.978  14.182  10.063 -0.0314 -0.0017 -0.1476
   78loPI   C3B 1247  11.060  14.008   9.523  0.0726  0.1515  0.0158
   78loPI   C4B 1248  10.893  13.859   9.125 -0.1598  0.1634  0.0929
   79loPI    C1 1249   5.454  14.465  11.144 -0.1948 -0.1406  0.0983
   79loPI    C2 1250   5.742  14.249  11.319  0.0562  0.0831 -0.0307
   79loPI    C3 1251   5.577  14.557  11.513 -0.3144 -0.2275  0.1604
   79loPI   PO4 1252   5.513  14.444  10.944 -0.0376 -0.1019  0.2845
   79loPI   GL1 1253   5.627  14.597  10.601  0.3199  0.1913  0.1152
   79loPI   GL2 1254   5.885  14.485  10.629  0.1464 -0.0378 -0.1028
   79loPI   C1A 1255   5.543  14.650  10.221 -0.0347 -0.1130  0.0442
   79loPI   C2A 1256   5.442  14.690   9.747  0.2148 -0.4935  0.2453
   79loPI   C3A 1257   5.409  14.657   9.378  0.1419  0.0985 -0.1812
   79loPI   C4A 1258   5.331  14.669   8.980  0.0972 -0.0731  0.1546
   79loPI   C5A 1259   5.021  14.550   8.566 -0.0637  0.2728 -0.3119
   79loPI   C6A 1260   4.788  14.740   8.190 -0.0607 -0.1115 -0.0022
   79loPI   C1B 1261   6.138  14.427  10.208 -0.3924 -0.3456  0.1046
   79loPI   C2B 1262   6.212  14.361   9.699  0.0340 -0.0274  0.1421
   79loPI   C3B 1263   6.166  14.363   9.320 -0.2512 -0.1435 -0.0930
   79loPI   C4B 1264   6.210  14.480   8.828  0.1483 -0.1548  0.1685
   80loPI    C1 1265  10.728   7.410  11.263 -0.0191  0.0803  0.0916
   80loPI    C2 1266  10.702   7.758  11.458 -0.0349  0.1243  0.0115
   80loPI    C3 1267  10.406   7.491  11.485 -0.0689  0.1600 -0.0092
   80loPI   PO4 1268  10.749   7.488  11.036 -0.2277 -0.0176 -0.0713
   80loPI   GL1 1269  10.879   7.349  10.681 -0.0241  0.2133 -0.1204
   80loPI   GL2 1270  11.187   7.340  10.835  0.1431  0.2012  0.2725
   80loPI   C1A 1271  10.970   7.245  10.304  0.0464 -0.0305 -0.0106
   80loPI   C2A 1272  11.209   7.349   9.924 -0.1368  0.0033  0.3928
   80loPI   C3A 1273  11.077   7.358   9.475  0.2609  0.2559 -0.2583
   80loPI   C4A 1274  11.163   7.307   9.128 -0.0482  0.0093 -0.0144
   80loPI   C5A 1275  10.941   7.292   8.733  0.0935 -0.0563  0.3200
   80loPI   C6A 1276  10.479   7.167   8.631 -0.2954  0.1751 -0.1906
   80loPI   C1B 1277  11.448   7.482  10.399 -0.1407 -0.0852 -0.1635
   80loPI   C2B 1278  11.610   7.684  10.032  0.1235  0.0554  0.1594
   80loPI   C3B 1279  11.653   7.570   9.649  0.2983  0.0291  0.1897
   80loPI   C4B 1280  11.531   7.591   9.241 -0.3782 -0.0933 -0.0441
   81loPI    C1 1281  16.473   4.169  11.784  0.0156 -0.0468  0.1311
   81loPI    C2 1282  16.563   4.022  12.146  0.1182  0.0985  0.1656
   81loPI    C3 1283  16.187   4.002  12.009  0.0688  0.0875  0.3013
   81loPI   PO4 1284  16.638   4.055  11.660  0.0708 -0.1085 -0.0113
   81loPI   GL1 1285  16.861   4.032  11.264  0.1502 -0.1117  0.0649
   81loPI   GL2 1286  16.915   3.753  11.017  0.0051  0.4321  0.0078
   81loPI   C1A 1287  16.615   4.174  10.886 -0.0650  0.1163 -0.4233
   81loPI   C2A 1288  16.611   4.152  10.428 -0.0685  0.0904  0.1456
   81loPI   C3A 1289  16.650   4.142   9.960  0.0141 -0.0801 -0.0133
   81loPI   C4A 1290  16.609   4.083   9.527 -0.5118 -0.0115  0.0236
   81loPI   C5A 1291  16.700   4.028   9.138  0.1948 -0.0622 -0.1138
   81loPI   C6A 1292  16.983   4.279   8.790  0.2283  0.0089 -0.1437
   81loPI   C1B 1293  16.915   3.812  10.595  0.0767 -0.1817  0.1191
   81loPI   C2B 1294  17.014   3.697  10.176  0.0699 -0.2931  0.0072
   81loPI   C3B 1295  16.917   3.694   9.734 -0.0750  0.0168 -0.1559
   81loPI   C4B 1296  16.965   3.658   9.377 -0.1323  0.0534  0.0026
   82loPI    C1 1297  15.857   0.418  11.628  0.3499  0.2124  0.2539
   82loPI    C2 1298  16.128   0.131  11.565 -0.0594 -0.1547  0.1133
   82loPI    C3 1299  15.888   0.113  11.884 -0.2956 -0.1379 -0.0609
   82loPI   PO4 1300  15.778   0.472  11.434 -0.0446 -0.5057  0.0151
   82loPI   GL1 1301  15.577   0.580  11.083  0.3034  0.1914 -0.1634
   82loPI   GL2 1302  15.219   0.615  11.164  0.1332 -0.2540  0.0183
   82loPI   C1A 1303  15.787   0.626  10.727  0.1214  0.2720  0.2771
   82loPI   C2A 1304  15.739   0.530  10.307  0.0649 -0.0173 -0.1509
   82loPI   C3A 1305  15.713   0.511   9.967  0.0498  0.0212 -0.0198
   82loPI   C4A 1306  15.745   0.527   9.514  0.1110 -0.1518  0.1634
   82loPI   C5A 1307  15.644   0.666   9.095  0.1709 -0.1616 -0.1889
   82loPI   C6A 1308  15.586   0.703   8.662 -0.1379  0.3339 -0.1780
   82loPI   C1B 1309  15.228   0.613  10.684 -0.3986  0.2819  0.0812
   82loPI   C2B 1310  15.197   0.510  10.250  0.0648 -0.3456 -0.2833
   82loPI   C3B 1311  15.178   0.552   9.766 -0.0658 -0.1834 -0.0242
   82loPI   C4B 1312  15.273   0.514   9.350  0.0948  0.0537  0.1390
   83loPI    C1 1313   8.499  15.129  11.584 -0.2864  0.1214 -0.1001
   83loPI    C2 1314   8.628  15.507  11.562  0.0409  0.0194  0.0081
   83loPI    C3 1315   8.369  15.401  11.847  0.0354  0.1371  0.0475
   83loPI   PO4 1316   8.525  15.013  11.282  0.0353 -0.0698 -0.0277
   83loPI   GL1 1317   8.755  15.139  10.912  0.1020  0.0282 -0.1316
   83loPI   GL2 1318   8.585  15.487  11.064 -0.0807 -0.0209 -0.1449
   83loPI   C1A 1319   8.894  15.079  10.584 -0.1990  0.2145  0.0504
   83loPI   C2A 1320   8.989  15.076  10.213  0.0673 -0.0860 -0.0488
   83loPI   C3A 1321   8.885  14.934   9.787 -0.1011 -0.2737 -0.0215
   83loPI   C4A 1322   8.871  14.905   9.291 -0.2999 -0.1625  0.0693
   83loPI   C5A 1323   8.501  14.799   9.037  0.1464  0.1542  0.0603
   83loPI   C6A 1324   8.078  14.729   8.999  0.1339 -0.0632  0.1069
   83loPI   C1B 1325   8.661  15.506  10.623 -0.3367  0.0266 -0.2440
   83loPI   C2B 1326   8.702  15.486  10.180  0.0439  0.0874  0.3451
   83loPI   C3B 1327   8.687  15.435   9.779  0.0453 -0.2391  0.0740
   83loPI   C4B 1328   8.625  15.340   9.412  0.0897  0.0696 -0.0161
   84loPI    C1 1329   1.152  10.390  11.145 -0.3323 -0.0515  0.0035
   84loPI    C2 1330   1.355  10.444  11.485 -0.0885  0.3066 -0.1926
   84loPI    C3 1331   0.964  10.365  11.497  0.0124 -0.1886  0.1829
   84loPI   PO4 1332   1.211  10.649  11.032 -0.0146  0.0207  0.1010
   84loPI   GL1 1333   1.383  10.741  10.625 -0.4008  0.1568 -0.2702
   84loPI   GL2 1334   1.380  11.062  10.590  0.0349  0.1047  0.2860
   84loPI   C1A 1335   1.461  10.583  10.246  0.3406  0.1156 -0.0841
   84loPI   C2A 1336   1.387  10.649   9.775  0.1474 -0.0737 -0.1123
   84loPI   C3A 1337   1.468  10.642   9.323 -0.0300 -0.1976  0.0409
   84loPI   C4A 1338   1.324  10.661   8.955  0.1451 -0.0800  0.1129
   84loPI   C5A 1339   1.258  10.677   8.565  0.3206 -0.2154  0.2048
   84loPI   C6A 1340   1.190  10.477   8.193 -0.0365  0.0505 -0.4480
   84loPI   C1B 1341   1.324  11.110  10.155 -0.2943 -0.2780  0.0282
   84loPI   C2B 1342   1.400  11.153   9.677  0.2356 -0.2437  0.1218
   84loPI   C3B 1343   1.355  11.197   9.217 -0.1433  0.0802  0.0230
   84loPI   C4B 1344   1.422  11.183   8.845  0.0159 -0.0490 -0.0361
   85loPI    C1 1345   0.750  14.014  11.234  0.1605 -0.0383 -0.0804
   85loPI    C2 1346   0.841  14.356  11.421 -0.0071  0.0261 -0.1144
   85loPI    C3 1347   1.002  14.011  11.545  0.0213  0.0923  0.0358
   85loPI   PO4 1348   0.766  14.085  11.031 -0.1101  0.0160  0.1476
   85loPI   GL1 1349   0.981  14.051  10.674  0.4076 -0.1917 -0.1494
   85loPI   GL2 1350   1.098  13.768  10.695  0.2698 -0.2277  0.0995
   85loPI   C1A 1351   1.300  14.288  10.378 -0.0787 -0.2262  0.0993
   85loPI   C2A 1352   1.416  14.448   9.938  0.0531  0.0320 -0.0713
   85loPI   C3A 1353   1.471  14.585   9.485 -0.3091 -0.0881 -0.5296
   85loPI   C4A 1354   1.676  14.756   9.142  0.3069  0.0827 -0.1030
   85loPI   C5A 1355   1.818  14.767   8.715  0.0853 -0.3155 -0.1075
   85loPI   C6A 1356   2.085  14.646   8.325  0.1092 -0.3555  0.1420
   85loPI   C1B 1357   1.142  13.762  10.234  0.0155 -0.3152 -0.2659
   85loPI   C2B 1358   1.222  13.654   9.810  0.0913 -0.1733  0.1517
   85loPI   C3B 1359   1.026  13.810   9.426 -0.2318  0.1880  0.0822
   85loPI   C4B 1360   1.174  13.833   9.090  0.1539  0.0456  0.1268
   86loPI    C1 1361   1.593   6.300  11.456 -0.0215  0.3198 -0.1367
   86loPI    C2 1362   1.303   6.390  11.716 -0.0168  0.0065 -0.0194
   86loPI    C3 1363   1.659   6.263  11.848  0.0126 -0.0774 -0.1762
   86loPI   PO4 1364   1.582   6.391  11.183  0.0727 -0.0526  0.0945
   86loPI   GL1 1365   1.964   6.521  10.911  0.0285 -0.1877  0.1239
   86loPI   GL2 1366   2.266   6.374  10.778 -0.0543  0.1529  0.0803
   86loPI   C1A 1367   1.810   6.499  10.343 -0.0838  0.3296  0.0636
   86loPI   C2A 1368   1.749   6.556   9.946  0.0999  0.3512  0.1534
   86loPI   C3A 1369   1.698   6.390   9.474  0.0702  0.0466 -0.0687
   86loPI   C4A 1370   1.802   6.422   9.097 -0.0873 -0.2458  0.0615
   86loPI   C5A 1371   1.556   6.507   8.805 -0.4288 -0.2759 -0.0795
   86loPI   C6A 1372   1.393   6.433   8.464 -0.1169 -0.2151  0.1386
   86loPI   C1B 1373   2.283   6.272  10.413  0.1186 -0.0159 -0.1849
   86loPI   C2B 1374   2.335   6.278  10.017  0.1342 -0.0180 -0.1889
   86loPI   C3B 1375   2.160   6.282   9.595  0.2441  0.4366 -0.1364
   86loPI   C4B 1376   2.225   6.192   9.223  0.0657  0.2168 -0.0825
   87loPI    C1 1377  14.941   7.600  11.627  0.1278 -0.1906 -0.0737
   87loPI    C2 1378  15.304   7.708  11.497  0.1163 -0.1633 -0.0830
   87loPI    C3 1379  15.208   7.756  11.882  0.0333  0.0698 -0.1309
   87loPI   PO4 1380  14.891   7.402  11.562  0.2319  0.0151  0.0448
   87loPI   GL1 1381  14.988   7.374  11.102  0.1138 -0.1116  0.2000
   87loPI   GL2 1382  14.965   7.074  10.949 -0.1714  0.3411  0.0054
   87loPI   C1A 1383  14.815   7.553  10.664 -0.1220 -0.1562  0.0648
   87loPI   C2A 1384  14.799   7.649  10.197  0.0994 -0.1605 -0.1900
   87loPI   C3A 1385  14.889   7.567   9.739 -0.0185 -0.1339  0.0608
   87loPI   C4A 1386  14.899   7.512   9.260 -0.1498 -0.2900  0.1882
   87loPI   C5A 1387  15.105   7.630   8.819  0.1254  0.1715  0.0784
   87loPI   C6A 1388  15.263   8.026   8.620 -0.1695  0.3301  0.3175
   87loPI   C1B 1389  15.037   7.045  10.517  0.1852  0.1527  0.0683
   87loPI   C2B 1390  14.856   7.104  10.116 -0.0722 -0.1468 -0.1292
   87loPI   C3B 1391  14.966   7.082   9.633  0.2442 -0.0808 -0.3189
   87loPI   C4B 1392  14.895   7.009   9.283  0.1592  0.0235 -0.0475
   88loPI    C1 1393   2.242  11.647  11.340  0.1099  0.0239  0.0435
   88loPI    C2 1394   1.982  11.905  11.500  0.0813 -0.0897  0.1819
   88loPI    C3 1395   2.106  11.589  11.711 -0.0567 -0.3138 -0.0659
   88loPI   PO4 1396   2.190  11.725  11.054 -0.2303  0.1073  0.2679
   88loPI   GL1 1397   1.854  11.773  10.877  0.0425  0.1062  0.0332
   88loPI   GL2 1398   1.622  11.612  10.799 -0.1847  0.3106  0.1013
   88loPI   C1A 1399   1.843  11.938  10.391  0.1103  0.0521 -0.2454
   88loPI   C2A 1400   1.724  11.836  10.059 -0.2063 -0.0569 -0.0627
   88loPI   C3A 1401   1.742  11.961   9.643  0.0202 -0.3355 -0.0954
   88loPI   C4A 1402   1.784  12.017   9.241  0.2522  0.1412 -0.1369
   88loPI   C5A 1403   1.764  11.931   8.825 -0.0166 -0.1130  0.0131
   88loPI   C6A 1404   1.878  11.642   8.488  0.1216 -0.0949 -0.1737
   88loPI   C1B 1405   1.359  11.609  10.439  0.1797 -0.0227  0.0400
   88loPI   C2B 1406   1.273  11.555   9.960 -0.0915  0.0945 -0.0622
   88loPI   C3B 1407   1.321  11.698   9.556  0.1903  0.1018 -0.0731
   88loPI   C4B 1408   1.380  11.673   9.131  0.1158  0.1145 -0.1095
   89loPI    C1 1409   6.282   2.463  11.287  0.3119  0.2014  0.1845
   89loPI    C2 1410   6.382   2.257  11.614  0.1673  0.0864  0.1571
   89loPI    C3 1411   6.176   2.598  11.648 -0.1983 -0.1296  0.1688
   89loPI   PO4 1412   6.514   2.512  11.184  0.0319 -0.4298  0.3113
   89loPI   GL1 1413   6.722   2.664  10.786  0.0721 -0.2423 -0.4487
   89loPI   GL2 1414   6.877   2.340  10.833  0.0967  0.0955  0.0118
   89loPI   C1A 1415   6.727   2.658  10.324 -0.1990  0.1218 -0.1256
   89loPI   C2A 1416   6.777   2.644   9.960 -0.0337  0.1839 -0.1080
   89loPI   C3A 1417   6.785   2.575   9.513  0.1458 -0.0215  0.4099
   89loPI   C4A 1418   6.748   2.599   8.992  0.1599 -0.2766 -0.2510
   89loPI   C5A 1419   6.416   2.838   8.799  0.1163  0.3107  0.1008
   89loPI   C6A 1420   6.392   2.828   8.379  0.1704 -0.0503  0.0819
   89loPI   C1B 1421   7.036   2.300  10.415  0.3484 -0.1920  0.1963
   89loPI   C2B 1422   7.054   2.248  10.027  0.3488  0.1556 -0.1036
   89loPI   C3B 1423   7.064   2.174   9.637 -0.1161  0.0209  0.3258
   89loPI   C4B 1424   6.918   2.136   9.194  0.0103  0.1351 -0.3784
   90loPI    C1 1425   8.214   6.874  11.732 -0.0191 -0.3758 -0.0687
   90loPI    C2 1426   8.401   6.563  11.565  0.2973 -0.2591  0.0613
   90loPI    C3 1427   8.492   6.674  11.938  0.2581  0.0495 -0.0184
   90loPI   PO4 1428   8.317   7.089  11.431  0.0958  0.0566  0.0537
   90loPI   GL1 1429   8.592   6.896  11.058 -0.1272  0.2470  0.3221
   90loPI   GL2 1430   8.308   7.074  10.881 -0.2424  0.0306 -0.1191
   90loPI   C1A 1431   8.627   6.867  10.530 -0.1502  0.3259  0.0503
   90loPI   C2A 1432   8.542   6.886  10.173 -0.0420 -0.1345  0.0253
   90loPI   C3A 1433   8.484   6.706   9.754 -0.3685 -0.0824 -0.0446
   90loPI   C4A 1434   8.476   6.725   9.416  0.2092  0.0280  0.2102
   90loPI   C5A 1435   8.355   6.756   9.031  0.0452 -0.1486 -0.2629
   90loPI   C6A 1436   8.117   6.777   8.723  0.1952  0.2307 -0.0320
   90loPI   C1B 1437   8.156   7.042  10.441 -0.0039 -0.3084 -0.2726
   90loPI   C2B 1438   8.075   7.009   9.975  0.2999  0.0150  0.2561
   90loPI   C3B 1439   7.988   6.987   9.530  0.1919 -0.0539 -0.0914
   90loPI   C4B 1440   7.893   6.964   9.094  0.0079  0.0280 -0.0611
   91loPI    C1 1441  11.096  14.392  11.552 -0.0215 -0.1746  0.0892
   91loPI    C2 1442  10.977  14.081  11.774  0.1304 -0.0303  0.3780
   91loPI    C3 1443  11.346  14.229  11.819  0.2267 -0.1102 -0.0999
   91loPI   PO4 1444  11.129  14.329  11.289  0.0823 -0.2674  0.2519
   91loPI   GL1 1445  11.397  14.391  10.996 -0.1269  0.2527 -0.1360
   91loPI   GL2 1446  11.716  14.389  10.886  0.1967  0.0102  0.0203
   91loPI   C1A 1447  11.215  14.604  10.621  0.4096 -0.1286  0.1618
   91loPI   C2A 1448  11.293  14.609  10.164  0.0940  0.2909 -0.0253
   91loPI   C3A 1449  11.285  14.552   9.712  0.0552  0.2218  0.0322
   91loPI   C4A 1450  11.335  14.370   9.268 -0.0270  0.2326 -0.1304
   91loPI   C5A 1451  11.591  14.618   8.960  0.0302 -0.0375 -0.0013
   91loPI   C6A 1452  11.879  14.688   8.695 -0.0021 -0.1107  0.0558
   91loPI   C1B 1453  11.728  14.620  10.476 -0.0293 -0.0174 -0.0893
   91loPI   C2B 1454  11.826  14.614   9.964  0.3383  0.2077 -0.1224
   91loPI   C3B 1455  11.807  14.561   9.518 -0.1092 -0.0296 -0.0066
   91loPI   C4B 1456  11.907  14.384   9.294 -0.1477  0.3070  0.4232
   92loPI    C1 1457   7.618  16.294  11.537 -0.1107 -0.0289  0.0483
   92loPI    C2 1458   7.451  15.935  11.592  0.0927 -0.1130  0.1225
   92loPI    C3 1459   7.753  16.053  11.826  0.1313  0.0417 -0.0039
   92loPI   PO4 1460   7.632  16.372  11.362  0.6124 -0.1384  0.1823
   92loPI   GL1 1461   7.563  16.575  11.100  0.4306  0.0331 -0.1080
   92loPI   GL2 1462   7.621  16.320  10.849  0.0806  0.2197 -0.1359
   92loPI   C1A 1463   7.369  16.706  10.650 -0.0326  0.1325 -0.0968
   92loPI   C2A 1464   7.347  16.723  10.261 -0.4376 -0.1192 -0.0742
   92loPI   C3A 1465   7.300  16.751   9.768  0.0600  0.1128  0.1307
   92loPI   C4A 1466   7.449  16.736   9.349 -0.2024  0.2248  0.2387
   92loPI   C5A 1467   7.387  16.595   8.932  0.0043  0.0556  0.1345
   92loPI   C6A 1468   7.387  16.845   8.419  0.3276 -0.2375 -0.0901
   92loPI   C1B 1469   7.584  16.241  10.453  0.0232 -0.0034  0.1586
   92loPI   C2B 1470   7.594  16.287  10.116  0.3094  0.0225 -0.2654
   92loPI   C3B 1471   7.567  16.315   9.599  0.0857 -0.0400 -0.3080
   92loPI   C4B 1472   7.625  16.271   9.126  0.2412 -0.0516 -0.0356
   93loPI    C1 1473  12.394  15.935  11.568 -0.1131 -0.2176 -0.1643
   93loPI    C2 1474  12.092  15.773  11.775  0.0121 -0.0603  0.1482
   93loPI    C3 1475  12.452  15.814  11.944  0.1059  0.1139 -0.0876
   93loPI   PO4 1476  12.181  16.184  11.496  0.2329 -0.1005  0.0852
   93loPI   GL1 1477  12.268  16.405  11.102 -0.1707  0.0673  0.0420
   93loPI   GL2 1478  12.036  16.575  11.245 -0.1220 -0.2067  0.1506
   93loPI   C1A 1479  12.263  16.320  10.642  0.0617  0.1152 -0.1061
   93loPI   C2A 1480  12.184  16.356  10.214 -0.1776 -0.0209 -0.0366
   93loPI   C3A 1481  12.220  16.406   9.864 -0.0503  0.4752 -0.0932
   93loPI   C4A 1482  12.216  16.326   9.376 -0.1274 -0.0459 -0.0012
   93loPI   C5A 1483  12.096  16.539   9.115  0.2007 -0.0849  0.0004
   93loPI   C6A 1484  12.228  16.450   8.704 -0.1809  0.0951  0.0947
   93loPI   C1B 1485  11.973  16.784  10.829  0.0587 -0.0994 -0.0314
   93loPI   C2B 1486  11.952  16.807  10.418 -0.0247 -0.1561 -0.2056
   93loPI   C3B 1487  11.921  16.885   9.887 -0.1386  0.1755  0.0584
   93loPI   C4B 1488  11.797  16.750   9.470 -0.3504 -0.0525  0.0989
   94loPI    C1 1489   8.900  10.015  11.597 -0.2066  0.0032  0.1046
   94loPI    C2 1490   8.699   9.816  11.879 -0.0494 -0.2455  0.0444
   94loPI    C3 1491   9.009  10.047  11.981 -0.0610 -0.2484  0.0869
   94loPI   PO4 1492   8.757   9.957  11.383  0.1230  0.1338  0.0589
   94loPI   GL1 1493   8.529   9.744  11.025  0.4369 -0.0886  0.0634
   94loPI   GL2 1494   8.557   9.477  10.910 -0.2785  0.2564 -0.1304
   94loPI   C1A 1495   8.364   9.868  10.566 -0.0963  0.0010  0.0521
   94loPI   C2A 1496   8.269   9.881  10.119  0.0798 -0.0515  0.1130
   94loPI   C3A 1497   8.380   9.782   9.704  0.1824  0.0485 -0.0862
   94loPI   C4A 1498   8.292   9.769   9.335 -0.0880  0.1530 -0.0162
   94loPI   C5A 1499   8.199   9.819   8.921  0.0297  0.1495  0.1647
   94loPI   C6A 1500   8.167   9.518   8.598 -0.2024 -0.3133 -0.0828
   94loPI   C1B 1501   8.337   9.275  10.578 -0.0914  0.2420 -0.1191
   94loPI   C2B 1502   8.360   9.264  10.072  0.0064  0.1287  0.1004
   94loPI   C3B 1503   8.319   9.314   9.673 -0.0589 -0.1902 -0.0570
   94loPI   C4B 1504   8.336   9.303   9.177 -0.1611  0.3527  0.3295
   95loPI    C1 1505   8.773   3.063  11.551  0.2346  0.1318 -0.0454
   95loPI    C2 1506   9.039   2.865  11.775  0.0118 -0.2087 -0.0740
   95loPI    C3 1507   8.683   2.965  11.928  0.0202 -0.0676 -0.1452
   95loPI   PO4 1508   8.695   2.973  11.315  0.1026  0.1232 -0.1679
   95loPI   GL1 1509   8.822   3.085  10.994  0.0065 -0.1517 -0.0359
   95loPI   GL2 1510   8.864   2.777  10.907  0.1759  0.1473  0.0391
   95loPI   C1A 1511   8.919   3.197  10.567 -0.2504  0.0906  0.0005
   95loPI   C2A 1512   9.022   3.148  10.058  0.1249  0.2340 -0.2243
   95loPI   C3A 1513   9.023   3.212   9.707 -0.1693  0.1456  0.1520
   95loPI   C4A 1514   8.963   3.086   9.215 -0.2379  0.2051  0.2827
   95loPI   C5A 1515   8.931   2.762   8.790 -0.0350  0.2831  0.0124
   95loPI   C6A 1516   9.034   2.786   8.302  0.2103 -0.4403 -0.1118
   95loPI   C1B 1517   8.774   2.736  10.490 -0.1775  0.4579  0.3315
   95loPI   C2B 1518   8.786   2.607  10.076 -0.0408  0.0993 -0.2679
   95loPI   C3B 1519   8.776   2.791   9.643 -0.2247  0.2344 -0.2418
   95loPI   C4B 1520   8.816   2.566   9.185 -0.0414  0.1652 -0.2443
   96loPI    C1 1521   8.655  17.626  11.569 -0.1811 -0.0446  0.0651
   96loPI    C2 1522   8.772  17.294  11.759  0.0874  0.0392  0.0495
   96loPI    C3 1523   8.744  17.639  11.959 -0.2099  0.0058  0.0701
   96loPI   PO4 1524   8.724  17.576  11.295 -0.2440 -0.1792 -0.2890
   96loPI   GL1 1525   8.570  17.409  10.949 -0.0883 -0.1963  0.2905
   96loPI   GL2 1526   8.567  17.193  10.823 -0.1571 -0.0737 -0.1900
   96loPI   C1A 1527   8.722  17.667  10.623  0.1469  0.2386  0.0720
   96loPI   C2A 1528   8.858  17.600  10.250  0.0418  0.2242  0.2228
   96loPI   C3A 1529   8.872  17.666   9.764  0.3237 -0.0280  0.2379
   96loPI   C4A 1530   8.877  17.571   9.354  0.1060 -0.2556  0.0748
   96loPI   C5A 1531   9.039  17.593   8.973  0.2371  0.0019 -0.0963
   96loPI   C6A 1532   9.025  17.627   8.542 -0.1399 -0.1231 -0.3168
   96loPI   C1B 1533   8.593  17.209  10.451  0.3846 -0.0974 -0.0331
   96loPI   C2B 1534   8.646  17.201  10.048 -0.0881  0.1911  0.2272
   96loPI   C3B 1535   8.666  17.173   9.600  0.1654 -0.1145 -0.2232
   96loPI   C4B 1536   8.737  17.143   9.102  0.2787  0.0911  0.0945
   97loPI    C1 1537   1.095  12.083  11.444  0.1513  0.0719 -0.0853
   97loPI    C2 1538   0.823  11.806  11.536  0.1074  0.1691  0.0824
   97loPI    C3 1539   0.935  12.074  11.810  0.1753  0.2956 -0.0678
   97loPI   PO4 1540   0.974  12.151  11.200 -0.2531  0.0028  0.1226
   97loPI   GL1 1541   1.162  12.210  10.902  0.0800 -0.1722 -0.2383
   97loPI   GL2 1542   1.393  11.994  10.792  0.2459 -0.1324  0.3333
   97loPI   C1A 1543   0.964  12.377  10.474  0.0535  0.1437  0.0102
   97loPI   C2A 1544   0.873  12.413  10.075  0.1049  0.2087 -0.1250
   97loPI   C3A 1545   0.832  12.375   9.668 -0.1620 -0.2002 -0.3136
   97loPI   C4A 1546   0.876  12.483   9.232  0.0372  0.4864 -0.1669
   97loPI   C5A 1547   0.942  12.395   8.828 -0.1183  0.1377 -0.2524
   97loPI   C6A 1548   1.148  12.239   8.408  0.0336 -0.1831 -0.0988
   97loPI   C1B 1549   1.412  12.116  10.396  0.3624  0.1616 -0.0209
   97loPI   C2B 1550   1.252  12.097   9.930  0.3163  0.3277 -0.1062
   97loPI   C3B 1551   1.320  12.242   9.417 -0.0234  0.3994  0.2754
   97loPI   C4B 1552   1.381  12.251   8.969 -0.0401 -0.1717  0.0827
   98loPI    C1 1553   7.750   1.028  11.458 -0.0717  0.1376 -0.0555
   98loPI    C2 1554   7.359   0.982  11.389 -0.0297 -0.1561 -0.1108
   98loPI    C3 1555   7.582   0.666  11.492  0.1947  0.0084 -0.0859
   98loPI   PO4 1556   7.855   1.136  11.304  0.1522  0.5233 -0.3830
   98loPI   GL1 1557   7.731   0.942  10.956  0.1032  0.3574 -0.2073
   98loPI   GL2 1558   7.553   1.208  10.931  0.2643  0.0292  0.1207
   98loPI   C1A 1559   7.833   0.883  10.600  0.1403  0.0677  0.1060
   98loPI   C2A 1560   7.795   0.792  10.159  0.0964  0.0623  0.0266
   98loPI   C3A 1561   7.862   0.881   9.600 -0.0283  0.5351  0.0212
   98loPI   C4A 1562   7.892   0.789   9.169  0.1986 -0.0424 -0.1651
   98loPI   C5A 1563   8.045   0.527   8.796  0.2172 -0.1386  0.2605
   98loPI   C6A 1564   7.945   0.418   8.408 -0.1820  0.4177  0.0159
   98loPI   C1B 1565   7.528   1.288  10.486 -0.0306  0.4542 -0.0168
   98loPI   C2B 1566   7.501   1.222  10.053 -0.1651 -0.1971 -0.3321
   98loPI   C3B 1567   7.618   1.303   9.555  0.0380  0.0885 -0.1213
   98loPI   C4B 1568   7.773   1.780   9.376 -0.0361  0.2158 -0.3197
   99loPI    C1 1569   3.204   1.951  11.705 -0.0637 -0.0766 -0.0883
   99loPI    C2 1570   3.011   2.175  11.975 -0.0286 -0.0544 -0.0816
   99loPI    C3 1571   2.855   1.827  11.855  0.0273 -0.1353  0.0782
   99loPI   PO4 1572   3.196   2.203  11.504  0.0204  0.2979 -0.1100
   99loPI   GL1 1573   3.144   2.114  11.024 -0.1796 -0.2344 -0.2706
   99loPI   GL2 1574   3.093   2.420  10.902 -0.1636  0.2069 -0.2221
   99loPI   C1A 1575   3.401   2.127  10.662  0.0601  0.1952  0.1286
   99loPI   C2A 1576   3.389   2.083  10.235 -0.0856 -0.0275  0.0521
   99loPI   C3A 1577   3.466   2.022   9.755  0.0711 -0.1133 -0.0943
   99loPI   C4A 1578   3.428   1.918   9.311  0.2147 -0.1024 -0.1644
   99loPI   C5A 1579   3.262   1.954   8.836  0.2824  0.3210 -0.0414
   99loPI   C6A 1580   3.186   1.890   8.461 -0.0753 -0.0153 -0.0335
   99loPI   C1B 1581   3.047   2.476  10.455  0.4066  0.2619  0.1788
   99loPI   C2B 1582   3.181   2.488  10.044 -0.0120  0.2459 -0.0745
   99loPI   C3B 1583   3.136   2.492   9.602  0.1873 -0.1463 -0.1272
   99loPI   C4B 1584   3.216   2.402   9.192 -0.0048  0.0482 -0.1087
  100loPI    C1 1585   4.165   1.016  11.702 -0.0050  0.0456  0.1739
  100loPI    C2 1586   4.255   0.644  11.818 -0.2275 -0.1199 -0.1674
  100loPI    C3 1587   4.388   0.957  12.029  0.3825 -0.3740 -0.1544
  100loPI   PO4 1588   4.123   1.042  11.461  0.1822 -0.2905 -0.0519
  100loPI   GL1 1589   4.228   0.923  11.076  0.0299  0.3960 -0.2325
  100loPI   GL2 1590   4.503   1.150  11.015 -0.1592 -0.3442  0.0354
  100loPI   C1A 1591   4.142   0.686  10.756 -0.1599 -0.0316  0.0301
  100loPI   C2A 1592   4.176   0.716  10.300  0.0433 -0.0959  0.1312
  100loPI   C3A 1593   4.231   0.679   9.844 -0.0382  0.1539  0.0394
  100loPI   C4A 1594   4.211   0.660   9.321  0.1371 -0.0517  0.0065
  100loPI   C5A 1595   4.293   0.706   8.883  0.0140  0.0294  0.2556
  100loPI   C6A 1596   4.245   0.743   8.509  0.0540 -0.1955 -0.0369
  100loPI   C1B 1597   4.414   1.203  10.563 -0.0945  0.2322  0.1939
  100loPI   C2B 1598   4.431   1.222  10.175 -0.0138 -0.3825  0.0470
  100loPI   C3B 1599   4.408   1.164   9.695  0.0966 -0.2380  0.1478
  100loPI   C4B 1600   4.451   1.093   9.259 -0.0757 -0.0720  0.2329
  101loPI    C1 1601  10.043   0.989  11.495  0.1135  0.2244  0.1632
  101loPI    C2 1602  10.070   0.682  11.749  0.1680  0.0307 -0.0730
  101loPI    C3 1603   9.789   0.962  11.803  0.0927 -0.0802  0.1219
  101loPI   PO4 1604  10.114   0.930  11.306  0.2186 -0.2413  0.1721
  101loPI   GL1 1605   9.890   0.930  10.923  0.0714 -0.0598  0.1157
  101loPI   GL2 1606  10.108   0.625  10.827  0.0480  0.0073 -0.2299
  101loPI   C1A 1607   9.875   0.926  10.532  0.0267 -0.0872 -0.0064
  101loPI   C2A 1608   9.850   0.900  10.157  0.0223 -0.0930  0.1994
  101loPI   C3A 1609   9.813   1.045   9.668  0.0420 -0.0397  0.1100
  101loPI   C4A 1610   9.823   0.928   9.185 -0.1958  0.3794 -0.4005
  101loPI   C5A 1611   9.994   0.932   8.817  0.1578 -0.0791 -0.1976
  101loPI   C6A 1612  10.064   0.545   8.577 -0.4084  0.2974 -0.0256
  101loPI   C1B 1613  10.172   0.480  10.358  0.0284  0.0181  0.5016
  101loPI   C2B 1614  10.087   0.518   9.883 -0.0366 -0.1442 -0.0316
  101loPI   C3B 1615  10.057   0.481   9.448  0.1501  0.0172  0.0514
  101loPI   C4B 1616  10.170   0.513   9.072  0.0241  0.2732  0.3861
  102loPI    C1 1617   8.353  17.109  11.560  0.0992 -0.1810 -0.0334
  102loPI    C2 1618   8.062  17.107  11.834 -0.0341 -0.0239 -0.1716
  102loPI    C3 1619   8.271  16.773  11.760  0.0131 -0.0636  0.1300
  102loPI   PO4 1620   8.234  17.241  11.337 -0.2037 -0.1420 -0.1079
  102loPI   GL1 1621   8.066  17.179  10.927  0.2735 -0.1987  0.2065
  102loPI   GL2 1622   7.661  17.046  10.887  0.3161 -0.1720  0.0834
  102loPI   C1A 1623   8.022  17.231  10.558 -0.2064 -0.0485  0.1764
  102loPI   C2A 1624   8.142  17.250  10.112 -0.0820  0.0331 -0.0379
  102loPI   C3A 1625   8.139  17.187   9.673 -0.1282  0.1853  0.1692
  102loPI   C4A 1626   8.169  17.148   9.263 -0.0802 -0.1850  0.2269
  102loPI   C5A 1627   8.133  17.200   8.802  0.1119 -0.1068  0.0194
  102loPI   C6A 1628   8.190  17.186   8.391 -0.0450 -0.0507  0.0222
  102loPI   C1B 1629   7.542  17.161  10.473  0.0698 -0.0986  0.1730
  102loPI   C2B 1630   7.536  17.214  10.069  0.0712  0.0564 -0.2698
  102loPI   C3B 1631   7.566  17.154   9.637 -0.2326  0.2975  0.1241
  102loPI   C4B 1632   7.651  17.164   9.211  0.0736  0.2194 -0.0640
  103loPI    C1 1633   6.722  10.089  11.496  0.0587 -0.0193  0.0798
  103loPI    C2 1634   6.526   9.959  11.820  0.1180  0.0225  0.1328
  103loPI    C3 1635   6.853  10.186  11.862 -0.0133  0.2306  0.0413
  103loPI   PO4 1636   6.791   9.957  11.399 -0.2658 -0.1986  0.1694
  103loPI   GL1 1637   6.857   9.858  10.980  0.1674  0.3416  0.0764
  103loPI   GL2 1638   6.559   9.718  11.042 -0.1482  0.0927  0.1483
  103loPI   C1A 1639   6.929   9.939  10.537  0.1265  0.2832 -0.2302
  103loPI   C2A 1640   6.965   9.939  10.038 -0.1458 -0.2380 -0.2072
  103loPI   C3A 1641   6.907   9.981   9.569 -0.1652  0.0608 -0.1513
  103loPI   C4A 1642   6.888   9.970   9.183 -0.1047  0.1158 -0.0446
  103loPI   C5A 1643   6.870   9.983   8.691  0.3048  0.1642 -0.0805
  103loPI   C6A 1644   6.779   9.921   8.242  0.2591 -0.0225 -0.3308
  103loPI   C1B 1645   6.554   9.523  10.626  0.0206  0.0100 -0.0518
  103loPI   C2B 1646   6.562   9.639  10.207  0.0189  0.0758  0.4703
  103loPI   C3B 1647   6.526   9.675   9.781 -0.2561 -0.0945 -0.1743
  103loPI   C4B 1648   6.422   9.742   9.326 -0.0533 -0.0928  0.2259
  104loPI    C1 1649  13.883   9.443  11.284 -0.0925  0.1731 -0.1191
  104loPI    C2 1650  14.139   9.608  11.543 -0.1742  0.0837  0.0202
  104loPI    C3 1651  13.766   9.520  11.658 -0.1028 -0.2904 -0.0202
  104loPI   PO4 1652  13.988   9.536  11.002 -0.3010 -0.0966 -0.3544
  104loPI   GL1 1653  13.875   9.405  10.712 -0.1462  0.1501  0.0790
  104loPI   GL2 1654  13.771   9.135  10.537 -0.0458  0.3158 -0.1557
  104loPI   C1A 1655  13.642   9.625  10.436 -0.1656 -0.0082  0.1317
  104loPI   C2A 1656  13.756   9.634   9.964  0.0860 -0.1585  0.1929
  104loPI   C3A 1657  13.886   9.635   9.509  0.0589 -0.2006 -0.1872
  104loPI   C4A 1658  13.834   9.600   9.033  0.0261 -0.0052  0.1551
  104loPI   C5A 1659  13.728   9.618   8.567  0.1336 -0.0141  0.0829
  104loPI   C6A 1660  13.401   9.611   8.294  0.1836 -0.0195  0.1416
  104loPI   C1B 1661  13.793   9.154  10.142  0.2136 -0.2411 -0.1089
  104loPI   C2B 1662  13.765   9.145   9.704 -0.1131 -0.3816  0.0988
  104loPI   C3B 1663  13.838   9.074   9.334 -0.4120  0.1940  0.3362
  104loPI   C4B 1664  13.862   9.121   8.825  0.0219 -0.0376  0.0383
  105loPI    C1 1665  13.483  17.095  11.619 -0.1444  0.1289 -0.1151
  105loPI    C2 1666  13.550  17.265  11.975 -0.0169  0.1269 -0.1378
  105loPI    C3 1667  13.261  17.406  11.737 -0.0871  0.1429 -0.0434
  105loPI   PO4 1668  13.706  16.996  11.498 -0.0195  0.1937 -0.1527
  105loPI   GL1 1669  13.917  16.885  10.991  0.0113 -0.3158 -0.1179
  105loPI   GL2 1670  13.615  16.917  11.008  0.0224 -0.0017 -0.0735
  105loPI   C1A 1671  13.993  16.885  10.618  0.2037 -0.2192  0.1817
  105loPI   C2A 1672  13.954  16.850  10.241 -0.0897 -0.1156 -0.0752
  105loPI   C3A 1673  13.946  16.928   9.792 -0.0574  0.4541 -0.1213
  105loPI   C4A 1674  13.932  16.932   9.363 -0.1370  0.4029 -0.1413
  105loPI   C5A 1675  13.988  16.889   8.979  0.0260 -0.0359 -0.0215
  105loPI   C6A 1676  14.283  17.187   8.742  0.1629  0.0849 -0.2290
  105loPI   C1B 1677  13.468  16.859  10.545  0.0493 -0.0898 -0.0381
  105loPI   C2B 1678  13.448  16.890  10.036 -0.2764 -0.3077 -0.1068
  105loPI   C3B 1679  13.437  16.735   9.677  0.3550  0.1127  0.0607
  105loPI   C4B 1680  13.469  16.829   9.152 -0.1171  0.3335  0.1589
  106loPI    C1 1681   8.464   4.600  10.968  0.0358  0.0568  0.0730
  106loPI    C2 1682   8.357   4.969  10.857 -0.0833  0.0019  0.0023
  106loPI    C3 1683   8.411   4.884  11.244 -0.0146  0.1035  0.0157
  106loPI   PO4 1684   8.347   4.406  10.945 -0.1969  0.2187  0.0463
  106loPI   GL1 1685   8.195   4.275  10.566 -0.2241 -0.0469  0.0368
  106loPI   GL2 1686   7.974   4.056  10.570  0.1097 -0.2152 -0.0531
  106loPI   C1A 1687   8.258   4.487  10.291 -0.1196 -0.1558 -0.1907
  106loPI   C2A 1688   8.268   4.582   9.872  0.1483 -0.0331 -0.1285
  106loPI   C3A 1689   8.236   4.434   9.452  0.3621  0.0308 -0.0581
  106loPI   C4A 1690   8.203   4.333   8.991 -0.0522  0.1975  0.2448
  106loPI   C5A 1691   8.253   4.338   8.575 -0.1286 -0.0144  0.4590
  106loPI   C6A 1692   8.490   4.103   8.369 -0.0471 -0.0762  0.1396
  106loPI   C1B 1693   8.029   4.045  10.129 -0.0235  0.1080  0.0538
  106loPI   C2B 1694   7.940   3.988   9.710  0.0623  0.2600  0.1208
  106loPI   C3B 1695   8.003   3.936   9.305 -0.0531  0.0895 -0.1031
  106loPI   C4B 1696   8.018   3.892   8.754 -0.3511  0.0413 -0.2122
  107loPI    C1 1697  12.368   8.062  11.466  0.2396 -0.1209 -0.0750
  107loPI    C2 1698  12.041   7.870  11.595  0.0676  0.0665 -0.2244
  107loPI    C3 1699  12.209   8.155  11.821  0.2205 -0.1352 -0.0797
  107loPI   PO4 1700  12.359   8.110  11.246  0.0452 -0.1670 -0.2298
  107loPI   GL1 1701  12.390   7.951  10.843 -0.0846  0.3183  0.2570
  107loPI   GL2 1702  12.763   7.966  10.816 -0.2444 -0.0166 -0.1074
  107loPI   C1A 1703  12.417   8.226  10.443 -0.3957  0.0257 -0.2001
  107loPI   C2A 1704  12.447   8.274  10.044 -0.3099  0.3124 -0.1092
  107loPI   C3A 1705  12.537   8.168   9.589 -0.1259  0.0778 -0.2012
  107loPI   C4A 1706  12.445   8.248   9.212 -0.1043 -0.0987  0.1605
  107loPI   C5A 1707  12.560   8.391   8.794 -0.3336  0.0799 -0.3438
  107loPI   C6A 1708  12.600   8.725   8.457  0.0112 -0.1151 -0.3377
  107loPI   C1B 1709  12.946   8.136  10.437  0.1959 -0.3172 -0.2790
  107loPI   C2B 1710  12.979   8.023  10.019  0.0424  0.0125  0.1539
  107loPI   C3B 1711  12.987   7.988   9.560  0.2710 -0.0194  0.0293
  107loPI   C4B 1712  12.913   7.989   9.181 -0.2001  0.1858  0.1177
  108loPI    C1 1713  15.902   4.999  11.588  0.2376 -0.2170 -0.0180
  108loPI    C2 1714  16.103   5.151  11.899 -0.0677 -0.0268  0.0913
  108loPI    C3 1715  15.767   4.944  11.960 -0.0620 -0.0966 -0.1058
  108loPI   PO4 1716  16.099   4.873  11.424  0.0701 -0.1595  0.3497
  108loPI   GL1 1717  16.355   4.869  11.085 -0.5089 -0.0239 -0.2442
  108loPI   GL2 1718  16.461   5.271  11.150  0.1448 -0.2725 -0.2751
  108loPI   C1A 1719  16.395   4.576  10.741 -0.0518  0.1649 -0.0341
  108loPI   C2A 1720  16.372   4.615  10.320 -0.1418  0.0838  0.0035
  108loPI   C3A 1721  16.444   4.608   9.837 -0.0849 -0.0958 -0.1102
  108loPI   C4A 1722  16.306   4.534   9.426 -0.1775  0.2710  0.0858
  108loPI   C5A 1723  16.232   4.356   9.029  0.2559 -0.0467  0.2452
  108loPI   C6A 1724  16.360   4.235   8.729  0.0691  0.3028 -0.1136
  108loPI   C1B 1725  16.579   5.111  10.703  0.2342  0.0924  0.1295
  108loPI   C2B 1726  16.631   5.108  10.309  0.2686  0.1892  0.1508
  108loPI   C3B 1727  16.612   5.063   9.932 -0.0666 -0.3464 -0.1664
  108loPI   C4B 1728  16.619   4.966   9.584  0.0077  0.1481 -0.3694
  109loPI    C1 1729   0.128   5.342  11.495  0.2221  0.0288  0.0356
  109loPI    C2 1730   0.320   5.329  11.846  0.3185 -0.2023 -0.0239
  109loPI    C3 1731   0.013   5.082  11.777 -0.0727  0.2333  0.1084
  109loPI   PO4 1732   0.321   5.357  11.338  0.3103 -0.0978 -0.1463
  109loPI   GL1 1733   0.363   5.513  10.826  0.1000  0.0522  0.0787
  109loPI   GL2 1734   0.635   5.585  10.931  0.0226 -0.0569 -0.2893
  109loPI   C1A 1735   0.216   5.557  10.431  0.1382  0.0627  0.0864
  109loPI   C2A 1736   0.106   5.564   9.967 -0.0098  0.1398 -0.1024
  109loPI   C3A 1737   0.009   5.847   9.583  0.0750  0.1027 -0.0461
  109loPI   C4A 1738   0.040   6.053   9.212  0.0937 -0.0770  0.0058
  109loPI   C5A 1739   0.046   6.219   8.832 -0.2137  0.0871 -0.0913
  109loPI   C6A 1740  -0.075   6.530   8.655 -0.0416 -0.1439  0.0983
  109loPI   C1B 1741   0.738   5.628  10.469  0.1536 -0.0274  0.0729
  109loPI   C2B 1742   0.759   5.721  10.156 -0.4706 -0.3683 -0.1296
  109loPI   C3B 1743   0.838   5.817   9.682 -0.1384 -0.0750 -0.2570
  109loPI   C4B 1744   0.875   5.935   9.312 -0.0406 -0.1100 -0.0123
  110loPI    C1 1745   7.941   7.433  11.463  0.1577  0.0517  0.0240
  110loPI    C2 1746   7.813   7.238  11.788  0.2553 -0.0683 -0.0087
  110loPI    C3 1747   8.171   7.418  11.791  0.2960 -0.1473 -0.0798
  110loPI   PO4 1748   7.906   7.217  11.196 -0.1162 -0.0463 -0.0250
  110loPI   GL1 1749   7.664   6.948  10.962  0.1175 -0.0510 -0.1125
  110loPI   GL2 1750   7.614   6.617  10.946 -0.4971 -0.0205  0.0307
  110loPI   C1A 1751   7.655   7.209  10.539  0.0140 -0.2885 -0.1944
  110loPI   C2A 1752   7.566   7.283  10.152 -0.0292  0.0584 -0.1022
  110loPI   C3A 1753   7.506   7.170   9.779  0.1654  0.0649  0.2108
  110loPI   C4A 1754   7.471   7.181   9.306 -0.3830  0.1610 -0.0928
  110loPI   C5A 1755   7.334   6.791   9.042 -0.0124 -0.0940 -0.1688
  110loPI   C6A 1756   7.068   6.510   8.807  0.0141 -0.2422  0.1887
  110loPI   C1B 1757   7.745   6.736  10.501  0.2348  0.0065  0.0056
  110loPI   C2B 1758   7.755   6.647  10.098  0.1083 -0.1007  0.2199
  110loPI   C3B 1759   7.520   6.445   9.861  0.1869 -0.0506 -0.2678
  110loPI   C4B 1760   7.527   6.681   9.519 -0.1671 -0.0766 -0.2041
  111loPI    C1 1761  13.456  14.743  11.403 -0.0187 -0.0530 -0.0516
  111loPI    C2 1762  13.333  14.852  11.768  0.1603 -0.0206 -0.0001
  111loPI    C3 1763  13.689  14.676  11.721  0.2272  0.1601 -0.1830
  111loPI   PO4 1764  13.320  14.929  11.244 -0.0862 -0.1217  0.1851
  111loPI   GL1 1765  13.113  15.005  10.870  0.2071 -0.2873  0.0182
  111loPI   GL2 1766  12.844  14.831  10.913 -0.1890 -0.1992  0.0184
  111loPI   C1A 1767  13.001  15.094  10.483 -0.0679 -0.3165  0.1661
  111loPI   C2A 1768  13.077  15.085  10.060 -0.0673 -0.0275 -0.2929
  111loPI   C3A 1769  13.060  15.032   9.601 -0.0613  0.0037  0.1561
  111loPI   C4A 1770  13.064  15.135   9.147 -0.2870 -0.0715  0.3551
  111loPI   C5A 1771  12.938  15.141   8.691 -0.0559 -0.1929 -0.2313
  111loPI   C6A 1772  12.795  15.215   8.226 -0.2303 -0.1445  0.0881
  111loPI   C1B 1773  12.835  14.629  10.541  0.2452  0.0475  0.1096
  111loPI   C2B 1774  12.817  14.626  10.123  0.1474  0.2317  0.0369
  111loPI   C3B 1775  12.913  14.554   9.709 -0.0173  0.1316 -0.2250
  111loPI   C4B 1776  12.844  14.611   9.308 -0.1954  0.1748 -0.0332
  112loPI    C1 1777   3.541  10.404  11.397  0.0258  0.2002 -0.0827
  112loPI    C2 1778   3.372  10.483  11.750 -0.1478  0.3422 -0.1959
  112loPI    C3 1779   3.211  10.208  11.508  0.2511 -0.1176  0.0426
  112loPI   PO4 1780   3.678  10.676  11.415  0.0095 -0.1393  0.0548
  112loPI   GL1 1781   3.675  10.669  10.936 -0.1300  0.2548 -0.0280
  112loPI   GL2 1782   3.807  10.900  10.788 -0.1992 -0.0911  0.0288
  112loPI   C1A 1783   3.769  10.524  10.454  0.0789  0.0352 -0.1040
  112loPI   C2A 1784   3.714  10.461  10.069  0.0415 -0.0108 -0.1933
  112loPI   C3A 1785   3.691  10.538   9.690  0.0835 -0.2651 -0.0401
  112loPI   C4A 1786   3.665  10.598   9.257 -0.0435 -0.0090 -0.1089
  112loPI   C5A 1787   3.842  10.670   8.768 -0.0290 -0.5241 -0.1994
  112loPI   C6A 1788   3.846  11.027   8.500 -0.0084  0.0668  0.0653
  112loPI   C1B 1789   3.734  11.127  10.387  0.1192 -0.0410  0.1819
  112loPI   C2B 1790   3.695  11.009   9.972 -0.0573  0.3322  0.0407
  112loPI   C3B 1791   3.611  11.034   9.520  0.1827  0.1054  0.3080
  112loPI   C4B 1792   3.667  11.103   9.093 -0.0469  0.3087  0.2763
  113loPI    C1 1793   2.598  12.380  11.621  0.1315  0.0953 -0.1737
  113loPI    C2 1794   2.603  12.727  11.421 -0.2012  0.2211  0.0280
  113loPI    C3 1795   2.580  12.727  11.821 -0.0781 -0.0340  0.0369
  113loPI   PO4 1796   2.822  12.225  11.424 -0.3363 -0.3099 -0.3787
  113loPI   GL1 1797   2.829  12.270  11.000 -0.0132  0.0570  0.0384
  113loPI   GL2 1798   2.623  12.535  10.891  0.0159 -0.2578  0.0341
  113loPI   C1A 1799   3.100  12.298  10.656  0.0740 -0.3919  0.1259
  113loPI   C2A 1800   3.040  12.303  10.206  0.1559 -0.1238 -0.1850
  113loPI   C3A 1801   3.118  12.354   9.774 -0.0356 -0.0046 -0.0721
  113loPI   C4A 1802   3.073  12.299   9.390  0.0756 -0.1481  0.4094
  113loPI   C5A 1803   3.018  12.371   9.032 -0.1141  0.1916 -0.0442
  113loPI   C6A 1804   3.194  12.541   8.699  0.0464  0.1399 -0.2553
  113loPI   C1B 1805   2.613  12.478  10.503  0.1106  0.0328  0.2759
  113loPI   C2B 1806   2.623  12.451  10.045  0.0819 -0.1442  0.2724
  113loPI   C3B 1807   2.647  12.513   9.587  0.3042  0.1634  0.0336
  113loPI   C4B 1808   2.559  12.526   9.066 -0.0589  0.0030  0.1819
  114loPI    C1 1809   6.687   5.961  11.621  0.2375  0.2157 -0.0219
  114loPI    C2 1810   6.920   5.643  11.553  0.2070  0.1733  0.0693
  114loPI    C3 1811   6.855   5.766  11.928 -0.0686  0.0707  0.0569
  114loPI   PO4 1812   6.620   6.033  11.321 -0.2233  0.4150  0.1452
  114loPI   GL1 1813   6.777   5.957  10.868  0.1989 -0.1298 -0.0880
  114loPI   GL2 1814   6.470   5.853  10.830  0.1039  0.2591  0.1369
  114loPI   C1A 1815   6.774   6.093  10.536  0.2345  0.0097 -0.0200
  114loPI   C2A 1816   6.812   5.939  10.078  0.1982  0.2075 -0.0365
  114loPI   C3A 1817   6.794   5.762   9.781 -0.0351  0.2777 -0.1445
  114loPI   C4A 1818   6.854   5.842   9.303  0.0893  0.0596  0.3801
  114loPI   C5A 1819   7.183   5.785   8.962 -0.2620  0.3067 -0.1604
  114loPI   C6A 1820   7.169   5.545   8.573 -0.1267  0.2275 -0.3251
  114loPI   C1B 1821   6.355   5.769  10.359  0.0103 -0.1883 -0.0557
  114loPI   C2B 1822   6.308   5.746   9.871  0.0625  0.1858  0.2119
  114loPI   C3B 1823   6.361   5.700   9.438  0.0181  0.3195  0.0012
  114loPI   C4B 1824   6.279   5.864   9.001  0.0208  0.0027 -0.1091
  115loPI    C1 1825  10.150   6.106  11.179 -0.2877 -0.0640 -0.0163
  115loPI    C2 1826  10.367   5.931  11.466 -0.1352  0.1208 -0.0164
  115loPI    C3 1827  10.071   6.182  11.564 -0.1656  0.0865 -0.0199
  115loPI   PO4 1828  10.305   6.050  11.021  0.1487  0.0722  0.0674
  115loPI   GL1 1829  10.303   5.784  10.799  0.0057  0.3182  0.0057
  115loPI   GL2 1830  10.197   5.419  10.847 -0.0987 -0.0430  0.1153
  115loPI   C1A 1831  10.407   5.767  10.419 -0.1244 -0.1484  0.1970
  115loPI   C2A 1832  10.330   5.545  10.038  0.1405 -0.1353  0.2812
  115loPI   C3A 1833  10.226   5.493   9.586 -0.0822 -0.1384  0.2221
  115loPI   C4A 1834  10.227   5.492   9.181  0.2421  0.2374 -0.2033
  115loPI   C5A 1835  10.304   5.199   8.850  0.1452  0.1295 -0.0357
  115loPI   C6A 1836  10.543   4.954   8.549  0.1822 -0.0148 -0.0685
  115loPI   C1B 1837   9.997   5.561  10.384 -0.1266  0.1316 -0.0308
  115loPI   C2B 1838   9.745   5.423  10.112 -0.1229 -0.2313 -0.1619
  115loPI   C3B 1839   9.686   5.509   9.616 -0.1867  0.0657 -0.0577
  115loPI   C4B 1840   9.545   5.674   9.181 -0.1401 -0.1193 -0.0601
  116loPI    C1 1841  10.901   6.886  10.940  0.0072 -0.0943  0.0363
  116loPI    C2 1842  10.704   6.846  11.286 -0.2447  0.1800 -0.0714
  116loPI    C3 1843  11.036   7.068  11.269 -0.1272  0.0141  0.0324
  116loPI   PO4 1844  10.746   6.904  10.798  0.1193  0.1850  0.4810
  116loPI   GL1 1845  10.745   6.807  10.392 -0.1385 -0.1240 -0.1038
  116loPI   GL2 1846  10.770   6.445  10.360  0.1710 -0.1539  0.1392
  116loPI   C1A 1847  10.812   6.935   9.987  0.0023 -0.1130  0.2266
  116loPI   C2A 1848  10.806   6.977   9.574 -0.3904  0.0550  0.0357
  116loPI   C3A 1849  10.725   7.072   9.156  0.1872 -0.0635  0.2554
  116loPI   C4A 1850  10.268   7.326   9.104 -0.0843 -0.1088  0.1734
  116loPI   C5A 1851  10.122   7.441   8.762 -0.0886  0.1809 -0.2818
  116loPI   C6A 1852  10.157   7.484   8.359 -0.1271  0.0906 -0.0840
  116loPI   C1B 1853  10.889   6.409   9.965  0.0960 -0.0402 -0.2073
  116loPI   C2B 1854  10.737   6.437   9.548 -0.0760  0.1868  0.2035
  116loPI   C3B 1855  10.822   6.527   9.165  0.1311 -0.1872  0.3288
  116loPI   C4B 1856  10.871   6.634   8.805  0.1070 -0.1511 -0.2727
  117loPI    C1 1857  11.540   4.396  11.496  0.0490  0.0943 -0.0599
  117loPI    C2 1858  11.727   4.121  11.718  0.1715  0.1642 -0.0758
  117loPI    C3 1859  11.509   4.407  11.894 -0.3146 -0.1947 -0.0741
  117loPI   PO4 1860  11.535   4.296  11.267 -0.0270 -0.0826  0.0238
  117loPI   GL1 1861  11.708   4.479  10.955  0.1203 -0.0804 -0.0821
  117loPI   GL2 1862  11.859   4.233  10.872  0.0356 -0.3033  0.0934
  117loPI   C1A 1863  11.750   4.680  10.551  0.0557 -0.0669 -0.1085
  117loPI   C2A 1864  11.861   4.552  10.235  0.0230  0.1028  0.3924
  117loPI   C3A 1865  11.763   4.607   9.820 -0.2407  0.0960 -0.0251
  117loPI   C4A 1866  11.798   4.571   9.420  0.1175  0.1635  0.0453
  117loPI   C5A 1867  11.791   4.562   9.071  0.1303 -0.1301  0.1307
  117loPI   C6A 1868  11.987   4.725   8.750 -0.0414  0.3933 -0.1498
  117loPI   C1B 1869  11.982   4.119  10.422 -0.1280 -0.0554  0.1316
  117loPI   C2B 1870  12.106   4.097   9.933 -0.4143  0.0280 -0.3970
  117loPI   C3B 1871  12.076   4.172   9.515 -0.0239 -0.0429  0.0919
  117loPI   C4B 1872  12.012   3.987   9.082 -0.0148  0.0458  0.2286
  118loPI    C1 1873  16.310   2.279  11.641  0.0845  0.1109  0.0189
  118loPI    C2 1874  16.056   1.982  11.725  0.1983 -0.0634 -0.2418
  118loPI    C3 1875  16.277   2.144  12.016  0.0583 -0.1612 -0.0794
  118loPI   PO4 1876  16.466   2.276  11.444 -0.4056 -0.1587 -0.1865
  118loPI   GL1 1877  16.854   2.238  11.212  0.3515  0.4870 -0.1738
  118loPI   GL2 1878  16.608   2.051  11.054 -0.0181  0.1413  0.2537
  118loPI   C1A 1879  16.728   2.445  10.835 -0.1785  0.2196  0.0141
  118loPI   C2A 1880  16.673   2.417  10.420  0.2105 -0.2860  0.2077
  118loPI   C3A 1881  16.645   2.309   9.979  0.3515 -0.2014 -0.3058
  118loPI   C4A 1882  16.604   2.388   9.570 -0.3873  0.0750 -0.1287
  118loPI   C5A 1883  16.707   2.323   9.127  0.0568  0.0017 -0.1183
  118loPI   C6A 1884  16.382   2.142   8.925 -0.1377  0.1560  0.1411
  118loPI   C1B 1885  16.451   2.007  10.677 -0.1044  0.2902 -0.4419
  118loPI   C2B 1886  16.428   1.901  10.195 -0.1398  0.3546  0.0999
  118loPI   C3B 1887  16.482   1.836   9.781  0.2588  0.2138 -0.3340
  118loPI   C4B 1888  16.430   1.909   9.438 -0.0025  0.1033 -0.2754
  119loPI    C1 1889   8.473  10.878  11.850 -0.3119  0.1065 -0.0073
  119loPI    C2 1890   8.795  11.048  12.015 -0.0778 -0.1292 -0.2115
  119loPI    C3 1891   8.669  10.692  12.145 -0.2227 -0.0646 -0.1723
  119loPI   PO4 1892   8.583  10.864  11.534 -0.1949 -0.0323 -0.2475
  119loPI   GL1 1893   8.391  10.874  11.190  0.0017 -0.2582  0.2871
  119loPI   GL2 1894   8.635  10.785  10.997  0.0038 -0.0485  0.0970
  119loPI   C1A 1895   8.260  10.829  10.660 -0.2311 -0.2058 -0.0667
  119loPI   C2A 1896   8.252  10.811  10.154  0.2350 -0.2169 -0.0539
  119loPI   C3A 1897   8.172  10.838   9.745  0.1122  0.2047  0.1926
  119loPI   C4A 1898   8.244  10.819   9.266 -0.1218  0.0664 -0.0921
  119loPI   C5A 1899   8.159  10.970   8.927  0.1081 -0.0926 -0.1320
  119loPI   C6A 1900   8.221  11.150   8.519 -0.1484 -0.2934 -0.1029
  119loPI   C1B 1901   8.701  10.683  10.503 -0.0046  0.3021 -0.0159
  119loPI   C2B 1902   8.657  10.581  10.075 -0.0401 -0.0431 -0.1184
  119loPI   C3B 1903   8.627  10.568   9.746 -0.2322 -0.0170  0.0812
  119loPI   C4B 1904   8.687  10.555   9.341 -0.1173  0.0337  0.1008
  120loPI    C1 1905  14.982   2.554  11.837 -0.1546 -0.2731 -0.1105
  120loPI    C2 1906  14.652   2.563  12.064 -0.1916  0.1020 -0.1726
  120loPI    C3 1907  14.947   2.826  12.128  0.0459 -0.1531 -0.1964
  120loPI   PO4 1908  14.889   2.532  11.626  0.0048  0.1579  0.3239
  120loPI   GL1 1909  14.774   2.633  11.231 -0.0737 -0.1560 -0.0129
  120loPI   GL2 1910  14.797   2.940  11.160 -0.1502  0.1247 -0.2251
  120loPI   C1A 1911  14.733   2.344  10.904 -0.1272 -0.0347 -0.6030
  120loPI   C2A 1912  14.641   2.373  10.524  0.0585  0.1469 -0.1406
  120loPI   C3A 1913  14.731   2.322  10.079 -0.1319  0.1982 -0.0831
  120loPI   C4A 1914  14.654   2.319   9.648  0.0772 -0.2795  0.0103
  120loPI   C5A 1915  14.696   2.241   9.249 -0.1046  0.2494 -0.2304
  120loPI   C6A 1916  14.841   2.155   8.948 -0.0361  0.1424 -0.0192
  120loPI   C1B 1917  14.905   2.768  10.669 -0.1814 -0.2777  0.0084
  120loPI   C2B 1918  14.913   2.784  10.153  0.0964  0.0149  0.0603
  120loPI   C3B 1919  14.921   2.830   9.783 -0.0475 -0.2016  0.1020
  120loPI   C4B 1920  14.919   2.744   9.299  0.0448 -0.0253  0.0592
  121loPI    C1 1921  15.879   3.622  11.634 -0.2405 -0.0916  0.0181
  121loPI    C2 1922  15.794   3.582  12.023  0.1137  0.2249  0.1350
  121loPI    C3 1923  15.737   3.934  11.841  0.2661  0.1728 -0.0163
  121loPI   PO4 1924  15.799   3.537  11.467  0.0379 -0.4115  0.1746
  121loPI   GL1 1925  15.473   3.596  11.149 -0.1990  0.0050  0.0105
  121loPI   GL2 1926  15.274   3.806  11.057  0.0024 -0.1307 -0.0740
  121loPI   C1A 1927  15.572   3.329  10.805 -0.4212  0.0035 -0.1298
  121loPI   C2A 1928  15.726   3.164  10.354 -0.2088 -0.4261 -0.1523
  121loPI   C3A 1929  15.679   3.241   9.980  0.1797  0.0718  0.1264
  121loPI   C4A 1930  15.657   3.211   9.538  0.0627 -0.0846  0.1927
  121loPI   C5A 1931  15.542   3.126   9.130  0.2019 -0.0710  0.0311
  121loPI   C6A 1932  15.173   3.051   8.951  0.0595 -0.0224  0.0933
  121loPI   C1B 1933  15.334   3.740  10.693 -0.1483 -0.1929  0.1693
  121loPI   C2B 1934  15.352   3.711  10.299 -0.5019  0.0005 -0.0538
  121loPI   C3B 1935  15.429   3.691   9.942  0.3100  0.1891  0.0046
  121loPI   C4B 1936  15.431   3.633   9.485  0.0187  0.0423 -0.0421
  122loPI    C1 1937  17.281   8.328  11.569 -0.0037 -0.0024 -0.0602
  122loPI    C2 1938  16.940   8.524  11.643 -0.0288 -0.0453 -0.0613
  122loPI    C3 1939  17.152   8.370  11.945  0.0818  0.1351 -0.0459
  122loPI   PO4 1940  17.219   8.203  11.335  0.0036  0.1037 -0.1934
  122loPI   GL1 1941  17.263   8.374  10.867  0.0564 -0.2860  0.0076
  122loPI   GL2 1942  17.571   8.412  10.749 -0.1468 -0.1140  0.0910
  122loPI   C1A 1943  17.130   8.551  10.464 -0.5753 -0.1406 -0.0287
  122loPI   C2A 1944  17.140   8.646  10.075  0.2696 -0.2355 -0.0515
  122loPI   C3A 1945  17.066   8.587   9.713 -0.3739 -0.3237 -0.2838
  122loPI   C4A 1946  17.003   8.557   9.263  0.0457 -0.2958  0.1828
  122loPI   C5A 1947  17.041   8.592   8.820 -0.1168  0.1800  0.1439
  122loPI   C6A 1948  17.328   8.712   8.454  0.0146  0.2108 -0.2775
  122loPI   C1B 1949  17.611   8.430  10.301  0.1733  0.0692  0.0440
  122loPI   C2B 1950  17.556   8.401   9.862  0.2125  0.0644  0.1079
  122loPI   C3B 1951  17.490   8.362   9.405  0.2030  0.0235  0.2620
  122loPI   C4B 1952  17.477   8.430   8.979  0.3237  0.1461  0.2338
  123loPI    C1 1953  12.864  15.085  11.398 -0.3686  0.0670  0.0705
  123loPI    C2 1954  13.067  15.383  11.224  0.2244 -0.3947 -0.0609
  123loPI    C3 1955  13.091  15.328  11.620 -0.1605 -0.0732  0.0137
  123loPI   PO4 1956  12.586  15.146  11.211  0.0959  0.0193 -0.0551
  123loPI   GL1 1957  12.396  15.026  10.890  0.1802 -0.0493 -0.0908
  123loPI   GL2 1958  12.128  15.254  11.015 -0.0194 -0.0868 -0.1797
  123loPI   C1A 1959  12.472  15.051  10.408 -0.0768 -0.2161  0.0490
  123loPI   C2A 1960  12.509  15.058   9.924  0.0850  0.0490 -0.1854
  123loPI   C3A 1961  12.590  14.949   9.585  0.0134 -0.0510  0.2357
  123loPI   C4A 1962  12.567  14.959   9.068 -0.3738 -0.1177  0.1599
  123loPI   C5A 1963  12.808  14.675   8.760  0.3205  0.0945 -0.1820
  123loPI   C6A 1964  12.844  14.337   8.727  0.2534  0.2422  0.0951
  123loPI   C1B 1965  12.250  15.534  10.668 -0.0726 -0.3032 -0.3104
  123loPI   C2B 1966  12.268  15.500  10.151 -0.0914  0.0592 -0.0551
  123loPI   C3B 1967  12.293  15.469   9.652 -0.1064  0.2302 -0.0098
  123loPI   C4B 1968  12.275  15.408   9.225  0.1562 -0.2210  0.0582
  124loPI    C1 1969   8.787   8.602  11.772 -0.0378  0.1239 -0.0183
  124loPI    C2 1970   9.172   8.661  11.862 -0.0455 -0.0210  0.1129
  124loPI    C3 1971   8.888   8.865  12.056 -0.0340  0.1107 -0.0074
  124loPI   PO4 1972   8.805   8.589  11.502 -0.0852 -0.0925 -0.1139
  124loPI   GL1 1973   8.723   8.493  11.132  0.0812  0.2104  0.2222
  124loPI   GL2 1974   8.994   8.626  11.042  0.1709  0.1777 -0.0566
  124loPI   C1A 1975   8.523   8.416  10.786  0.0167 -0.2433 -0.1068
  124loPI   C2A 1976   8.447   8.361  10.271 -0.1725  0.1765 -0.1365
  124loPI   C3A 1977   8.461   8.294   9.856 -0.1480  0.0614 -0.1419
  124loPI   C4A 1978   8.276   8.249   9.460  0.0043  0.0018  0.2404
  124loPI   C5A 1979   8.136   8.261   9.046  0.0444  0.0806  0.3455
  124loPI   C6A 1980   7.766   8.423   8.891 -0.0860  0.1777 -0.0055
  124loPI   C1B 1981   8.899   8.642  10.617  0.2268 -0.1440  0.3207
  124loPI   C2B 1982   8.884   8.616  10.182 -0.4225  0.2174  0.1362
  124loPI   C3B 1983   8.882   8.514   9.731  0.1368 -0.0997 -0.0425
  124loPI   C4B 1984   8.745   8.575   9.346 -0.0383 -0.2168 -0.0161
  125loPI    C1 1985  14.762   5.918  11.441 -0.1497  0.0638  0.0056
  125loPI    C2 1986  14.702   5.771  11.808  0.1551 -0.2578 -0.0674
  125loPI    C3 1987  15.021   6.001  11.734  0.1250 -0.2403 -0.1438
  125loPI   PO4 1988  14.599   5.804  11.292  0.3810 -0.0975 -0.2250
  125loPI   GL1 1989  14.404   5.673  10.790  0.0025 -0.1643  0.3101
  125loPI   GL2 1990  14.430   5.960  10.844  0.3803 -0.3089  0.0402
  125loPI   C1A 1991  14.521   5.738  10.341 -0.0118 -0.0826 -0.1670
  125loPI   C2A 1992  14.564   5.645   9.965  0.0617 -0.1221 -0.1275
  125loPI   C3A 1993  14.544   5.711   9.557  0.2838 -0.0802  0.1920
  125loPI   C4A 1994  14.625   5.789   9.171  0.0231 -0.1594 -0.0730
  125loPI   C5A 1995  14.607   6.019   8.831  0.0896  0.2550 -0.1319
  125loPI   C6A 1996  14.187   6.072   8.685  0.3235  0.3703 -0.1352
  125loPI   C1B 1997  14.442   6.187  10.585 -0.1690  0.1925  0.1625
  125loPI   C2B 1998  14.515   6.266  10.190  0.1842  0.0947 -0.1365
  125loPI   C3B 1999  14.472   6.149   9.811  0.1138 -0.1317  0.3058
  125loPI   C4B 2000  14.497   6.184   9.439 -0.1732  0.0946  0.3467
  126loPI    C1 2001   9.197   3.323  11.665 -0.1228 -0.0140  0.0355
  126loPI    C2 2002   9.452   3.491  11.924 -0.1225 -0.1285  0.1102
  126loPI    C3 2003   9.077   3.408  12.036 -0.2084  0.0843 -0.0143
  126loPI   PO4 2004   9.323   3.385  11.454  0.0666  0.1691  0.0371
  126loPI   GL1 2005   9.287   3.431  10.978 -0.0364  0.2068 -0.0325
  126loPI   GL2 2006   9.309   3.154  10.847 -0.0168  0.2155 -0.1745
  126loPI   C1A 2007   9.221   3.674  10.663  0.0430  0.0558  0.1340
  126loPI   C2A 2008   9.249   3.644  10.226  0.0502 -0.0330  0.0551
  126loPI   C3A 2009   9.220   3.635   9.811  0.0574 -0.0029  0.0311
  126loPI   C4A 2010   9.240   3.596   9.452  0.1747  0.3976 -0.0017
  126loPI   C5A 2011   9.272   3.584   9.010  0.3162 -0.0137  0.2316
  126loPI   C6A 2012   9.493   3.544   8.564 -0.3004 -0.2507  0.1657
  126loPI   C1B 2013   9.458   3.250  10.478  0.1319  0.3348  0.0407
  126loPI   C2B 2014   9.506   3.189  10.057  0.2773  0.0143 -0.3186
  126loPI   C3B 2015   9.580   3.175   9.713 -0.4546  0.1597  0.0488
  126loPI   C4B 2016   9.448   3.162   9.275 -0.0164 -0.0597  0.0143
  127loPI    C1 2017   0.235  14.884  11.271 -0.3175 -0.0343 -0.1292
  127loPI    C2 2018  -0.049  15.165  11.250 -0.2937  0.0407  0.4040
  127loPI    C3 2019  -0.076  14.875  11.523 -0.1049 -0.2394  0.1312
  127loPI   PO4 2020   0.243  14.817  11.009  0.1359  0.1870 -0.1097
  127loPI   GL1 2021   0.050  14.870  10.643  0.0576  0.0956 -0.1104
  127loPI   GL2 2022  -0.056  15.150  10.724 -0.1134  0.2895  0.3015
  127loPI   C1A 2023   0.062  14.659  10.281  0.3333  0.1535 -0.0414
  127loPI   C2A 2024   0.466  14.614  10.050  0.0141 -0.0760 -0.5045
  127loPI   C3A 2025   0.858  14.763  10.020 -0.1948  0.1310 -0.0327
  127loPI   C4A 2026   1.087  14.758   9.696 -0.0220 -0.0729  0.1555
  127loPI   C5A 2027   1.072  14.846   9.292 -0.0934 -0.0983  0.0735
  127loPI   C6A 2028   0.848  14.787   8.948  0.1275  0.1599 -0.0366
  127loPI   C1B 2029   0.006  15.152  10.245  0.1183 -0.2335  0.3154
  127loPI   C2B 2030   0.062  14.976   9.879 -0.2453 -0.0594 -0.0251
  127loPI   C3B 2031   0.250  14.711   9.623  0.3523 -0.1931  0.2076
  127loPI   C4B 2032   0.654  14.660   9.523 -0.2956  0.0063  0.1094
  128loPI    C1 2033  12.900   0.787  11.877  0.1618 -0.1194 -0.0144
  128loPI    C2 2034  13.058   0.612  12.200  0.0698 -0.0404  0.0739
  128loPI    C3 2035  12.746   0.860  12.239 -0.0342 -0.1436 -0.0919
  128loPI   PO4 2036  12.978   0.701  11.703  0.1302  0.0978  0.0130
  128loPI   GL1 2037  12.874   0.376  11.407  0.1418  0.1026 -0.1082
  128loPI   GL2 2038  13.218   0.449  11.157 -0.1904 -0.0144  0.0384
  128loPI   C1A 2039  12.778   0.473  10.951 -0.2861  0.0262 -0.0556
  128loPI   C2A 2040  12.651   0.507  10.478 -0.0318  0.1565 -0.3024
  128loPI   C3A 2041  12.601   0.477  10.048 -0.2198 -0.1018  0.1944
  128loPI   C4A 2042  12.641   0.577   9.577 -0.3839 -0.0692 -0.0089
  128loPI   C5A 2043  12.612   0.491   9.190  0.2207 -0.1632  0.0443
  128loPI   C6A 2044  12.785   0.400   8.741  0.0980  0.0477  0.1292
  128loPI   C1B 2045  13.173   0.506  10.728 -0.3173  0.0961  0.3923
  128loPI   C2B 2046  13.228   0.512  10.189  0.0205  0.1285  0.2406
  128loPI   C3B 2047  13.174   0.433   9.769 -0.4007  0.0998  0.4023
  128loPI   C4B 2048  13.136   0.508   9.367 -0.2832 -0.0701 -0.2514
  129loPI    C1 2049   7.495   9.206  11.452 -0.1337  0.1485 -0.1434
  129loPI    C2 2050   7.160   9.212  11.671  0.0150  0.1266  0.0886
  129loPI    C3 2051   7.453   9.472  11.748  0.2048 -0.0974  0.1338
  129loPI   PO4 2052   7.444   9.212  11.220 -0.0525  0.0701  0.1691
  129loPI   GL1 2053   7.511   9.482  10.942  0.0432  0.0172  0.3371
  129loPI   GL2 2054   7.363   9.746  10.847 -0.1739  0.0736 -0.2367
  129loPI   C1A 2055   7.528   9.281  10.599  0.0767 -0.0937 -0.0265
  129loPI   C2A 2056   7.567   9.283  10.195 -0.3556  0.3347  0.1765
  129loPI   C3A 2057   7.466   9.299   9.727  0.1023  0.0375 -0.1603
  129loPI   C4A 2058   7.431   9.336   9.363 -0.0980  0.1490 -0.0360
  129loPI   C5A 2059   7.277   9.158   8.998  0.5333  0.0341  0.1251
  129loPI   C6A 2060   7.337   8.768   8.805  0.2076 -0.2329  0.0628
  129loPI   C1B 2061   7.419   9.777  10.453 -0.0824 -0.0369  0.0824
  129loPI   C2B 2062   7.446   9.702   9.991 -0.1831 -0.1314  0.0085
  129loPI   C3B 2063   7.394   9.825   9.557 -0.0335  0.1814 -0.1902
  129loPI   C4B 2064   7.422   9.762   9.158  0.2193 -0.3223  0.1365
  130loPI    C1 2065   2.974   2.667  11.697  0.0700 -0.0530  0.1638
  130loPI    C2 2066   3.163   2.706  12.048  0.0068 -0.0660  0.1994
  130loPI    C3 2067   2.783   2.825  12.010 -0.0076 -0.1258  0.1536
  130loPI   PO4 2068   3.104   2.736  11.443  0.0029  0.0571 -0.0315
  130loPI   GL1 2069   3.083   2.927  11.101  0.1989 -0.2424  0.3045
  130loPI   GL2 2070   3.426   2.941  10.996  0.0750  0.0432 -0.0678
  130loPI   C1A 2071   2.931   2.898  10.748 -0.1902  0.4114  0.1978
  130loPI   C2A 2072   2.770   2.918  10.400 -0.3263 -0.2450  0.2283
  130loPI   C3A 2073   2.835   2.897  10.048 -0.2287  0.0257 -0.0750
  130loPI   C4A 2074   2.926   2.916   9.546 -0.4154 -0.1169 -0.0271
  130loPI   C5A 2075   2.914   2.784   9.086  0.0281 -0.0782  0.1038
  130loPI   C6A 2076   3.145   3.041   8.704  0.0107  0.2859  0.0841
  130loPI   C1B 2077   3.413   2.836  10.578 -0.1311 -0.2624  0.0758
  130loPI   C2B 2078   3.367   2.909  10.162 -0.2682  0.1727  0.0528
  130loPI   C3B 2079   3.388   2.888   9.777  0.0288  0.0485  0.1218
  130loPI   C4B 2080   3.435   2.950   9.377  0.2088  0.1012  0.2323
  131loPI    C1 2081   1.918   1.132  11.893  0.0699  0.3634 -0.0906
  131loPI    C2 2082   2.130   1.304  12.186 -0.1702  0.2407  0.1598
  131loPI    C3 2083   1.732   1.348  12.174 -0.1714  0.1748 -0.1018
  131loPI   PO4 2084   1.995   1.316  11.646  0.0332 -0.0161 -0.0478
  131loPI   GL1 2085   2.121   1.352  11.262 -0.2225 -0.3305 -0.0929
  131loPI   GL2 2086   1.764   1.204  11.222  0.2518  0.0522  0.0204
  131loPI   C1A 2087   2.140   1.551  10.852  0.1476  0.2117  0.0314
  131loPI   C2A 2088   2.097   1.589  10.412 -0.2731 -0.0695 -0.1671
  131loPI   C3A 2089   2.062   1.570   9.962 -0.2735 -0.0404  0.0387
  131loPI   C4A 2090   2.174   1.568   9.590 -0.2097 -0.2793 -0.0968
  131loPI   C5A 2091   2.096   1.607   9.124  0.0818 -0.0966 -0.0130
  131loPI   C6A 2092   1.995   1.945   8.920  0.0227  0.2963 -0.3689
  131loPI   C1B 2093   1.877   1.109  10.852 -0.1701 -0.2198 -0.2426
  131loPI   C2B 2094   1.806   1.103  10.495 -0.0477 -0.2374 -0.0539
  131loPI   C3B 2095   1.824   1.092  10.073  0.0860 -0.0292 -0.0450
  131loPI   C4B 2096   1.839   1.194   9.650 -0.0660 -0.0207 -0.0850
  132loPI    C1 2097  15.822   9.402  11.668 -0.0425 -0.1643  0.0021
  132loPI    C2 2098  16.185   9.570  11.667 -0.0473 -0.1514  0.1633
  132loPI    C3 2099  15.864   9.788  11.765 -0.1206 -0.1205 -0.1348
  132loPI   PO4 2100  15.807   9.280  11.371  0.1556 -0.1100 -0.0437
  132loPI   GL1 2101  15.453   9.410  11.085  0.1284 -0.0106  0.2686
  132loPI   GL2 2102  15.352   9.171  10.917 -0.0646  0.2316  0.0414
  132loPI   C1A 2103  15.533   9.697  10.705 -0.4109 -0.0598  0.0604
  132loPI   C2A 2104  15.527   9.773  10.289  0.0934 -0.2939  0.1240
  132loPI   C3A 2105  15.555   9.760   9.846  0.2755  0.2556 -0.1206
  132loPI   C4A 2106  15.615   9.705   9.369 -0.2257 -0.1300 -0.3157
  132loPI   C5A 2107  15.454   9.600   8.951 -0.0565 -0.0274  0.0864
  132loPI   C6A 2108  15.101   9.311   8.782  0.0427  0.1287  0.2660
  132loPI   C1B 2109  15.573   9.260  10.508 -0.1561  0.2382 -0.0154
  132loPI   C2B 2110  15.646   9.198  10.091  0.1736  0.2226 -0.0725
  132loPI   C3B 2111  15.563   9.201   9.629  0.2248  0.3399 -0.1563
  132loPI   C4B 2112  15.585   9.190   9.157 -0.0986  0.1187  0.0744
  133loPI    C1 2113  11.540   8.163  11.410 -0.2305  0.0008  0.3073
  133loPI    C2 2114  11.901   8.335  11.420 -0.2267  0.0264 -0.1079
  133loPI    C3 2115  11.711   8.249  11.761  0.0526  0.2590  0.1112
  133loPI   PO4 2116  11.579   8.021  11.200 -0.0936  0.1090 -0.0915
  133loPI   GL1 2117  11.496   8.108  10.724 -0.0068  0.3114  0.1651
  133loPI   GL2 2118  11.414   8.198  10.422  0.3022  0.1876 -0.3459
  133loPI   C1A 2119  11.889   8.358  10.486  0.2373  0.0941  0.0734
  133loPI   C2A 2120  12.004   8.524  10.128  0.3219  0.1392  0.1843
  133loPI   C3A 2121  12.035   8.470   9.592 -0.0618  0.0201 -0.0111
  133loPI   C4A 2122  11.950   8.297   9.167 -0.2239  0.1531  0.0490
  133loPI   C5A 2123  11.820   8.497   8.679  0.0619  0.1451  0.1944
  133loPI   C6A 2124  11.795   8.744   8.277 -0.1801 -0.0108  0.0710
  133loPI   C1B 2125  11.545   8.257  10.105 -0.0828  0.5386  0.1972
  133loPI   C2B 2126  11.640   8.107   9.650  0.0768 -0.2490 -0.1000
  133loPI   C3B 2127  11.540   8.069   9.171 -0.0974  0.0449 -0.1932
  133loPI   C4B 2128  11.712   7.923   8.869  0.2044  0.0055  0.0221
  134loPI    C1 2129  12.572   6.314  11.445  0.0465 -0.2446 -0.1058
  134loPI    C2 2130  12.604   5.963  11.635  0.0989 -0.0734  0.2089
  134loPI    C3 2131  12.249   6.146  11.612  0.0349 -0.2314 -0.1148
  134loPI   PO4 2132  12.674   6.313  11.256  0.2116  0.0826 -0.0557
  134loPI   GL1 2133  12.688   6.286  10.899 -0.3476 -0.1947  0.3248
  134loPI   GL2 2134  12.778   6.571  10.654 -0.0084  0.0621 -0.0510
  134loPI   C1A 2135  12.277   6.337  10.665 -0.0550  0.0152  0.3238
  134loPI   C2A 2136  12.144   6.453  10.359 -0.0681 -0.3255 -0.0721
  134loPI   C3A 2137  12.276   6.505   9.941 -0.0955 -0.2030 -0.1177
  134loPI   C4A 2138  12.267   6.318   9.523 -0.4030  0.0465  0.2456
  134loPI   C5A 2139  12.116   6.042   9.245  0.2291 -0.0700 -0.2165
  134loPI   C6A 2140  11.894   6.207   8.822 -0.2583 -0.0440  0.2315
  134loPI   C1B 2141  12.623   6.683  10.220  0.0425 -0.0319  0.1206
  134loPI   C2B 2142  12.667   6.774   9.778  0.2504  0.4389  0.0034
  134loPI   C3B 2143  12.727   6.654   9.395 -0.3791 -0.0114 -0.1138
  134loPI   C4B 2144  12.932   6.389   9.042  0.0126  0.1989  0.0531
  135loPI    C1 2145  13.219  16.292  11.604 -0.1758 -0.0737  0.0617
  135loPI    C2 2146  13.420  16.592  11.776 -0.0504 -0.0376 -0.1434
  135loPI    C3 2147  13.022  16.574  11.808 -0.0613  0.1641 -0.1505
  135loPI   PO4 2148  13.249  16.210  11.389  0.1018 -0.0534 -0.1061
  135loPI   GL1 2149  12.996  16.310  11.036  0.0475  0.0765 -0.0664
  135loPI   GL2 2150  13.296  16.388  10.959 -0.1463  0.0174 -0.0830
  135loPI   C1A 2151  12.770  16.385  10.688 -0.4043  0.0286  0.3400
  135loPI   C2A 2152  12.735  16.379  10.288  0.0470 -0.1483 -0.1250
  135loPI   C3A 2153  12.727  16.342   9.856 -0.1014  0.0995 -0.1193
  135loPI   C4A 2154  12.706  16.282   9.378 -0.1791 -0.0353  0.0901
  135loPI   C5A 2155  12.698  16.453   9.014 -0.0870  0.0877 -0.0267
  135loPI   C6A 2156  12.962  16.780   8.978 -0.0862  0.0385  0.0574
  135loPI   C1B 2157  13.229  16.408  10.547 -0.0512  0.0052  0.0790
  135loPI   C2B 2158  13.281  16.382  10.129  0.2012  0.2143  0.3727
  135loPI   C3B 2159  13.204  16.268   9.677 -0.2805  0.0736 -0.0139
  135loPI   C4B 2160  13.247  16.372   9.279 -0.1762  0.0195  0.0455
  136loPI    C1 2161  16.242   6.317  11.443 -0.0331  0.0630 -0.1246
  136loPI    C2 2162  15.875   6.349  11.288 -0.0917  0.0336  0.0071
  136loPI    C3 2163  15.946   6.473  11.662  0.0061 -0.0666  0.0221
  136loPI   PO4 2164  16.348   6.474  11.198 -0.0456  0.0975 -0.2422
  136loPI   GL1 2165  16.115   6.378  10.861 -0.1695 -0.1090  0.0276
  136loPI   GL2 2166  15.956   6.570  10.814 -0.0713 -0.0125 -0.1260
  136loPI   C1A 2167  16.348   6.398  10.486  0.0924 -0.2302  0.0692
  136loPI   C2A 2168  16.425   6.484   9.951  0.0962  0.0613 -0.1216
  136loPI   C3A 2169  16.396   6.372   9.509 -0.1778  0.1878  0.1379
  136loPI   C4A 2170  16.377   6.398   9.053  0.0687 -0.1115  0.0983
  136loPI   C5A 2171  16.435   6.593   8.635 -0.0014  0.0993  0.2792
  136loPI   C6A 2172  16.472   6.583   8.198 -0.1832  0.4255 -0.0673
  136loPI   C1B 2173  15.927   6.570  10.344 -0.1601 -0.0865 -0.0674
  136loPI   C2B 2174  15.949   6.585   9.874 -0.4548 -0.2213  0.0424
  136loPI   C3B 2175  15.876   6.584   9.376  0.1173  0.1325  0.2446
  136loPI   C4B 2176  15.854   6.658   8.943 -0.1268 -0.0086 -0.0390
  137loPI    C1 2177  11.967  10.287  11.647 -0.1068  0.1025  0.0014
  137loPI    C2 2178  12.303  10.251  11.860 -0.1512  0.2445  0.0969
  137loPI    C3 2179  11.966  10.076  11.986 -0.0867  0.0004 -0.0616
  137loPI   PO4 2180  12.105  10.291  11.372  0.0755 -0.0354  0.1363
  137loPI   GL1 2181  11.883  10.312  11.002  0.0700  0.0565 -0.0899
  137loPI   GL2 2182  11.923  10.555  10.856 -0.1772  0.0659  0.3319
  137loPI   C1A 2183  11.925  10.105  10.674 -0.2202 -0.1167  0.2795
  137loPI   C2A 2184  11.891  10.105  10.254  0.2775 -0.0526 -0.1871
  137loPI   C3A 2185  11.887   9.999   9.834 -0.3427 -0.3408  0.3228
  137loPI   C4A 2186  12.011  10.012   9.458 -0.0290  0.3237  0.1883
  137loPI   C5A 2187  11.997  10.015   9.031 -0.3612 -0.0857  0.2435
  137loPI   C6A 2188  11.878   9.918   8.583 -0.5042 -0.1308  0.0454
  137loPI   C1B 2189  11.893  10.573  10.479  0.3398  0.1554  0.1010
  137loPI   C2B 2190  11.873  10.611   9.998  0.1147 -0.2908 -0.1872
  137loPI   C3B 2191  11.885  10.517   9.556  0.0874 -0.1659  0.2869
  137loPI   C4B 2192  11.878  10.578   9.189  0.1248  0.1155 -0.0563
  138loPI    C1 2193   8.749  13.158  11.303  0.0786  0.2147 -0.0323
  138loPI    C2 2194   8.896  13.442  11.544  0.1561  0.1504 -0.0035
  138loPI    C3 2195   8.637  13.174  11.687  0.1718  0.1362 -0.0017
  138loPI   PO4 2196   8.671  13.263  11.137 -0.0049  0.1393  0.2427
  138loPI   GL1 2197   8.785  13.422  10.793 -0.0111 -0.2322 -0.0682
  138loPI   GL2 2198   8.958  13.712  10.732 -0.0497  0.0991 -0.3677
  138loPI   C1A 2199   8.471  13.281  10.530 -0.1069 -0.1324 -0.1337
  138loPI   C2A 2200   8.472  13.158  10.073 -0.1194 -0.1328 -0.0039
  138loPI   C3A 2201   8.472  13.213   9.574 -0.1598  0.2270 -0.0449
  138loPI   C4A 2202   8.621  13.333   9.212  0.2018  0.1198 -0.0547
  138loPI   C5A 2203   8.851  13.369   8.775 -0.2596 -0.1522  0.0544
  138loPI   C6A 2204   8.726  13.434   8.377  0.3190  0.3082  0.0532
  138loPI   C1B 2205   8.777  13.655  10.343 -0.1367 -0.1142  0.2018
  138loPI   C2B 2206   8.814  13.538   9.820  0.1951  0.0359  0.1588
  138loPI   C3B 2207   9.024  13.583   9.461 -0.0833  0.1486 -0.1261
  138loPI   C4B 2208   9.218  13.605   9.082  0.2951  0.0796  0.1595
  139loPI    C1 2209   0.750  14.692  11.076  0.3027 -0.0856 -0.2031
  139loPI    C2 2210   0.917  15.029  10.941  0.3031 -0.0345 -0.0763
  139loPI    C3 2211   0.684  15.038  11.266  0.1110 -0.1170 -0.2101
  139loPI   PO4 2212   0.915  14.509  10.891  0.0186 -0.0983 -0.2200
  139loPI   GL1 2213   0.780  14.528  10.497  0.1835  0.1095  0.0643
  139loPI   GL2 2214   0.560  14.771  10.600  0.2697 -0.0383 -0.2085
  139loPI   C1A 2215   0.848  14.273  10.082 -0.2230 -0.1433  0.2696
  139loPI   C2A 2216   1.134  14.168   9.714  0.2198  0.1781 -0.1296
  139loPI   C3A 2217   1.063  14.301   9.332 -0.0010 -0.1872  0.0549
  139loPI   C4A 2218   0.996  14.313   8.922 -0.4527 -0.0019 -0.1768
  139loPI   C5A 2219   1.062  14.149   8.643 -0.1233 -0.2404  0.2191
  139loPI   C6A 2220   1.269  13.842   8.391 -0.1146  0.1745  0.1525
  139loPI   C1B 2221   0.518  15.032  10.320  0.0595 -0.2200  0.0430
  139loPI   C2B 2222   0.529  15.118   9.880 -0.1001 -0.0695 -0.1041
  139loPI   C3B 2223   0.356  15.254   9.497  0.5036  0.2284 -0.0139
  139loPI   C4B 2224   0.374  14.904   9.116 -0.1345  0.0631 -0.1573
  140loPI    C1 2225  17.172   7.009  11.429  0.1503 -0.3682  0.1078
  140loPI    C2 2226  17.084   7.360  11.599  0.0985 -0.1601 -0.3344
  140loPI    C3 2227  16.851   7.042  11.665  0.0774 -0.0841 -0.0265
  140loPI   PO4 2228  17.320   7.100  11.277  0.0069  0.1360  0.1172
  140loPI   GL1 2229  17.353   7.276  10.838 -0.4426  0.3382 -0.3385
  140loPI   GL2 2230  17.203   7.565  10.703 -0.0442  0.0590  0.0878
  140loPI   C1A 2231  17.241   7.123  10.425 -0.1984 -0.2669  0.3614
  140loPI   C2A 2232  17.270   7.152   9.996  0.1191 -0.0636 -0.1506
  140loPI   C3A 2233  17.197   7.141   9.611 -0.1648 -0.1904 -0.0409
  140loPI   C4A 2234  17.243   7.083   9.234 -0.0615 -0.0356 -0.0983
  140loPI   C5A 2235  17.337   7.042   8.821 -0.2100  0.0816 -0.1835
  140loPI   C6A 2236  17.318   6.999   8.394  0.0344  0.1217  0.0113
  140loPI   C1B 2237  17.201   7.596  10.270 -0.1211 -0.0165  0.0556
  140loPI   C2B 2238  17.162   7.629   9.832  0.2575  0.1043 -0.4288
  140loPI   C3B 2239  17.035   7.567   9.400  0.1150  0.1162 -0.1606
  140loPI   C4B 2240  17.127   7.641   8.957  0.1811  0.1829  0.0506
  141loPI    C1 2241  12.301  13.007  11.283  0.1009 -0.0832  0.0371
  141loPI    C2 2242  12.099  12.807  11.564  0.0877  0.1510  0.1969
  141loPI    C3 2243  12.499  12.817  11.574  0.0901  0.0900  0.1595
  141loPI   PO4 2244  12.134  13.174  11.215  0.1521 -0.4993  0.0898
  141loPI   GL1 2245  11.888  13.182  10.865 -0.3722 -0.1055 -0.0048
  141loPI   GL2 2246  11.719  13.047  10.792 -0.0890  0.1800  0.0150
  141loPI   C1A 2247  12.061  13.425  10.542 -0.2148  0.0735  0.1234
  141loPI   C2A 2248  12.066  13.367  10.085 -0.2435 -0.0254  0.2535
  141loPI   C3A 2249  12.070  13.048   9.889 -0.1867  0.1938  0.2265
  141loPI   C4A 2250  12.132  12.749   9.538  0.0456 -0.1741 -0.0682
  141loPI   C5A 2251  11.924  12.789   9.173  0.3891 -0.0228  0.2105
  141loPI   C6A 2252  11.538  12.737   8.970  0.0469  0.0013 -0.0301
  141loPI   C1B 2253  11.636  13.236  10.323 -0.1452  0.0263  0.0423
  141loPI   C2B 2254  11.564  13.260   9.847 -0.0466 -0.4498  0.0548
  141loPI   C3B 2255  11.588  13.052   9.506 -0.2807  0.0466 -0.1419
  141loPI   C4B 2256  11.588  13.228   9.128 -0.2957  0.0928  0.0822
  142loPI    C1 2257   2.342   4.790  11.612 -0.1444  0.3112  0.0847
  142loPI    C2 2258   2.056   5.029  11.756 -0.4049 -0.0412  0.1665
  142loPI    C3 2259   2.066   4.643  11.861  0.2857  0.0288  0.4107
  142loPI   PO4 2260   2.297   4.728  11.311 -0.2987 -0.0866 -0.0553
  142loPI   GL1 2261   2.380   4.801  10.907  0.0156  0.0937  0.0330
  142loPI   GL2 2262   2.476   5.115  10.813 -0.0435  0.1075 -0.0400
  142loPI   C1A 2263   2.386   4.663  10.600  0.0737 -0.0697 -0.2799
  142loPI   C2A 2264   2.474   4.684  10.248 -0.0279 -0.5464 -0.3144
  142loPI   C3A 2265   2.374   4.619   9.786  0.1361 -0.1434 -0.1123
  142loPI   C4A 2266   2.201   4.683   9.300  0.0662  0.0567  0.0110
  142loPI   C5A 2267   1.828   4.733   9.043 -0.1884 -0.0532  0.0603
  142loPI   C6A 2268   1.870   4.582   8.636  0.2110 -0.2598  0.1517
  142loPI   C1B 2269   2.387   5.196  10.339 -0.0652  0.1061 -0.1068
  142loPI   C2B 2270   2.305   5.129   9.949 -0.2975  0.0547 -0.0349
  142loPI   C3B 2271   2.312   5.111   9.540 -0.4998  0.0610  0.0871
  142loPI   C4B 2272   2.236   5.171   9.146 -0.0174  0.1291 -0.1953
  143loPI    C1 2273  11.328  10.413  11.652 -0.1227  0.0655  0.1746
  143loPI    C2 2274  11.474  10.131  11.895  0.2188  0.1221  0.0406
  143loPI    C3 2275  11.119  10.079  11.720  0.1156 -0.0615  0.2986
  143loPI   PO4 2276  11.511  10.477  11.427 -0.0967  0.1359 -0.2769
  143loPI   GL1 2277  11.435  10.650  10.968  0.0647  0.0679 -0.1926
  143loPI   GL2 2278  11.078  10.598  10.892 -0.1073  0.0954  0.3146
  143loPI   C1A 2279  11.416  10.856  10.623  0.1820 -0.0067 -0.0360
  143loPI   C2A 2280  11.394  10.832  10.158  0.1480  0.0073 -0.2684
  143loPI   C3A 2281  11.419  10.798   9.761 -0.0298 -0.1695  0.0519
  143loPI   C4A 2282  11.257  10.778   9.294 -0.1885  0.2481 -0.1650
  143loPI   C5A 2283  11.303  10.808   8.925  0.1470 -0.1587  0.2020
  143loPI   C6A 2284  11.392  10.768   8.453  0.2194 -0.2749  0.2581
  143loPI   C1B 2285  10.982  10.592  10.490  0.0145  0.2155  0.0503
  143loPI   C2B 2286  11.038  10.535  10.068  0.1228 -0.0648 -0.3074
  143loPI   C3B 2287  10.954  10.509   9.620  0.3502 -0.0339 -0.0948
  143loPI   C4B 2288  10.819  10.517   9.182 -0.1579 -0.2016  0.1801
  144loPI    C1 2289  11.290   5.348  11.078  0.0436  0.1383 -0.0148
  144loPI    C2 2290  11.329   5.290  11.472  0.1576  0.0632 -0.0366
  144loPI    C3 2291  11.620   5.473  11.267  0.1288  0.0411 -0.0976
  144loPI   PO4 2292  11.043   5.430  11.033 -0.3577  0.0683  0.2016
  144loPI   GL1 2293  11.064   5.527  10.583  0.0808  0.0697 -0.0918
  144loPI   GL2 2294  10.780   5.411  10.639  0.1684  0.0176 -0.1118
  144loPI   C1A 2295  11.335   5.273  10.321  0.0904  0.2893 -0.0146
  144loPI   C2A 2296  11.519   4.993  10.141 -0.0339  0.1079  0.0840
  144loPI   C3A 2297  11.521   5.039   9.751 -0.0818  0.2737  0.0686
  144loPI   C4A 2298  11.640   5.058   9.326  0.0333 -0.0570  0.1483
  144loPI   C5A 2299  11.658   5.046   9.020 -0.1375 -0.0253 -0.0693
  144loPI   C6A 2300  11.892   5.240   8.614  0.0069 -0.0468 -0.0947
  144loPI   C1B 2301  10.808   5.468  10.217  0.1806 -0.1010 -0.2765
  144loPI   C2B 2302  10.737   5.451   9.724 -0.0560  0.2948 -0.1269
  144loPI   C3B 2303  10.805   5.444   9.281 -0.1367  0.0659 -0.1007
  144loPI   C4B 2304  10.761   5.299   8.889  0.2325  0.0196 -0.2865
  145loPI    C1 2305   6.026   3.134  11.551  0.0117  0.0492 -0.0769
  145loPI    C2 2306   6.267   3.093  11.868 -0.1100 -0.2443 -0.0193
  145loPI    C3 2307   5.889   2.963  11.886 -0.2249  0.0603 -0.1662
  145loPI   PO4 2308   6.124   2.982  11.386  0.0721  0.3778 -0.0022
  145loPI   GL1 2309   5.937   2.744  11.010 -0.0214 -0.0574 -0.0605
  145loPI   GL2 2310   6.192   2.778  10.911 -0.2381  0.0054 -0.1869
  145loPI   C1A 2311   5.755   2.597  10.677  0.0692  0.0739  0.2899
  145loPI   C2A 2312   5.685   2.515  10.273  0.1632 -0.1260  0.3108
  145loPI   C3A 2313   5.776   2.491   9.800  0.1315  0.0753  0.1176
  145loPI   C4A 2314   5.809   2.470   9.371 -0.1934 -0.0343 -0.0354
  145loPI   C5A 2315   5.556   2.555   8.875  0.2873 -0.0266  0.1717
  145loPI   C6A 2316   5.445   2.316   8.616 -0.0715 -0.3007 -0.0381
  145loPI   C1B 2317   6.253   2.583  10.470  0.1128 -0.0075  0.1411
  145loPI   C2B 2318   6.244   2.568  10.024  0.1211 -0.0057 -0.2073
  145loPI   C3B 2319   6.290   2.526   9.695 -0.1026 -0.0932  0.0978
  145loPI   C4B 2320   6.326   2.529   9.271 -0.1399  0.0235 -0.1657
  146loPI    C1 2321   8.319   1.255  11.856 -0.0727 -0.0038  0.0543
  146loPI    C2 2322   8.519   1.596  11.918  0.0806 -0.0747 -0.0422
  146loPI    C3 2323   8.579   1.281  12.158  0.1339 -0.1169 -0.1104
  146loPI   PO4 2324   8.268   1.169  11.641 -0.2496 -0.0195  0.0545
  146loPI   GL1 2325   8.332   1.180  11.228 -0.1099  0.1959 -0.0780
  146loPI   GL2 2326   8.617   1.053  11.268  0.1519  0.1727  0.4795
  146loPI   C1A 2327   8.276   0.968  10.885 -0.0995  0.1132  0.0436
  146loPI   C2A 2328   8.294   0.918  10.459 -0.2580 -0.0638  0.1791
  146loPI   C3A 2329   8.341   0.760  10.030  0.2291 -0.3879 -0.0748
  146loPI   C4A 2330   8.350   0.851   9.571 -0.0441 -0.2254 -0.1709
  146loPI   C5A 2331   8.432   0.689   9.196  0.1452 -0.0329  0.0992
  146loPI   C6A 2332   8.293   1.110   8.830  0.1389  0.1371  0.1203
  146loPI   C1B 2333   8.759   0.930  10.819  0.4148  0.0444  0.2619
  146loPI   C2B 2334   8.733   0.859  10.311 -0.0283 -0.1990 -0.1699
  146loPI   C3B 2335   8.786   0.899   9.827 -0.0170  0.0763 -0.2742
  146loPI   C4B 2336   8.876   0.853   9.337  0.0671 -0.2406  0.2006
  147loPI    C1 2337  17.126  17.635  11.775 -0.0354 -0.0619 -0.1235
  147loPI    C2 2338  16.795  17.431  11.872 -0.0629 -0.0208 -0.1310
  147loPI    C3 2339  17.074  17.504  12.150 -0.1591  0.1290 -0.0728
  147loPI   PO4 2340  17.105  17.575  11.479 -0.0329 -0.0787 -0.0799
  147loPI   GL1 2341  16.968  17.640  11.127 -0.1067 -0.4436  0.0122
  147loPI   GL2 2342  17.140  17.741  10.935 -0.1921  0.0781 -0.1532
  147loPI   C1A 2343  16.800  17.374  10.691 -0.3327 -0.0538  0.0043
  147loPI   C2A 2344  16.758  17.427  10.263  0.0874 -0.1998 -0.1387
  147loPI   C3A 2345  16.832  17.360   9.896 -0.3540  0.0207 -0.2971
  147loPI   C4A 2346  16.757  17.365   9.527  0.1176 -0.1015  0.0869
  147loPI   C5A 2347  16.844  17.303   9.030 -0.0672 -0.0336 -0.2825
  147loPI   C6A 2348  16.905  17.694   8.698 -0.1740 -0.0362 -0.0099
  147loPI   C1B 2349  17.041  17.810  10.556 -0.0052  0.3927 -0.0992
  147loPI   C2B 2350  16.988  17.902  10.126 -0.2161 -0.0009 -0.0468
  147loPI   C3B 2351  17.042  17.848   9.769 -0.2064  0.0319  0.0804
  147loPI   C4B 2352  17.070  17.807   9.250 -0.1751  0.0417 -0.1197
  148loPI    C1 2353   3.304  14.848  11.472  0.1994  0.0212 -0.2021
  148loPI    C2 2354   3.652  14.688  11.359  0.3417  0.0512  0.1788
  148loPI    C3 2355   3.499  14.601  11.718  0.0094  0.1264  0.0593
  148loPI   PO4 2356   3.222  14.901  11.211 -0.1349  0.1468  0.1369
  148loPI   GL1 2357   3.327  15.171  10.881 -0.1103 -0.2209  0.1561
  148loPI   GL2 2358   3.247  15.504  10.811  0.0250  0.0147 -0.1352
  148loPI   C1A 2359   3.501  15.065  10.500 -0.0735  0.0215  0.2548
  148loPI   C2A 2360   3.431  15.181  10.050 -0.3497  0.0918  0.1508
  148loPI   C3A 2361   3.589  15.251   9.541  0.1156  0.1095  0.2210
  148loPI   C4A 2362   3.669  15.146   9.164 -0.0007  0.1842  0.0520
  148loPI   C5A 2363   3.932  14.786   9.011 -0.1191  0.0552  0.0799
  148loPI   C6A 2364   4.314  14.776   8.985 -0.1614  0.0813  0.0021
  148loPI   C1B 2365   3.186  15.578  10.395  0.0928 -0.3494  0.0924
  148loPI   C2B 2366   3.293  15.643   9.934  0.2643 -0.4808 -0.1279
  148loPI   C3B 2367   3.262  15.692   9.499 -0.2170  0.0552  0.0929
  148loPI   C4B 2368   3.375  15.653   9.109 -0.0901 -0.1056  0.1006
  149loPI    C1 2369   1.549   0.797  11.850 -0.1230  0.3893 -0.1133
  149loPI    C2 2370   1.182   0.684  11.962  0.0673 -0.1036  0.0412
  149loPI    C3 2371   1.404   0.911  12.205 -0.0213 -0.0567  0.0788
  149loPI   PO4 2372   1.623   0.828  11.564  0.4068  0.1699 -0.2376
  149loPI   GL1 2373   1.522   0.729  11.197  0.3449 -0.2222 -0.2523
  149loPI   GL2 2374   1.851   0.597  11.017 -0.0535 -0.1869 -0.2793
  149loPI   C1A 2375   1.385   0.992  10.959  0.0994  0.1955  0.3024
  149loPI   C2A 2376   1.310   1.143  10.592 -0.2020 -0.1773 -0.0277
  149loPI   C3A 2377   1.284   1.141  10.155 -0.0469  0.0746  0.0157
  149loPI   C4A 2378   1.334   1.199   9.738 -0.1343 -0.1404 -0.1327
  149loPI   C5A 2379   1.358   1.133   9.323 -0.0481  0.1186 -0.1985
  149loPI   C6A 2380   1.742   1.217   9.023 -0.2078 -0.1147  0.1499
  149loPI   C1B 2381   1.660   0.604  10.719 -0.1345 -0.0215  0.0975
  149loPI   C2B 2382   1.607   0.713  10.288 -0.1170 -0.0922 -0.0774
  149loPI   C3B 2383   1.513   0.712   9.917  0.0199 -0.1340  0.0274
  149loPI   C4B 2384   1.662   0.741   9.513 -0.0106  0.2544 -0.0196
  150loPI    C1 2385  14.416   2.862  11.746  0.2003  0.3781  0.0582
  150loPI    C2 2386  14.049   3.023  11.741  0.1167  0.1872 -0.0942
  150loPI    C3 2387  14.183   2.838  12.070 -0.1433 -0.2320 -0.2158
  150loPI   PO4 2388  14.353   2.686  11.448 -0.0538  0.3184  0.2795
  150loPI   GL1 2389  14.224   2.969  11.133 -0.1663  0.0676  0.0981
  150loPI   GL2 2390  14.085   3.116  11.162  0.0127  0.3807  0.1137
  150loPI   C1A 2391  14.438   2.802  10.815  0.3382 -0.1002 -0.1817
  150loPI   C2A 2392  14.363   2.702  10.344  0.1322  0.1243  0.1742
  150loPI   C3A 2393  14.448   2.792   9.856  0.0645  0.1828 -0.3603
  150loPI   C4A 2394  14.387   2.712   9.409 -0.0324 -0.0888  0.0680
  150loPI   C5A 2395  14.468   2.642   8.971  0.0556  0.0143 -0.0616
  150loPI   C6A 2396  14.565   2.437   8.604  0.1243  0.0623 -0.0691
  150loPI   C1B 2397  14.156   3.294  10.771  0.2143  0.2410  0.2329
  150loPI   C2B 2398  14.179   3.182  10.373  0.2644  0.2990  0.2007
  150loPI   C3B 2399  14.133   3.223   9.986  0.0845  0.0400  0.0259
  150loPI   C4B 2400  14.150   3.115   9.577  0.1946 -0.0793  0.0558
  151loPI    C1 2401  11.639  13.401  11.328  0.0583  0.0595 -0.0759
  151loPI    C2 2402  11.685  13.003  11.324  0.1899  0.0750 -0.1601
  151loPI    C3 2403  11.820  13.218  11.633 -0.2320  0.0150  0.0737
  151loPI   PO4 2404  11.536  13.396  11.123  0.1581 -0.1613  0.2021
  151loPI   GL1 2405  11.543  13.487  10.729 -0.0891  0.3241  0.2251
  151loPI   GL2 2406  11.796  13.713  10.818 -0.0296 -0.0718 -0.0937
  151loPI   C1A 2407  11.245  13.722  10.305  0.0629  0.2382  0.1592
  151loPI   C2A 2408  11.299  13.737   9.864  0.2689  0.0494 -0.2053
  151loPI   C3A 2409  11.295  13.569   9.471 -0.1867  0.2743  0.1930
  151loPI   C4A 2410  11.347  13.622   8.973  0.1209  0.1205  0.1761
  151loPI   C5A 2411  11.670  13.493   8.574 -0.1109  0.2235  0.2839
  151loPI   C6A 2412  11.815  13.103   8.326 -0.1165 -0.0696  0.0828
  151loPI   C1B 2413  11.741  13.764  10.354 -0.0384 -0.1979 -0.2594
  151loPI   C2B 2414  11.790  13.744   9.925  0.0729 -0.0839  0.1849
  151loPI   C3B 2415  11.847  13.574   9.464 -0.0566 -0.1427 -0.0450
  151loPI   C4B 2416  12.067  13.232   9.386  0.1944  0.2433  0.2055
  152loPI    C1 2417   2.693  10.216  11.638 -0.0513  0.2178 -0.2155
  152loPI    C2 2418   2.299  10.256  11.695 -0.0382  0.3082 -0.1870
  152loPI    C3 2419   2.516  10.035  11.948 -0.1196  0.0055 -0.3755
  152loPI   PO4 2420   2.703  10.246  11.366  0.1049  0.2828 -0.3886
  152loPI   GL1 2421   2.887  10.378  10.978  0.0936 -0.0529 -0.0065
  152loPI   GL2 2422   2.622  10.043  10.929  0.1108 -0.0711 -0.1664
  152loPI   C1A 2423   2.932  10.382  10.585  0.1475  0.3317 -0.0970
  152loPI   C2A 2424   2.813  10.523  10.176  0.1118 -0.0444  0.0905
  152loPI   C3A 2425   2.751  10.503   9.774  0.0241 -0.0372 -0.1546
  152loPI   C4A 2426   2.745  10.461   9.299  0.0179 -0.0927  0.1862
  152loPI   C5A 2427   2.925  10.567   8.913 -0.1261  0.0216  0.3565
  152loPI   C6A 2428   3.002  10.574   8.397 -0.0131  0.1621 -0.0023
  152loPI   C1B 2429   2.535   9.716  10.674  0.1288 -0.2034  0.0139
  152loPI   C2B 2430   2.539   9.619  10.268 -0.3038 -0.2420 -0.0299
  152loPI   C3B 2431   2.477   9.661   9.914 -0.2275 -0.3269 -0.0576
  152loPI   C4B 2432   2.432   9.774   9.504  0.1081  0.1475 -0.0378
  153loPI    C1 2433   1.141   1.553  11.666  0.0719  0.1211  0.1056
  153loPI    C2 2434   1.532   1.548  11.581  0.0000  0.2029 -0.2443
  153loPI    C3 2435   1.378   1.277  11.833  0.2775  0.1599 -0.1176
  153loPI   PO4 2436   1.082   1.710  11.460  0.0505  0.0072 -0.0810
  153loPI   GL1 2437   1.009   1.599  11.180  0.0885  0.0893 -0.1368
  153loPI   GL2 2438   0.751   1.420  11.188 -0.3679  0.2246  0.1006
  153loPI   C1A 2439   1.148   1.590  10.770  0.2971  0.1663 -0.0510
  153loPI   C2A 2440   1.020   1.561  10.322  0.0135 -0.0142  0.1189
  153loPI   C3A 2441   0.990   1.572   9.915 -0.2801 -0.0475 -0.1312
  153loPI   C4A 2442   1.091   1.558   9.478  0.0551 -0.1311 -0.0344
  153loPI   C5A 2443   1.177   1.639   9.082 -0.2978  0.0824 -0.2224
  153loPI   C6A 2444   1.136   1.838   8.727  0.0537  0.0743  0.3290
  153loPI   C1B 2445   0.642   1.508  10.821  0.1069  0.2082  0.0497
  153loPI   C2B 2446   0.544   1.563  10.363 -0.1162  0.3138  0.2309
  153loPI   C3B 2447   0.517   1.511  10.000 -0.2445  0.0477  0.1243
  153loPI   C4B 2448   0.617   1.517   9.581  0.2495 -0.2387  0.1249
  154loPI    C1 2449   2.262  11.164  11.461  0.3033 -0.2047  0.3181
  154loPI    C2 2450   1.920  11.148  11.667  0.0962 -0.2730 -0.0243
  154loPI    C3 2451   2.269  11.162  11.861 -0.1053 -0.0006  0.3311
  154loPI   PO4 2452   2.139  10.962  11.213  0.0881  0.3117  0.0131
  154loPI   GL1 2453   2.341  10.869  10.795  0.0312 -0.0919 -0.0455
  154loPI   GL2 2454   2.502  10.571  10.756  0.0660  0.1617 -0.2216
  154loPI   C1A 2455   2.305  11.176  10.439 -0.2336  0.0336 -0.0061
  154loPI   C2A 2456   2.248  11.151  10.033  0.2213  0.0081 -0.0930
  154loPI   C3A 2457   2.266  11.244   9.614 -0.1791  0.1684  0.1135
  154loPI   C4A 2458   2.258  11.206   9.187 -0.3948  0.1123  0.0298
  154loPI   C5A 2459   2.288  11.093   8.774  0.0184 -0.0643  0.0222
  154loPI   C6A 2460   2.296  11.354   8.472 -0.0468  0.0405 -0.0247
  154loPI   C1B 2461   2.389  10.686  10.371 -0.0150  0.0758 -0.1448
  154loPI   C2B 2462   2.289  10.642   9.935 -0.0241  0.1887  0.1161
  154loPI   C3B 2463   2.278  10.753   9.595 -0.2566  0.0614 -0.2403
  154loPI   C4B 2464   2.360  10.716   9.141  0.0467  0.0140 -0.0446
  155loPI    C1 2465  15.943   2.651  12.011 -0.2929 -0.0571  0.1564
  155loPI    C2 2466  16.045   2.429  12.328  0.0508  0.1391  0.1873
  155loPI    C3 2467  16.317   2.665  12.152 -0.1712  0.1331 -0.1737
  155loPI   PO4 2468  15.875   2.462  11.824  0.1826 -0.2590  0.1175
  155loPI   GL1 2469  15.877   2.308  11.338 -0.0767 -0.4698 -0.1764
  155loPI   GL2 2470  16.107   2.536  11.263  0.1984 -0.0226  0.3364
  155loPI   C1A 2471  15.685   2.471  10.986  0.0593  0.1879 -0.1205
  155loPI   C2A 2472  15.675   2.442  10.525  0.2371  0.0520 -0.2058
  155loPI   C3A 2473  15.683   2.297  10.100 -0.2088  0.0919  0.0665
  155loPI   C4A 2474  15.666   2.328   9.698  0.0344  0.0316  0.1918
  155loPI   C5A 2475  15.707   2.174   9.210  0.1691  0.0555 -0.1438
  155loPI   C6A 2476  15.983   1.913   9.173 -0.0997 -0.1248  0.0162
  155loPI   C1B 2477  16.179   2.432  10.799 -0.0564  0.1519 -0.2992
  155loPI   C2B 2478  16.195   2.331  10.377 -0.1975  0.1486  0.2399
  155loPI   C3B 2479  16.120   2.329   9.911 -0.2585 -0.0836 -0.2559
  155loPI   C4B 2480  16.147   2.288   9.415  0.3567 -0.1476 -0.1370
  156loPI    C1 2481   8.178   5.354  11.224  0.1126  0.1980 -0.0694
  156loPI    C2 2482   8.021   5.540  11.542 -0.1219 -0.0591 -0.0305
  156loPI    C3 2483   8.364   5.337  11.578 -0.1029 -0.0155  0.0366
  156loPI   PO4 2484   8.008   5.221  11.170  0.1318 -0.2676 -0.0618
  156loPI   GL1 2485   7.859   5.136  10.779 -0.0133 -0.1159  0.2490
  156loPI   GL2 2486   7.579   5.079  10.754 -0.1540 -0.3193  0.3272
  156loPI   C1A 2487   7.967   4.812  10.470 -0.0151  0.0825  0.0160
  156loPI   C2A 2488   7.917   4.971  10.049 -0.0774 -0.0510 -0.4574
  156loPI   C3A 2489   7.969   4.914   9.646  0.0897 -0.1695 -0.1994
  156loPI   C4A 2490   7.929   4.851   9.243 -0.1112  0.1291 -0.1586
  156loPI   C5A 2491   7.689   5.191   9.002  0.0599  0.0808 -0.0767
  156loPI   C6A 2492   7.838   5.224   8.589 -0.0536  0.2155 -0.0462
  156loPI   C1B 2493   7.449   4.925  10.414  0.0857 -0.2150  0.0633
  156loPI   C2B 2494   7.407   4.847   9.965 -0.0172  0.2486  0.0377
  156loPI   C3B 2495   7.385   4.968   9.632  0.0920  0.0482  0.1857
  156loPI   C4B 2496   7.463   4.753   9.188 -0.1238 -0.1746 -0.2540
  157loPI    C1 2497   2.995   3.698  11.659 -0.0727  0.0006  0.1677
  157loPI    C2 2498   3.165   4.013  11.838  0.1033 -0.1486  0.2669
  157loPI    C3 2499   2.773   3.946  11.882  0.0052  0.2205  0.0036
  157loPI   PO4 2500   3.157   3.748  11.407  0.1622 -0.0559 -0.0378
  157loPI   GL1 2501   2.945   3.457  11.196  0.0414  0.2362 -0.0264
  157loPI   GL2 2502   2.669   3.434  11.067  0.0368 -0.3760 -0.0440
  157loPI   C1A 2503   3.143   3.401  10.765 -0.1743 -0.2612 -0.1804
  157loPI   C2A 2504   3.046   3.326  10.384 -0.0419  0.3062  0.1393
  157loPI   C3A 2505   3.130   3.324   9.988  0.1595  0.0189  0.1863
  157loPI   C4A 2506   3.197   3.390   9.577  0.0267 -0.0736  0.3458
  157loPI   C5A 2507   3.162   3.314   9.155 -0.3709 -0.0438  0.0754
  157loPI   C6A 2508   3.354   3.505   8.789 -0.3279 -0.0495 -0.1006
  157loPI   C1B 2509   2.633   3.390  10.680  0.2654  0.1165 -0.0346
  157loPI   C2B 2510   2.592   3.338  10.184 -0.0383  0.1707 -0.3331
  157loPI   C3B 2511   2.668   3.287   9.779  0.0631 -0.0094 -0.1288
  157loPI   C4B 2512   2.608   3.399   9.333  0.0173  0.1990  0.0766
  158loPI    C1 2513  11.193  11.187  11.563  0.1141  0.0309  0.0348
  158loPI    C2 2514  11.475  11.023  11.331 -0.1396 -0.1088 -0.1812
  158loPI    C3 2515  11.418  10.887  11.702  0.1468 -0.0066 -0.0968
  158loPI   PO4 2516  10.996  11.186  11.377 -0.0854 -0.1418 -0.0008
  158loPI   GL1 2517  10.903  11.161  10.971 -0.1900  0.2207  0.0178
  158loPI   GL2 2518  10.957  11.512  10.977  0.1635  0.1419 -0.2039
  158loPI   C1A 2519  11.014  11.050  10.605  0.1597  0.0535  0.0988
  158loPI   C2A 2520  10.948  11.095  10.199 -0.3251  0.0184  0.2949
  158loPI   C3A 2521  10.985  10.992   9.829  0.2081  0.1291  0.0637
  158loPI   C4A 2522  10.816  11.003   9.439 -0.2307 -0.3447  0.2238
  158loPI   C5A 2523  10.793  11.072   8.981 -0.1451 -0.2147  0.0174
  158loPI   C6A 2524  10.826  11.127   8.582 -0.0565 -0.4174 -0.3543
  158loPI   C1B 2525  10.928  11.580  10.569 -0.0781  0.3279 -0.0570
  158loPI   C2B 2526  10.923  11.643  10.113  0.2265  0.1621 -0.0716
  158loPI   C3B 2527  10.881  11.491   9.723  0.1525  0.0085 -0.0169
  158loPI   C4B 2528  10.782  11.542   9.331  0.1954 -0.3259  0.0106
  159loPI    C1 2529   5.359   2.253  11.787 -0.0451 -0.2095 -0.0031
  159loPI    C2 2530   5.285   2.477  12.109 -0.0168  0.0496 -0.1733
  159loPI    C3 2531   5.465   2.122  12.149  0.0433  0.1075  0.0882
  159loPI   PO4 2532   5.369   2.443  11.633  0.0219 -0.1647  0.1637
  159loPI   GL1 2533   5.461   2.487  11.137  0.3754 -0.0417  0.2916
  159loPI   GL2 2534   5.101   2.457  11.185 -0.1286 -0.1391 -0.0612
  159loPI   C1A 2535   5.251   2.549  10.716  0.2214  0.0946  0.3366
  159loPI   C2A 2536   5.164   2.541  10.239 -0.0272 -0.1201 -0.0279
  159loPI   C3A 2537   5.271   2.533   9.809  0.1247  0.0642 -0.2218
  159loPI   C4A 2538   5.288   2.476   9.270 -0.2943 -0.0935 -0.1158
  159loPI   C5A 2539   5.202   2.168   9.042  0.1268 -0.1458 -0.2156
  159loPI   C6A 2540   5.093   1.752   8.780 -0.0586  0.5152  0.0147
  159loPI   C1B 2541   5.009   2.126  10.775  0.1966  0.0686 -0.0928
  159loPI   C2B 2542   4.884   2.054  10.349  0.0894 -0.1002 -0.1081
  159loPI   C3B 2543   4.974   2.069   9.916 -0.1179  0.1042  0.0204
  159loPI   C4B 2544   4.981   2.123   9.510  0.2772  0.1213  0.4667
  160loPI    C1 2545  17.304  10.464  11.715 -0.0639  0.1010  0.0928
  160loPI    C2 2546  17.672  10.326  11.791 -0.0088  0.1557 -0.0709
  160loPI    C3 2547  17.532  10.642  11.992  0.0841  0.2161 -0.1004
  160loPI   PO4 2548  17.273  10.297  11.379  0.0114  0.2470  0.1839
  160loPI   GL1 2549  17.248  10.325  10.982 -0.2965 -0.0501 -0.1296
  160loPI   GL2 2550  17.483  10.099  10.953  0.2290  0.0104  0.1576
  160loPI   C1A 2551  17.370  10.394  10.555  0.0526 -0.1340 -0.0869
  160loPI   C2A 2552  17.357  10.470  10.031  0.0804 -0.0204 -0.1054
  160loPI   C3A 2553  17.251  10.491   9.639  0.1507 -0.0928  0.2941
  160loPI   C4A 2554  17.283  10.440   9.247  0.0850 -0.0610 -0.0420
  160loPI   C5A 2555  17.204  10.533   8.852 -0.3558 -0.0383 -0.0225
  160loPI   C6A 2556  17.129  10.683   8.499 -0.1764 -0.2920  0.1135
  160loPI   C1B 2557  17.358   9.919  10.541  0.2912  0.1531 -0.0840
  160loPI   C2B 2558  17.432   9.915  10.102 -0.1175 -0.1651 -0.2247
  160loPI   C3B 2559  17.357   9.992   9.698  0.1218  0.1583 -0.0952
  160loPI   C4B 2560  17.225   9.964   9.333  0.2111 -0.1139  0.0089
  161loPI    C1 2561  15.517   5.872  11.423  0.0018  0.2241 -0.0557
  161loPI    C2 2562  15.879   5.962  11.567 -0.0386  0.1458  0.0974
  161loPI    C3 2563  15.556   6.150  11.709 -0.0704  0.1283  0.0481
  161loPI   PO4 2564  15.455   5.840  11.195  0.0900  0.2494 -0.0793
  161loPI   GL1 2565  15.231   5.779  10.868  0.1183 -0.2516  0.4546
  161loPI   GL2 2566  14.981   5.890  10.995  0.1966 -0.2496  0.1840
  161loPI   C1A 2567  15.336   5.710  10.500 -0.2813 -0.0807 -0.0258
  161loPI   C2A 2568  15.548   5.747  10.158  0.1707 -0.0328 -0.0162
  161loPI   C3A 2569  15.621   5.722   9.729 -0.1556 -0.0924  0.0733
  161loPI   C4A 2570  15.727   5.673   9.317 -0.0885 -0.1601 -0.2172
  161loPI   C5A 2571  15.852   5.714   8.875  0.1439 -0.2229  0.1616
  161loPI   C6A 2572  15.770   5.952   8.485 -0.0472  0.1868 -0.1119
  161loPI   C1B 2573  14.893   6.104  10.614 -0.1821  0.0868  0.2099
  161loPI   C2B 2574  14.957   6.030  10.132 -0.0369  0.1136  0.2353
  161loPI   C3B 2575  15.041   6.062   9.689 -0.1802  0.1773 -0.2901
  161loPI   C4B 2576  15.065   5.959   9.215  0.0094 -0.4553 -0.1630
  162loPI    C1 2577   6.415   5.130  11.469 -0.0118  0.1874 -0.0177
  162loPI    C2 2578   6.697   4.875  11.594 -0.2464  0.0026  0.1428
  162loPI    C3 2579   6.699   5.254  11.722 -0.0445  0.0151  0.1050
  162loPI   PO4 2580   6.411   5.038  11.202  0.1158 -0.0586  0.2356
  162loPI   GL1 2581   6.307   4.759  10.822 -0.0578 -0.0179  0.1446
  162loPI   GL2 2582   6.236   4.444  10.904 -0.2297  0.1116  0.3655
  162loPI   C1A 2583   6.451   4.807  10.416 -0.2158 -0.0063 -0.0445
  162loPI   C2A 2584   6.395   4.796   9.989  0.0873 -0.0016  0.0071
  162loPI   C3A 2585   6.465   4.718   9.509 -0.0095  0.1387  0.1960
  162loPI   C4A 2586   6.423   4.775   9.138  0.1319 -0.0569 -0.0066
  162loPI   C5A 2587   6.519   5.061   8.801 -0.0156 -0.1661  0.0959
  162loPI   C6A 2588   6.684   5.471   8.834  0.0254 -0.2353 -0.1033
  162loPI   C1B 2589   6.089   4.383  10.509  0.0502 -0.0224  0.0243
  162loPI   C2B 2590   6.174   4.321  10.186 -0.0148 -0.1181 -0.0146
  162loPI   C3B 2591   6.204   4.321   9.699 -0.0485  0.1133  0.4815
  162loPI   C4B 2592   6.236   4.322   9.224  0.2158 -0.1826  0.0738
  163loPI    C1 2593  10.508  17.464  11.806  0.0485  0.0220 -0.2461
  163loPI    C2 2594  10.548  17.116  11.614  0.1119 -0.0482 -0.1067
  163loPI    C3 2595  10.669  17.150  11.994  0.1113  0.1275 -0.1218
  163loPI   PO4 2596  10.623  17.608  11.584 -0.0434 -0.1319 -0.0337
  163loPI   GL1 2597  10.530  17.604  11.161 -0.1581 -0.1026  0.2349
  163loPI   GL2 2598  10.314  17.739  11.000 -0.1597 -0.1287  0.0466
  163loPI   C1A 2599  10.642  17.425  10.776  0.0687 -0.2653  0.1642
  163loPI   C2A 2600  10.690  17.242  10.453  0.3683 -0.0786 -0.2504
  163loPI   C3A 2601  10.751  17.255  10.084  0.1813  0.2667  0.1880
  163loPI   C4A 2602  10.606  17.275   9.706  0.0588  0.1851  0.2014
  163loPI   C5A 2603  10.640  17.305   9.231  0.0598  0.0059 -0.1787
  163loPI   C6A 2604  10.840  17.645   8.928 -0.0669  0.0725  0.0594
  163loPI   C1B 2605  10.415  17.764  10.516 -0.0868  0.1772  0.2450
  163loPI   C2B 2606  10.451  17.696  10.074 -0.1769 -0.2996 -0.0731
  163loPI   C3B 2607  10.364  17.780   9.668 -0.2173 -0.0894 -0.1384
  163loPI   C4B 2608  10.342  17.729   9.235 -0.0006 -0.3165  0.0364
  164loPI    C1 2609  11.603   1.460  11.705  0.0456 -0.0654 -0.1277
  164loPI    C2 2610  11.580   1.171  11.981  0.0007 -0.2337 -0.3051
  164loPI    C3 2611  11.728   1.530  12.079 -0.2499 -0.2090  0.0013
  164loPI   PO4 2612  11.691   1.354  11.536 -0.1465 -0.1923  0.2011
  164loPI   GL1 2613  11.573   1.226  11.122 -0.0912 -0.0159  0.3814
  164loPI   GL2 2614  11.469   1.010  10.985  0.0679 -0.2032  0.1255
  164loPI   C1A 2615  11.600   1.446  10.777 -0.2245 -0.0943 -0.1707
  164loPI   C2A 2616  11.653   1.404  10.349 -0.0660 -0.2103 -0.1444
  164loPI   C3A 2617  11.673   1.327   9.928  0.1801  0.1507  0.0158
  164loPI   C4A 2618  11.635   1.423   9.415  0.0616 -0.0800  0.3473
  164loPI   C5A 2619  11.632   1.361   9.063 -0.0807 -0.0412  0.0503
  164loPI   C6A 2620  11.304   1.057   8.860 -0.4608  0.1910 -0.0114
  164loPI   C1B 2621  11.443   0.924  10.621 -0.1490 -0.1245  0.2277
  164loPI   C2B 2622  11.398   0.995  10.164  0.0835  0.3962 -0.1224
  164loPI   C3B 2623  11.327   0.930   9.805  0.0611 -0.1794  0.0597
  164loPI   C4B 2624  11.335   0.975   9.376 -0.0617  0.1947 -0.0618
  165loPI    C1 2625   0.146  13.760  11.185 -0.2255 -0.2317 -0.0366
  165loPI    C2 2626  -0.181  13.987  11.223 -0.3462 -0.4157  0.0425
  165loPI    C3 2627   0.014  13.861  11.549 -0.0857 -0.1538 -0.0068
  165loPI   PO4 2628   0.292  13.850  10.950 -0.0448 -0.2185 -0.0959
  165loPI   GL1 2629   0.533  13.769  10.643  0.3927  0.3368 -0.2197
  165loPI   GL2 2630   0.664  13.456  10.493  0.1282  0.0196  0.1932
  165loPI   C1A 2631   0.587  13.889  10.235 -0.2163  0.0977  0.0299
  165loPI   C2A 2632   0.737  13.826   9.825  0.4931 -0.2299 -0.0424
  165loPI   C3A 2633   0.610  14.120   9.561  0.0636 -0.3218 -0.0786
  165loPI   C4A 2634   0.616  13.996   9.171  0.1226  0.2398 -0.0769
  165loPI   C5A 2635   0.634  13.814   8.770  0.1492 -0.0009 -0.2671
  165loPI   C6A 2636   1.007  13.518   8.667 -0.1242 -0.0902  0.2425
  165loPI   C1B 2637   0.666  13.401  10.044  0.1491  0.1735 -0.3543
  165loPI   C2B 2638   0.726  13.352   9.598 -0.1319 -0.3483  0.3353
  165loPI   C3B 2639   0.579  13.486   9.184 -0.3072 -0.1013 -0.3171
  165loPI   C4B 2640   0.510  13.304   8.858 -0.1960  0.2026  0.0228
  166loPI    C1 2641   7.057  12.177  11.316 -0.0521 -0.1013  0.0434
  166loPI    C2 2642   6.829  11.900  11.494  0.0277 -0.2695 -0.1126
  166loPI    C3 2643   7.196  11.977  11.634 -0.0128 -0.2069 -0.0396
  166loPI   PO4 2644   7.028  12.070  11.054  0.0411  0.0109 -0.0381
  166loPI   GL1 2645   7.071  11.825  10.670  0.1717  0.3463  0.2305
  166loPI   GL2 2646   6.996  11.582  10.674  0.1170  0.0492 -0.3213
  166loPI   C1A 2647   7.252  11.801  10.272 -0.0201 -0.0779  0.1057
  166loPI   C2A 2648   7.268  11.838   9.903 -0.0324  0.1332  0.0403
  166loPI   C3A 2649   7.191  11.876   9.463  0.2208  0.1449  0.3604
  166loPI   C4A 2650   7.287  11.895   9.043  0.2163  0.0243  0.1021
  166loPI   C5A 2651   7.038  11.700   8.708 -0.0538  0.1413 -0.0378
  166loPI   C6A 2652   6.571  11.633   8.712 -0.0728  0.1031 -0.3272
  166loPI   C1B 2653   6.722  11.494  10.403 -0.1364  0.2877 -0.0274
  166loPI   C2B 2654   6.849  11.539  10.020 -0.3468  0.1311  0.1809
  166loPI   C3B 2655   6.805  11.575   9.599  0.1717 -0.0747 -0.1897
  166loPI   C4B 2656   6.807  11.737   9.137 -0.0054  0.0027 -0.1490
  167loPI    C1 2657   9.476   7.402  11.518 -0.0893  0.0836  0.0697
  167loPI    C2 2658   9.214   7.254  11.781  0.0310 -0.0459  0.1184
  167loPI    C3 2659   9.601   7.279  11.878  0.0381  0.1416  0.0459
  167loPI   PO4 2660   9.420   7.293  11.258  0.1144 -0.0763 -0.0136
  167loPI   GL1 2661   9.250   7.497  10.986  0.0292 -0.1683  0.4074
  167loPI   GL2 2662   9.416   7.268  10.765  0.2213  0.1632  0.1561
  167loPI   C1A 2663   9.137   7.706  10.544 -0.0960 -0.1162  0.1826
  167loPI   C2A 2664   8.907   7.663  10.127  0.1988 -0.1146  0.0823
  167loPI   C3A 2665   8.822   7.507   9.667 -0.1219  0.0785 -0.0204
  167loPI   C4A 2666   8.913   7.459   9.315  0.1375 -0.2857 -0.2945
  167loPI   C5A 2667   8.992   7.354   8.890 -0.1547 -0.1001  0.3382
  167loPI   C6A 2668   9.138   7.357   8.492 -0.1270  0.0130 -0.0577
  167loPI   C1B 2669   9.565   7.334  10.485  0.1866 -0.0800  0.0481
  167loPI   C2B 2670   9.467   7.352  10.067  0.0390  0.2098  0.1380
  167loPI   C3B 2671   9.290   7.357   9.699  0.0625  0.1282  0.0046
  167loPI   C4B 2672   9.338   7.171   9.362  0.1396 -0.1406  0.0761
  168loPI    C1 2673   6.086  13.433  11.242 -0.3067  0.2380  0.0173
  168loPI    C2 2674   5.871  13.220  11.504  0.0704 -0.0298  0.1189
  168loPI    C3 2675   6.168  13.455  11.633 -0.0267  0.1821 -0.0363
  168loPI   PO4 2676   6.200  13.293  11.116  0.0261  0.0870  0.1797
  168loPI   GL1 2677   6.118  13.228  10.747  0.1259 -0.0369 -0.1915
  168loPI   GL2 2678   5.886  13.108  10.518  0.1588 -0.2060  0.1373
  168loPI   C1A 2679   6.207  13.373  10.396 -0.0430  0.1883  0.0515
  168loPI   C2A 2680   6.249  13.364   9.903 -0.2193  0.1436  0.0829
  168loPI   C3A 2681   6.152  13.373   9.486 -0.2132  0.0586 -0.0482
  168loPI   C4A 2682   6.184  13.257   9.041 -0.0163 -0.1556  0.1169
  168loPI   C5A 2683   6.072  13.496   8.625 -0.1720 -0.1261 -0.1444
  168loPI   C6A 2684   5.885  13.769   8.302 -0.0457 -0.3056 -0.0190
  168loPI   C1B 2685   5.802  13.059  10.069 -0.2723 -0.2088 -0.1425
  168loPI   C2B 2686   5.693  12.988   9.613  0.1695  0.2567 -0.0636
  168loPI   C3B 2687   5.752  13.083   9.229  0.0878  0.1920  0.2603
  168loPI   C4B 2688   5.693  13.178   8.825  0.0569  0.1382 -0.4572
  169loPI    C1 2689   2.222   5.536  11.652  0.1392  0.1920 -0.0097
  169loPI    C2 2690   2.148   5.796  11.947 -0.0672  0.1421 -0.0162
  169loPI    C3 2691   2.477   5.570  11.958 -0.0878  0.1210  0.1905
  169loPI   PO4 2692   2.177   5.689  11.380  0.2468 -0.0018  0.0267
  169loPI   GL1 2693   1.900   5.543  11.005 -0.2001 -0.0578 -0.2143
  169loPI   GL2 2694   1.645   5.652  10.918  0.0428 -0.2946  0.3843
  169loPI   C1A 2695   2.056   5.363  10.662  0.1310  0.1845 -0.1011
  169loPI   C2A 2696   1.878   5.429  10.226  0.0892 -0.1735  0.0112
  169loPI   C3A 2697   1.855   5.349   9.825  0.0809 -0.0906 -0.2722
  169loPI   C4A 2698   1.766   5.398   9.425 -0.1874  0.2787 -0.3348
  169loPI   C5A 2699   1.804   5.342   8.998 -0.1314 -0.0100 -0.3882
  169loPI   C6A 2700   1.917   5.105   8.660  0.1886 -0.1634 -0.1089
  169loPI   C1B 2701   1.848   5.884  10.561  0.0324  0.1318  0.0937
  169loPI   C2B 2702   1.935   5.974  10.100 -0.1720  0.0643 -0.0319
  169loPI   C3B 2703   1.745   5.895   9.659 -0.2606  0.0495  0.1567
  169loPI   C4B 2704   1.656   5.856   9.234  0.0588  0.0372  0.1147
  170loPI    C1 2705   0.243  13.413  11.542  0.0152 -0.0332  0.0874
  170loPI    C2 2706   0.571  13.640  11.561  0.0256 -0.0399 -0.0091
  170loPI    C3 2707   0.547  13.305  11.778  0.0774 -0.0330  0.0074
  170loPI   PO4 2708   0.182  13.256  11.287  0.0946 -0.1984 -0.0958
  170loPI   GL1 2709  -0.022  13.076  10.914  0.3735  0.2560  0.1185
  170loPI   GL2 2710   0.183  13.391  10.824 -0.2521 -0.2772 -0.0822
  170loPI   C1A 2711  -0.157  12.842  10.527 -0.2547 -0.2707  0.1010
  170loPI   C2A 2712  -0.116  12.827  10.041 -0.0212  0.1853 -0.2857
  170loPI   C3A 2713  -0.054  12.804   9.661  0.1221  0.3213 -0.0968
  170loPI   C4A 2714  -0.137  12.873   9.349 -0.0636  0.3472 -0.0334
  170loPI   C5A 2715  -0.178  12.896   8.903  0.0267 -0.0529  0.0781
  170loPI   C6A 2716  -0.079  12.559   8.639 -0.2005 -0.1808  0.0118
  170loPI   C1B 2717   0.200  13.628  10.272 -0.1242  0.0726  0.0949
  170loPI   C2B 2718   0.252  13.618   9.861  0.1201  0.0544  0.0286
  170loPI   C3B 2719   0.254  13.771   9.508 -0.0241  0.1892  0.1907
  170loPI   C4B 2720   0.220  13.784   9.010 -0.0607 -0.2911 -0.6653
  171loPI    C1 2721   7.767   6.395  11.372 -0.1713 -0.1663 -0.0395
  171loPI    C2 2722   7.955   6.451  11.721 -0.0573 -0.1039 -0.1105
  171loPI    C3 2723   7.564   6.366  11.716 -0.0892  0.0308  0.0268
  171loPI   PO4 2724   7.921   6.258  11.244 -0.1182  0.2215 -0.1808
  171loPI   GL1 2725   7.985   6.297  10.827 -0.3826  0.1101 -0.1683
  171loPI   GL2 2726   8.117   6.055  10.637  0.0057 -0.1264  0.1185
  171loPI   C1A 2727   8.222   6.529  10.578  0.2995  0.2434  0.0292
  171loPI   C2A 2728   8.220   6.496  10.136 -0.3282  0.1847  0.0160
  171loPI   C3A 2729   8.066   6.469   9.754  0.2363 -0.0719 -0.0587
  171loPI   C4A 2730   8.023   6.458   9.370  0.3396  0.2990 -0.0592
  171loPI   C5A 2731   8.157   6.289   8.869 -0.0687  0.2204  0.0399
  171loPI   C6A 2732   7.890   6.204   8.529 -0.4953 -0.2181  0.1662
  171loPI   C1B 2733   8.182   5.884  10.357 -0.1236  0.0472  0.3080
  171loPI   C2B 2734   8.287   5.968   9.885 -0.0574  0.0072 -0.1103
  171loPI   C3B 2735   8.548   6.262   9.565  0.0467 -0.2986 -0.0687
  171loPI   C4B 2736   8.564   6.273   9.163 -0.0564  0.0906  0.1844
  172loPI    C1 2737   4.053   2.501  11.645 -0.0254  0.0862 -0.0443
  172loPI    C2 2738   4.311   2.224  11.774 -0.0316  0.0671 -0.0728
  172loPI    C3 2739   4.060   2.398  12.031 -0.0472  0.0256 -0.0599
  172loPI   PO4 2740   3.960   2.433  11.352  0.2025 -0.2742 -0.1504
  172loPI   GL1 2741   4.155   2.340  10.972  0.0091  0.0643  0.0128
  172loPI   GL2 2742   4.423   2.084  10.880  0.0582  0.1261  0.1085
  172loPI   C1A 2743   4.178   2.440  10.446 -0.0517  0.0615 -0.2346
  172loPI   C2A 2744   4.192   2.496  10.003  0.0004  0.0990  0.0701
  172loPI   C3A 2745   4.174   2.540   9.577 -0.0583  0.0888 -0.0688
  172loPI   C4A 2746   4.401   2.430   9.265 -0.1070 -0.1618  0.1959
  172loPI   C5A 2747   4.676   2.331   8.885 -0.0327 -0.1227  0.4070
  172loPI   C6A 2748   4.703   2.553   8.485 -0.1484 -0.0680 -0.3101
  172loPI   C1B 2749   4.390   2.038  10.537  0.1095  0.1128  0.0611
  172loPI   C2B 2750   4.426   2.041  10.116  0.0713  0.1889  0.2308
  172loPI   C3B 2751   4.513   2.007   9.703  0.1749  0.1826  0.0846
  172loPI   C4B 2752   4.487   1.942   9.218  0.2401  0.0999 -0.0786
  173loPI    C1 2753  11.191   9.632  11.453 -0.0085  0.1342 -0.0884
  173loPI    C2 2754  11.548   9.464  11.388 -0.0854 -0.0477 -0.0454
  173loPI    C3 2755  11.490   9.692  11.711 -0.0427 -0.1180  0.0120
  173loPI   PO4 2756  11.186   9.741  11.121  0.1965  0.2012 -0.0189
  173loPI   GL1 2757  11.120  10.007  10.789 -0.0574  0.1545  0.1767
  173loPI   GL2 2758  11.448  10.160  10.823 -0.0332  0.2603  0.1484
  173loPI   C1A 2759  11.080  10.035  10.318  0.4034  0.4057  0.0895
  173loPI   C2A 2760  11.078  10.018   9.903 -0.0329  0.1823 -0.1387
  173loPI   C3A 2761  10.988   9.940   9.537 -0.0869 -0.2212  0.2496
  173loPI   C4A 2762  10.883   9.988   9.100 -0.0335 -0.1324  0.1605
  173loPI   C5A 2763  10.647  10.223   8.770  0.2052  0.1611 -0.0491
  173loPI   C6A 2764  10.284  10.271   8.946 -0.1387 -0.0811  0.3266
  173loPI   C1B 2765  11.464  10.359  10.385  0.2614 -0.4265 -0.2206
  173loPI   C2B 2766  11.479  10.302   9.993 -0.0796 -0.0105  0.5289
  173loPI   C3B 2767  11.421  10.200   9.515  0.1456  0.1835 -0.1781
  173loPI   C4B 2768  11.304  10.317   9.140  0.0614 -0.0740  0.0187
  174loPI    C1 2769  16.837   3.105  11.736  0.2750 -0.0452 -0.1198
  174loPI    C2 2770  16.585   3.073  12.045  0.2604  0.0409 -0.1226
  174loPI    C3 2771  16.967   3.174  12.108  0.2364  0.1434 -0.1406
  174loPI   PO4 2772  16.670   3.063  11.553  0.1357 -0.1581 -0.1378
  174loPI   GL1 2773  16.864   2.904  11.181 -0.2145 -0.1972 -0.0791
  174loPI   GL2 2774  16.603   2.704  11.195  0.0415 -0.1169 -0.0140
  174loPI   C1A 2775  17.051   2.858  10.869 -0.0760  0.0558  0.0842
  174loPI   C2A 2776  17.003   2.802  10.462  0.2010 -0.1234 -0.0899
  174loPI   C3A 2777  16.928   2.739  10.077  0.2157 -0.2243 -0.0296
  174loPI   C4A 2778  16.914   2.810   9.604  0.0997  0.0163  0.1266
  174loPI   C5A 2779  16.728   2.865   9.214  0.0712 -0.2101  0.2273
  174loPI   C6A 2780  16.268   2.640   9.021  0.0052  0.0625  0.0816
  174loPI   C1B 2781  16.384   2.895  10.958 -0.0906 -0.2008 -0.2544
  174loPI   C2B 2782  16.306   2.825  10.453 -0.4069  0.0152 -0.0776
  174loPI   C3B 2783  16.386   2.743  10.044  0.2985  0.0087  0.4184
  174loPI   C4B 2784  16.409   2.813   9.713  0.1054 -0.1885 -0.1709
  175loPI    C1 2785   3.466   3.615  11.754 -0.2288  0.0573 -0.0748
  175loPI    C2 2786   3.631   3.878  12.007  0.1096 -0.0665 -0.1610
  175loPI    C3 2787   3.440   3.556  12.149 -0.1557  0.1319 -0.0587
  175loPI   PO4 2788   3.719   3.581  11.583 -0.2082  0.1730  0.1360
  175loPI   GL1 2789   3.936   3.406  11.164 -0.2039  0.0822  0.0113
  175loPI   GL2 2790   4.260   3.270  11.135  0.1742 -0.1415 -0.3156
  175loPI   C1A 2791   3.729   3.326  10.754 -0.1183 -0.2547 -0.5186
  175loPI   C2A 2792   3.559   3.274  10.390 -0.3426 -0.1667 -0.3604
  175loPI   C3A 2793   3.607   3.380   9.853  0.1997  0.3107 -0.0771
  175loPI   C4A 2794   3.694   3.418   9.363 -0.0866  0.1083 -0.0906
  175loPI   C5A 2795   3.822   3.456   8.974 -0.1251  0.1527  0.0741
  175loPI   C6A 2796   4.239   3.621   8.828 -0.2042 -0.1432  0.2133
  175loPI   C1B 2797   4.198   3.389  10.649  0.1120  0.2551 -0.2832
  175loPI   C2B 2798   4.146   3.306  10.320 -0.2633 -0.0852 -0.1403
  175loPI   C3B 2799   4.183   3.362   9.843 -0.0209  0.0379  0.0367
  175loPI   C4B 2800   4.197   3.454   9.369  0.0428 -0.0949 -0.1021
  176loPI    C1 2801   1.357   6.843  11.349  0.1666  0.0513  0.1005
  176loPI    C2 2802   1.674   6.744  11.572  0.2059  0.1487  0.0884
  176loPI    C3 2803   1.356   6.916  11.742  0.0985 -0.0826  0.1259
  176loPI   PO4 2804   1.435   6.901  11.120  0.2069 -0.0876 -0.1912
  176loPI   GL1 2805   1.595   6.866  10.790  0.2424  0.0598  0.1626
  176loPI   GL2 2806   1.853   6.963  10.685  0.0572  0.0668  0.1388
  176loPI   C1A 2807   1.410   7.200  10.417 -0.0343  0.3677 -0.2261
  176loPI   C2A 2808   1.203   7.248  10.018 -0.0465 -0.0648  0.0097
  176loPI   C3A 2809   1.208   7.252   9.603 -0.3264  0.3178  0.1044
  176loPI   C4A 2810   1.245   7.268   9.123  0.2174  0.1136 -0.2104
  176loPI   C5A 2811   1.269   7.059   8.829  0.2561 -0.3495  0.0497
  176loPI   C6A 2812   1.519   6.913   8.565 -0.2555 -0.0045  0.2516
  176loPI   C1B 2813   1.828   6.979  10.236 -0.0823 -0.1363 -0.0003
  176loPI   C2B 2814   1.636   7.029   9.827  0.2828  0.0175  0.2735
  176loPI   C3B 2815   1.653   7.053   9.429 -0.1622 -0.3749  0.2572
  176loPI   C4B 2816   1.750   6.967   9.001 -0.0085  0.1345 -0.1280
  177loPI    C1 2817  12.253   2.006  11.793  0.2207  0.1457  0.0826
  177loPI    C2 2818  11.926   1.968  12.020  0.1426 -0.1284 -0.0715
  177loPI    C3 2819  12.288   1.976  12.191  0.0795 -0.2404  0.0692
  177loPI   PO4 2820  12.106   2.030  11.558  0.0025 -0.5183 -0.0822
  177loPI   GL1 2821  12.005   1.803  11.232 -0.0617  0.1983  0.0912
  177loPI   GL2 2822  12.007   1.486  11.097 -0.3036 -0.0407  0.1566
  177loPI   C1A 2823  11.858   1.894  10.868  0.1509  0.1647 -0.1293
  177loPI   C2A 2824  11.777   1.865  10.488 -0.1290  0.0885 -0.0372
  177loPI   C3A 2825  11.842   1.797  10.066  0.0256 -0.2691 -0.0855
  177loPI   C4A 2826  11.921   1.801   9.637 -0.0794  0.0238  0.1508
  177loPI   C5A 2827  11.955   1.762   9.198 -0.3720  0.1698  0.0166
  177loPI   C6A 2828  11.988   1.743   8.758  0.0726  0.2545 -0.1416
  177loPI   C1B 2829  12.074   1.475  10.703 -0.1548  0.3480  0.1224
  177loPI   C2B 2830  12.164   1.385  10.264 -0.0938 -0.0587  0.0385
  177loPI   C3B 2831  12.162   1.354   9.829  0.2385 -0.1299 -0.1453
  177loPI   C4B 2832  12.182   1.373   9.441 -0.1123 -0.0143  0.0626
  178loPI    C1 2833   4.225  16.836  11.496  0.0536  0.2141  0.0005
  178loPI    C2 2834   4.237  16.974  11.871  0.1258 -0.1269  0.1279
  178loPI    C3 2835   3.891  16.845  11.716  0.0885  0.0492  0.0619
  178loPI   PO4 2836   4.394  17.043  11.279  0.3902 -0.2122 -0.2350
  178loPI   GL1 2837   4.488  17.284  10.857  0.3586 -0.1153 -0.0226
  178loPI   GL2 2838   4.207  17.430  10.718 -0.2376 -0.1401  0.0281
  178loPI   C1A 2839   4.640  17.571  10.537  0.1225  0.1452  0.1387
  178loPI   C2A 2840   4.727  17.455  10.176 -0.1103 -0.5329 -0.3203
  178loPI   C3A 2841   4.759  17.477   9.769  0.0217  0.1229  0.1198
  178loPI   C4A 2842   4.844  17.483   9.425 -0.0121 -0.0633  0.0813
  178loPI   C5A 2843   4.903  17.459   8.993  0.0620  0.0114  0.0036
  178loPI   C6A 2844   4.584  17.311   8.598  0.0321  0.0574  0.1807
  178loPI   C1B 2845   4.201  17.485  10.303 -0.0245 -0.0909 -0.2317
  178loPI   C2B 2846   4.194  17.439   9.843  0.1676 -0.0760  0.0584
  178loPI   C3B 2847   4.246  17.368   9.431  0.1420 -0.0129  0.1930
  178loPI   C4B 2848   4.348  17.428   8.989  0.3646  0.0940 -0.0581
  179loPI    C1 2849  13.682  16.087  11.794 -0.3521 -0.2502  0.1337
  179loPI    C2 2850  13.957  15.810  11.883 -0.2262 -0.0976  0.2239
  179loPI    C3 2851  13.777  16.015  12.176  0.0129  0.2353  0.1434
  179loPI   PO4 2852  13.766  16.082  11.527 -0.0601 -0.1952 -0.3108
  179loPI   GL1 2853  13.729  16.095  11.077 -0.1955 -0.0624 -0.1359
  179loPI   GL2 2854  14.076  16.058  11.047 -0.0436 -0.0586  0.0657
  179loPI   C1A 2855  13.503  15.997  10.745 -0.2089  0.0881  0.0860
  179loPI   C2A 2856  13.573  16.021  10.315 -0.0994 -0.0966 -0.0755
  179loPI   C3A 2857  13.544  15.943   9.872 -0.0021 -0.4023 -0.3388
  179loPI   C4A 2858  13.455  15.897   9.457  0.0495 -0.1488 -0.2605
  179loPI   C5A 2859  13.571  15.992   9.068 -0.1092 -0.0919 -0.1431
  179loPI   C6A 2860  13.962  15.930   8.861  0.0527 -0.2345  0.1189
  179loPI   C1B 2861  14.031  15.935  10.575 -0.2318 -0.4646  0.0016
  179loPI   C2B 2862  14.041  15.968  10.206  0.1752  0.1340 -0.0907
  179loPI   C3B 2863  14.048  15.999   9.741 -0.0307  0.0957  0.0803
  179loPI   C4B 2864  13.990  15.947   9.330  0.1985  0.0792 -0.0879
  180loPI    C1 2865   6.490   4.344  11.513 -0.0271 -0.1120 -0.2308
  180loPI    C2 2866   6.233   4.620  11.380  0.1670  0.0309 -0.3141
  180loPI    C3 2867   6.248   4.534  11.770  0.1003  0.1332 -0.2884
  180loPI   PO4 2868   6.394   4.020  11.429  0.0110 -0.0204 -0.1408
  180loPI   GL1 2869   6.279   3.834  11.017 -0.0423 -0.4298  0.0229
  180loPI   GL2 2870   6.406   3.995  10.709  0.3267  0.1947  0.3649
  180loPI   C1A 2871   6.227   3.561  10.658 -0.1696 -0.2173  0.3043
  180loPI   C2A 2872   6.252   3.482  10.290  0.2340  0.1369 -0.0601
  180loPI   C3A 2873   6.261   3.441   9.843 -0.0717 -0.1795 -0.1692
  180loPI   C4A 2874   6.338   3.427   9.459 -0.4838 -0.0225 -0.1909
  180loPI   C5A 2875   6.227   3.503   9.064 -0.2477 -0.1209 -0.0725
  180loPI   C6A 2876   6.285   3.314   8.625 -0.1704 -0.3325 -0.1600
  180loPI   C1B 2877   6.479   3.977  10.328 -0.1132  0.0612 -0.0207
  180loPI   C2B 2878   6.441   3.926   9.845 -0.1838 -0.1417 -0.0338
  180loPI   C3B 2879   6.520   3.925   9.448 -0.0138 -0.2834  0.0173
  180loPI   C4B 2880   6.480   3.937   9.065 -0.2451  0.0646  0.2297
  181loPI    C1 2881  16.453  11.482  11.469  0.1356  0.1662 -0.1380
  181loPI    C2 2882  16.557  11.154  11.674 -0.1437  0.1263 -0.0570
  181loPI    C3 2883  16.325  11.432  11.845 -0.1108  0.2485 -0.2095
  181loPI   PO4 2884  16.418  11.449  11.243 -0.1023  0.1066 -0.0825
  181loPI   GL1 2885  16.498  11.494  10.871 -0.0399 -0.0263 -0.1653
  181loPI   GL2 2886  16.826  11.610  10.748 -0.3262 -0.0474 -0.0054
  181loPI   C1A 2887  16.288  11.424  10.462 -0.1527  0.0503  0.2149
  181loPI   C2A 2888  16.344  11.419   9.997 -0.4389  0.0402 -0.2538
  181loPI   C3A 2889  16.345  11.400   9.584  0.0868  0.4013 -0.2222
  181loPI   C4A 2890  16.203  11.334   9.234  0.1503 -0.0288  0.0115
  181loPI   C5A 2891  16.149  11.394   8.766 -0.1037 -0.0013  0.0991
  181loPI   C6A 2892  15.856  11.274   8.379 -0.0018  0.2524 -0.0585
  181loPI   C1B 2893  16.740  11.708  10.351 -0.1457  0.1388  0.2574
  181loPI   C2B 2894  16.818  11.669   9.939  0.2344  0.1398 -0.1537
  181loPI   C3B 2895  16.807  11.623   9.489  0.1066  0.2529  0.3103
  181loPI   C4B 2896  16.824  11.721   9.058 -0.0386 -0.1542  0.0536
  182loPI    C1 2897  15.466   5.296  11.706 -0.1219  0.1029 -0.1359
  182loPI    C2 2898  15.765   5.532  11.828  0.1111 -0.1796 -0.1497
  182loPI    C3 2899  15.386   5.659  11.853  0.2276  0.1661 -0.0948
  182loPI   PO4 2900  15.513   5.308  11.399 -0.0239  0.1057  0.1720
  182loPI   GL1 2901  15.749   5.524  11.042  0.1836  0.0341  0.2058
  182loPI   GL2 2902  15.930   5.194  11.039  0.0705  0.0847  0.0204
  182loPI   C1A 2903  15.766   5.431  10.514  0.0147 -0.0386 -0.0941
  182loPI   C2A 2904  15.944   5.492  10.053  0.0276 -0.2430 -0.1405
  182loPI   C3A 2905  16.072   5.507   9.686  0.2078  0.2170 -0.0053
  182loPI   C4A 2906  16.261   5.459   9.212 -0.0443  0.0387 -0.1489
  182loPI   C5A 2907  16.590   5.221   8.983  0.0730 -0.3504 -0.1569
  182loPI   C6A 2908  17.086   5.276   8.830 -0.1651  0.0286  0.0016
  182loPI   C1B 2909  16.070   5.097  10.594  0.0734  0.2622  0.0875
  182loPI   C2B 2910  16.146   5.075  10.206 -0.1062  0.2251 -0.0326
  182loPI   C3B 2911  16.141   5.023   9.750 -0.0576  0.1610  0.0069
  182loPI   C4B 2912  16.179   4.998   9.330 -0.0831 -0.3039  0.2488
  183loPI    C1 2913  14.285  16.464  11.522 -0.1384 -0.2713  0.0516
  183loPI    C2 2914  13.934  16.507  11.710 -0.1238 -0.0748  0.0360
  183loPI    C3 2915  14.219  16.273  11.867 -0.1021  0.1067  0.2726
  183loPI   PO4 2916  14.183  16.475  11.236 -0.2109  0.1760 -0.1323
  183loPI   GL1 2917  14.206  16.388  10.696 -0.1758  0.0931 -0.1354
  183loPI   GL2 2918  13.855  16.415  10.709  0.2755  0.2840  0.1834
  183loPI   C1A 2919  14.244  16.422  10.284  0.2487 -0.1640 -0.0409
  183loPI   C2A 2920  14.225  16.505   9.912 -0.0216  0.1361  0.2882
  183loPI   C3A 2921  14.192  16.479   9.484 -0.1844  0.2355 -0.1708
  183loPI   C4A 2922  14.245  16.430   9.008  0.1645  0.0257  0.0946
  183loPI   C5A 2923  14.302  16.693   8.643 -0.0279 -0.1079  0.0567
  183loPI   C6A 2924  14.578  16.924   8.365 -0.0139 -0.1190 -0.3176
  183loPI   C1B 2925  13.749  16.454  10.270  0.2173 -0.1695 -0.0212
  183loPI   C2B 2926  13.770  16.363   9.867  0.1115 -0.1032  0.0500
  183loPI   C3B 2927  13.691  16.438   9.394 -0.0131  0.1161  0.3298
  183loPI   C4B 2928  13.739  16.458   8.904 -0.1383 -0.0718 -0.1126
  184loPI    C1 2929   1.225   4.084  11.862 -0.0144 -0.1629  0.1696
  184loPI    C2 2930   1.015   4.225  12.173 -0.0846  0.1378 -0.0096
  184loPI    C3 2931   1.415   4.244  12.176 -0.0914  0.2895 -0.0063
  184loPI   PO4 2932   1.090   4.289  11.658 -0.1362 -0.3239  0.1071
  184loPI   GL1 2933   0.856   4.313  11.248 -0.0834 -0.0193  0.3800
  184loPI   GL2 2934   0.854   4.631  11.260  0.1891 -0.2434  0.2424
  184loPI   C1A 2935   1.079   4.323  10.737 -0.1929 -0.0353  0.3098
  184loPI   C2A 2936   1.081   4.282  10.220 -0.1116  0.0319  0.0375
  184loPI   C3A 2937   1.012   4.261   9.785 -0.0491 -0.2385  0.3434
  184loPI   C4A 2938   0.962   4.188   9.316 -0.1608  0.2508  0.3580
  184loPI   C5A 2939   1.110   4.114   8.871 -0.1190  0.1171 -0.1907
  184loPI   C6A 2940   1.449   4.265   8.505 -0.3188  0.1350 -0.1535
  184loPI   C1B 2941   0.663   4.637  10.850 -0.1972  0.0157  0.0466
  184loPI   C2B 2942   0.703   4.660  10.395 -0.3332  0.0467  0.0486
  184loPI   C3B 2943   0.747   4.700   9.953 -0.2361 -0.1927  0.3490
  184loPI   C4B 2944   0.921   4.921   9.565 -0.0823 -0.2803 -0.0109
  185loPI    C1 2945   5.418   4.896  11.525 -0.1399  0.2237 -0.0637
  185loPI    C2 2946   5.119   5.078  11.718 -0.4157 -0.2584 -0.0209
  185loPI    C3 2947   5.433   4.938  11.923 -0.1703  0.2130 -0.0614
  185loPI   PO4 2948   5.488   5.046  11.386 -0.0899  0.1956  0.3595
  185loPI   GL1 2949   5.455   5.326  10.961  0.3402  0.0329  0.1935
  185loPI   GL2 2950   5.095   5.523  10.926  0.2551  0.1368 -0.1860
  185loPI   C1A 2951   5.703   5.401  10.535  0.1458 -0.1656 -0.1183
  185loPI   C2A 2952   5.669   5.312  10.147 -0.0866 -0.1038  0.0024
  185loPI   C3A 2953   5.683   5.246   9.789 -0.0246 -0.0355  0.0463
  185loPI   C4A 2954   5.673   5.257   9.275  0.0126  0.0595  0.1062
  185loPI   C5A 2955   5.502   5.160   8.869  0.1598 -0.0985  0.0663
  185loPI   C6A 2956   5.451   5.100   8.424 -0.0543 -0.1639 -0.0604
  185loPI   C1B 2957   5.220   5.339  10.464  0.2501  0.2329  0.1438
  185loPI   C2B 2958   5.126   5.293   9.991 -0.0091 -0.0046 -0.2519
  185loPI   C3B 2959   5.143   5.222   9.622  0.2841  0.1246  0.0803
  185loPI   C4B 2960   5.118   5.102   9.160 -0.1383 -0.1607 -0.2516
  186loPI    C1 2961  12.223  16.625  11.733  0.1358  0.0587  0.0630
  186loPI    C2 2962  12.430  16.320  11.888 -0.0253 -0.0901 -0.0111
  186loPI    C3 2963  12.314  16.623  12.123 -0.0080 -0.1666  0.0971
  186loPI   PO4 2964  12.420  16.779  11.550  0.2106 -0.1894  0.1697
  186loPI   GL1 2965  12.426  16.883  11.105  0.4726 -0.0150  0.4147
  186loPI   GL2 2966  12.737  16.710  11.079 -0.2335  0.0875  0.1569
  186loPI   C1A 2967  12.438  16.808  10.672  0.0307  0.1417 -0.2925
  186loPI   C2A 2968  12.416  16.827  10.311  0.1778 -0.1420  0.3686
  186loPI   C3A 2969  12.460  16.877   9.854 -0.0080  0.0744 -0.2553
  186loPI   C4A 2970  12.486  16.731   9.429 -0.1891  0.1122  0.2063
  186loPI   C5A 2971  12.431  16.883   9.032  0.3264 -0.3253  0.1571
  186loPI   C6A 2972  12.648  16.851   8.658  0.2097 -0.0091  0.2714
  186loPI   C1B 2973  12.988  16.837  10.727  0.2391  0.1248 -0.3124
  186loPI   C2B 2974  12.978  16.772  10.297 -0.2814  0.0370  0.2363
  186loPI   C3B 2975  12.989  16.811   9.926 -0.0782  0.2184  0.2026
  186loPI   C4B 2976  12.972  16.858   9.554  0.0463 -0.0757 -0.0942
  187loPI    C1 2977   9.514   0.558  11.732 -0.1035  0.2372 -0.0958
  187loPI    C2 2978   9.208   0.470  11.974  0.0379  0.2035  0.0720
  187loPI    C3 2979   9.544   0.253  11.989  0.0062  0.1283 -0.2359
  187loPI   PO4 2980   9.419   0.549  11.504  0.0215 -0.1024 -0.1667
  187loPI   GL1 2981   9.341   0.481  11.091  0.2952  0.3373 -0.1295
  187loPI   GL2 2982   9.286   0.087  11.063  0.4888  0.1159  0.3294
  187loPI   C1A 2983   9.530   0.433  10.632 -0.0762  0.0938  0.0413
  187loPI   C2A 2984   9.660   0.420  10.215 -0.0287 -0.1654  0.0179
  187loPI   C3A 2985   9.647   0.425   9.702 -0.1437 -0.0325  0.0287
  187loPI   C4A 2986   9.589   0.443   9.306 -0.0870  0.2907  0.0526
  187loPI   C5A 2987   9.632   0.591   8.859 -0.2033 -0.1210  0.1255
  187loPI   C6A 2988   9.630   0.682   8.403 -0.2034  0.1051  0.0568
  187loPI   C1B 2989   9.360  -0.013  10.607  0.3975 -0.3636 -0.0116
  187loPI   C2B 2990   9.428   0.005  10.146  0.0091 -0.0891  0.2192
  187loPI   C3B 2991   9.418   0.020   9.692 -0.1045  0.1151 -0.2407
  187loPI   C4B 2992   9.407  -0.013   9.253  0.0554  0.2009  0.1757
  188loPI    C1 2993   7.193  15.628  11.288 -0.2244  0.2876  0.1766
  188loPI    C2 2994   6.825  15.492  11.215  0.0218 -0.2834 -0.0601
  188loPI    C3 2995   7.022  15.370  11.541 -0.0642  0.1752  0.1719
  188loPI   PO4 2996   7.244  15.927  11.149  0.0369  0.0177  0.1538
  188loPI   GL1 2997   7.279  15.945  10.738 -0.1912  0.0686 -0.4234
  188loPI   GL2 2998   7.100  16.254  10.798 -0.3198 -0.0428  0.3777
  188loPI   C1A 2999   7.404  15.841  10.272  0.2399 -0.1122 -0.1514
  188loPI   C2A 3000   7.423  15.842   9.833  0.2432  0.0806  0.3444
  188loPI   C3A 3001   7.422  15.763   9.431 -0.0872 -0.2205  0.0871
  188loPI   C4A 3002   7.397  15.838   9.045 -0.0942 -0.1458 -0.0445
  188loPI   C5A 3003   7.642  15.882   8.665 -0.1174 -0.0733  0.0534
  188loPI   C6A 3004   8.107  15.939   8.569  0.1864 -0.0473  0.2281
  188loPI   C1B 3005   7.096  16.312  10.327  0.1285 -0.1036  0.0581
  188loPI   C2B 3006   7.167  16.304   9.858 -0.1040  0.1215  0.1034
  188loPI   C3B 3007   7.150  16.176   9.391 -0.0649 -0.0488 -0.0160
  188loPI   C4B 3008   7.050  16.186   8.892 -0.1805 -0.1706 -0.1766
  189loPI    C1 3009  10.776   2.284  11.480  0.1066  0.0213 -0.1115
  189loPI    C2 3010  10.493   2.526  11.625  0.2220  0.0989 -0.0135
  189loPI    C3 3011  10.832   2.471  11.829  0.0339 -0.4597  0.1672
  189loPI   PO4 3012  10.774   2.294  11.169  0.0824 -0.0647 -0.0999
  189loPI   GL1 3013  11.040   2.520  10.975  0.1201 -0.1286  0.2390
  189loPI   GL2 3014  10.861   2.816  10.764  0.0171  0.0046  0.1923
  189loPI   C1A 3015  11.132   2.335  10.511  0.1400 -0.0264  0.0646
  189loPI   C2A 3016  11.095   2.335  10.146 -0.2506 -0.2825 -0.3074
  189loPI   C3A 3017  11.128   2.301   9.683 -0.1687  0.0290  0.1283
  189loPI   C4A 3018  10.999   2.278   9.283  0.1362 -0.1740 -0.0337
  189loPI   C5A 3019  10.939   2.346   8.874 -0.0843 -0.1514 -0.1785
  189loPI   C6A 3020  10.696   2.608   8.587 -0.1198  0.1479 -0.2108
  189loPI   C1B 3021  10.790   2.697  10.351  0.1812 -0.0058 -0.1240
  189loPI   C2B 3022  10.852   2.751   9.919 -0.0370 -0.0069 -0.0011
  189loPI   C3B 3023  10.839   2.726   9.494  0.1602  0.1741 -0.0514
  189loPI   C4B 3024  10.731   2.723   9.089  0.1961  0.0848  0.0937
  190loPI    C1 3025   3.450  16.726  11.380  0.0582  0.1065 -0.1511
  190loPI    C2 3026   3.199  16.498  11.591 -0.0788  0.0219 -0.4012
  190loPI    C3 3027   3.594  16.467  11.649 -0.1211  0.1372 -0.0240
  190loPI   PO4 3028   3.404  16.724  11.129  0.2513  0.1311 -0.0720
  190loPI   GL1 3029   3.355  16.458  10.762 -0.2141  0.1777  0.0989
  190loPI   GL2 3030   3.676  16.664  10.711 -0.0965  0.0152 -0.0142
  190loPI   C1A 3031   3.248  16.579  10.411 -0.1466 -0.1276 -0.3146
  190loPI   C2A 3032   3.285  16.532  10.038 -0.0344 -0.2959 -0.3142
  190loPI   C3A 3033   3.367  16.554   9.573 -0.1057 -0.1071  0.0715
  190loPI   C4A 3034   3.268  16.502   9.139  0.0763 -0.0996 -0.0520
  190loPI   C5A 3035   3.451  16.435   8.764 -0.0372 -0.0823  0.4405
  190loPI   C6A 3036   3.268  16.279   8.391  0.3917  0.1135 -0.1441
  190loPI   C1B 3037   3.726  16.542  10.217 -0.0396  0.0417 -0.1022
  190loPI   C2B 3038   3.813  16.522   9.847  0.5057  0.2710 -0.0137
  190loPI   C3B 3039   3.808  16.512   9.389 -0.1211 -0.0117  0.1896
  190loPI   C4B 3040   3.887  16.474   8.965  0.2125 -0.2551 -0.1114
  191loPI    C1 3041  12.311   5.118  11.794 -0.1902 -0.4039 -0.1444
  191loPI    C2 3042  12.294   4.873  12.110  0.1443  0.0562  0.2449
  191loPI    C3 3043  12.060   5.197  12.096  0.1180  0.0288  0.0072
  191loPI   PO4 3044  12.289   4.949  11.503 -0.1330 -0.1978 -0.2411
  191loPI   GL1 3045  12.369   4.890  10.956  0.0312 -0.2066  0.0550
  191loPI   GL2 3046  12.152   4.871  10.849  0.0781  0.1576 -0.0893
  191loPI   C1A 3047  12.655   4.975  10.496  0.0067 -0.1895  0.1445
  191loPI   C2A 3048  12.636   5.016  10.108 -0.4681  0.1633 -0.2070
  191loPI   C3A 3049  12.971   5.191   9.801  0.0830  0.2668 -0.2806
  191loPI   C4A 3050  13.020   5.007   9.461 -0.2032  0.1043 -0.0942
  191loPI   C5A 3051  13.002   4.910   8.998 -0.1591  0.2805  0.5323
  191loPI   C6A 3052  12.821   5.193   8.681 -0.1395  0.0466  0.4320
  191loPI   C1B 3053  12.353   4.624  10.444  0.1161  0.3328 -0.1879
  191loPI   C2B 3054  12.340   4.607   9.970 -0.0881  0.1331 -0.3919
  191loPI   C3B 3055  12.303   4.581   9.593  0.0119  0.0396  0.2462
  191loPI   C4B 3056  12.244   4.476   9.136 -0.0965 -0.2803 -0.0067
  192loPI    C1 3057   5.566   6.355  11.381  0.1691 -0.1875  0.0679
  192loPI    C2 3058   5.739   6.287  11.735  0.2098 -0.0826  0.0684
  192loPI    C3 3059   5.606   6.653  11.644 -0.0483 -0.1703  0.0838
  192loPI   PO4 3060   5.713   6.303  11.213  0.1015  0.2693  0.1328
  192loPI   GL1 3061   5.771   6.206  10.834 -0.2469  0.0152  0.2058
  192loPI   GL2 3062   5.897   6.510  10.726  0.0139  0.4985  0.0540
  192loPI   C1A 3063   5.480   6.257  10.487  0.2240 -0.0049 -0.3968
  192loPI   C2A 3064   5.382   6.249  10.097 -0.1345  0.0978  0.2743
  192loPI   C3A 3065   5.327   6.200   9.646 -0.0540 -0.2208  0.0036
  192loPI   C4A 3066   5.357   6.307   9.194  0.0422  0.1153  0.1570
  192loPI   C5A 3067   5.453   6.003   8.894  0.0448  0.2498  0.1307
  192loPI   C6A 3068   5.342   5.882   8.466  0.2831 -0.0383 -0.1733
  192loPI   C1B 3069   5.841   6.446  10.255 -0.4272 -0.0661 -0.0553
  192loPI   C2B 3070   5.837   6.379   9.873 -0.1399 -0.1484 -0.0522
  192loPI   C3B 3071   5.735   6.542   9.523 -0.0859 -0.0497 -0.1275
  192loPI   C4B 3072   5.867   6.660   9.072  0.0303 -0.0205  0.0132
  193loPI    C1 3073   4.547   9.885  11.633  0.3556 -0.2051 -0.1017
  193loPI    C2 3074   4.743  10.217  11.739  0.1149 -0.1112  0.0551
  193loPI    C3 3075   4.569   9.989  12.018  0.1151 -0.2664 -0.0699
  193loPI   PO4 3076   4.456  10.050  11.360  0.1516  0.2666  0.1538
  193loPI   GL1 3077   4.496   9.900  11.061  0.0403  0.1314 -0.1237
  193loPI   GL2 3078   4.870   9.930  11.018  0.1887 -0.3441  0.3156
  193loPI   C1A 3079   4.355   9.845  10.661 -0.0296  0.0308  0.1958
  193loPI   C2A 3080   4.190   9.756  10.254  0.1996 -0.1048  0.2280
  193loPI   C3A 3081   4.237   9.844   9.841 -0.2008 -0.0026  0.2549
  193loPI   C4A 3082   4.137   9.734   9.417  0.2110 -0.0822  0.2112
  193loPI   C5A 3083   4.073   9.789   9.023  0.0734 -0.0633  0.0730
  193loPI   C6A 3084   4.020  10.118   8.640 -0.1219  0.3032 -0.1255
  193loPI   C1B 3085   4.712  10.183  10.667 -0.1444 -0.0571 -0.0023
  193loPI   C2B 3086   4.637  10.092  10.292  0.0461 -0.3328 -0.2521
  193loPI   C3B 3087   4.720  10.121   9.810 -0.0690 -0.0492  0.2548
  193loPI   C4B 3088   4.661  10.033   9.371  0.1127  0.0544  0.0901
  194loPI    C1 3089   6.124  11.288  11.350 -0.1269  0.1507 -0.0840
  194loPI    C2 3090   6.198  11.527  11.662 -0.0113 -0.1572  0.1294
  194loPI    C3 3091   6.277  11.136  11.686 -0.3520 -0.2494 -0.1561
  194loPI   PO4 3092   5.960  11.378  11.218 -0.0809 -0.5412 -0.0734
  194loPI   GL1 3093   5.948  11.722  10.890  0.0974 -0.0282 -0.0683
  194loPI   GL2 3094   5.844  11.465  10.726  0.3023  0.1811  0.0610
  194loPI   C1A 3095   6.226  11.704  10.508  0.2031 -0.4346 -0.0681
  194loPI   C2A 3096   6.362  11.761  10.068  0.1753 -0.1703 -0.0954
  194loPI   C3A 3097   6.380  11.779   9.726  0.1083  0.1969  0.0370
  194loPI   C4A 3098   6.289  11.838   9.333 -0.1577 -0.3040  0.1693
  194loPI   C5A 3099   6.232  12.036   8.882  0.0520  0.0516 -0.5105
  194loPI   C6A 3100   6.256  11.970   8.531  0.0182 -0.2307  0.2579
  194loPI   C1B 3101   5.850  11.424  10.257 -0.0061  0.1450  0.0486
  194loPI   C2B 3102   5.901  11.515   9.854 -0.1805  0.2375 -0.0528
  194loPI   C3B 3103   5.893  11.484   9.419  0.1589  0.0434 -0.0371
  194loPI   C4B 3104   5.934  11.588   8.907 -0.0346 -0.0019  0.2828
  195loPI    C1 3105  17.033   3.625  11.869 -0.2251 -0.4045  0.1363
  195loPI    C2 3106  17.260   3.650  12.197 -0.1637  0.1582  0.0602
  195loPI    C3 3107  17.067   3.973  12.063 -0.2638 -0.0875 -0.4066
  195loPI   PO4 3108  17.218   3.428  11.705 -0.0475 -0.2679 -0.2008
  195loPI   GL1 3109  17.300   3.111  11.406 -0.2108  0.2356  0.0840
  195loPI   GL2 3110  17.159   3.337  11.153  0.1032  0.2480  0.2642
  195loPI   C1A 3111  17.580   3.219  11.028 -0.0931  0.2047  0.0042
  195loPI   C2A 3112  17.824   3.263  10.674 -0.1382  0.0470 -0.3383
  195loPI   C3A 3113  17.779   3.285  10.235 -0.2615  0.1326  0.0052
  195loPI   C4A 3114  17.650   3.212   9.846 -0.0347  0.2525  0.2608
  195loPI   C5A 3115  17.723   3.299   9.439 -0.1368  0.1576 -0.0748
  195loPI   C6A 3116  17.663   3.245   9.044  0.1798  0.0812  0.1693
  195loPI   C1B 3117  17.218   3.280  10.646 -0.4811  0.0617  0.0317
  195loPI   C2B 3118  17.263   3.305  10.149  0.1385  0.1317  0.1317
  195loPI   C3B 3119  17.151   3.208   9.765 -0.0415 -0.2040 -0.1301
  195loPI   C4B 3120  17.143   3.201   9.282 -0.2673 -0.1507 -0.0984
  196loPI    C1 3121   4.466   5.129  11.487  0.2849 -0.2565 -0.1084
  196loPI    C2 3122   4.165   5.095  11.748  0.0443  0.0404 -0.3403
  196loPI    C3 3123   4.543   5.068  11.875 -0.0743 -0.1587 -0.0180
  196loPI   PO4 3124   4.370   5.049  11.204 -0.0127  0.1498 -0.1230
  196loPI   GL1 3125   4.267   4.818  10.954  0.0677 -0.1440  0.3097
  196loPI   GL2 3126   3.929   4.690  10.888 -0.0627 -0.1297  0.1667
  196loPI   C1A 3127   4.465   4.729  10.555  0.1379 -0.1726  0.0944
  196loPI   C2A 3128   4.525   4.759  10.238 -0.3154  0.2121  0.2658
  196loPI   C3A 3129   4.477   4.739   9.793 -0.1005  0.1412 -0.0040
  196loPI   C4A 3130   4.523   4.690   9.295 -0.0448  0.1582  0.1100
  196loPI   C5A 3131   4.337   4.604   8.900  0.1871  0.1677  0.0202
  196loPI   C6A 3132   4.138   4.569   8.393  0.0124  0.2150 -0.2087
  196loPI   C1B 3133   3.947   4.682  10.475 -0.0904 -0.5509 -0.0343
  196loPI   C2B 3134   3.994   4.708  10.042  0.4023  0.0751 -0.1498
  196loPI   C3B 3135   3.983   4.821   9.660 -0.0909  0.0328 -0.3186
  196loPI   C4B 3136   3.699   4.741   9.263 -0.0914  0.0634 -0.1508
  197loPI    C1 3137  17.252  13.092  11.356  0.0832 -0.4576  0.3047
  197loPI    C2 3138  17.061  13.296  11.643 -0.0857 -0.0900 -0.0578
  197loPI    C3 3139  17.459  13.313  11.617 -0.1080  0.3387 -0.1827
  197loPI   PO4 3140  17.053  13.202  11.152 -0.1322 -0.1158  0.1762
  197loPI   GL1 3141  17.125  13.237  10.875 -0.1293 -0.2177  0.1230
  197loPI   GL2 3142  17.112  13.547  10.776 -0.0790 -0.1031 -0.2228
  197loPI   C1A 3143  17.383  13.310  10.480  0.0493 -0.2216  0.0525
  197loPI   C2A 3144  17.535  13.326  10.059 -0.1062  0.0543  0.3370
  197loPI   C3A 3145  17.541  13.456   9.632 -0.1054  0.2471  0.0707
  197loPI   C4A 3146  17.440  13.600   9.186 -0.2131  0.0943  0.0446
  197loPI   C5A 3147  17.425  13.878   8.892  0.4501 -0.2261  0.3834
  197loPI   C6A 3148  17.695  14.280   8.868 -0.1469  0.0370 -0.0024
  197loPI   C1B 3149  16.994  13.593  10.307  0.0767  0.1258 -0.1764
  197loPI   C2B 3150  17.026  13.582   9.877  0.0704 -0.2253  0.1189
  197loPI   C3B 3151  16.945  13.674   9.436 -0.0294 -0.1069 -0.0224
  197loPI   C4B 3152  16.969  13.933   9.066 -0.1620  0.0294 -0.1782
  198loPI    C1 3153   0.026   7.999  11.821 -0.1848 -0.0304 -0.0048
  198loPI    C2 3154   0.019   8.397  11.858  0.0075 -0.0259 -0.0109
  198loPI    C3 3155   0.088   8.168  12.178 -0.0821 -0.0535 -0.0113
  198loPI   PO4 3156  -0.020   7.954  11.499  0.0176 -0.2083 -0.1523
  198loPI   GL1 3157   0.001   7.918  11.077 -0.3598 -0.1853 -0.1700
  198loPI   GL2 3158   0.023   7.575  10.975 -0.1206 -0.1014 -0.0618
  198loPI   C1A 3159  -0.019   7.948  10.652  0.0841  0.2243  0.1351
  198loPI   C2A 3160  -0.099   7.927  10.260  0.3343  0.1104  0.1972
  198loPI   C3A 3161  -0.053   7.933   9.751 -0.1393  0.0257  0.0688
  198loPI   C4A 3162  -0.223   7.865   9.397 -0.0257  0.0877  0.4893
  198loPI   C5A 3163  -0.052   7.956   8.998 -0.0022  0.2308 -0.2924
  198loPI   C6A 3164   0.252   8.048   8.656 -0.1179 -0.1567  0.1777
  198loPI   C1B 3165  -0.015   7.477  10.524 -0.2191 -0.3061  0.0159
  198loPI   C2B 3166   0.019   7.467  10.093  0.1926 -0.0655 -0.1702
  198loPI   C3B 3167  -0.031   7.371   9.750  0.0479  0.0866  0.2472
  198loPI   C4B 3168  -0.098   7.428   9.350 -0.1520 -0.0028 -0.1491
  199loPI    C1 3169   1.580   9.983  11.505 -0.1400  0.3112  0.2042
  199loPI    C2 3170   1.934   9.911  11.676 -0.0828  0.0905 -0.0028
  199loPI    C3 3171   1.597   9.801  11.861 -0.0252 -0.0694  0.0092
  199loPI   PO4 3172   1.615  10.054  11.252 -0.2636 -0.1317  0.0914
  199loPI   GL1 3173   1.581  10.097  10.792 -0.0487 -0.2571  0.2018
  199loPI   GL2 3174   1.315  10.002  10.875  0.1071  0.1816  0.2400
  199loPI   C1A 3175   1.531  10.107  10.337  0.1184 -0.3009 -0.0835
  199loPI   C2A 3176   1.517  10.168   9.928 -0.2632 -0.0142  0.2005
  199loPI   C3A 3177   1.455  10.103   9.464  0.0059 -0.1161 -0.1872
  199loPI   C4A 3178   1.351  10.160   9.030  0.0195 -0.2311  0.3659
  199loPI   C5A 3179   1.309  10.178   8.566 -0.1629  0.0826  0.2484
  199loPI   C6A 3180   1.553  10.153   8.176 -0.1953  0.0519  0.2260
  199loPI   C1B 3181   1.086   9.732  10.584  0.0640  0.2375  0.1622
  199loPI   C2B 3182   1.209   9.843  10.141 -0.1918  0.2389 -0.1970
  199loPI   C3B 3183   1.108   9.804   9.761 -0.0665  0.0934  0.0029
  199loPI   C4B 3184   1.027   9.817   9.328 -0.0345  0.1789 -0.3503
  200loPI    C1 3185  13.154  13.827  11.614 -0.2627  0.0715 -0.1141
  200loPI    C2 3186  13.083  14.029  11.952  0.0107 -0.0092 -0.0062
  200loPI    C3 3187  13.146  13.634  11.964  0.4061  0.0473 -0.1009
  200loPI   PO4 3188  12.968  13.902  11.431  0.1822 -0.0458  0.1084
  200loPI   GL1 3189  12.861  13.945  10.996  0.1035 -0.2912  0.0057
  200loPI   GL2 3190  13.167  13.878  10.947  0.1252  0.1029  0.3031
  200loPI   C1A 3191  12.815  13.836  10.589  0.1509 -0.0949 -0.2791
  200loPI   C2A 3192  12.822  13.679  10.136  0.1961 -0.2386  0.0757
  200loPI   C3A 3193  12.834  13.615   9.735 -0.0516  0.1211 -0.0678
  200loPI   C4A 3194  12.963  13.571   9.272  0.0771 -0.1662  0.1713
  200loPI   C5A 3195  13.054  13.376   8.920 -0.1920  0.0497 -0.0924
  200loPI   C6A 3196  13.387  13.338   8.502  0.1698  0.0923 -0.0446
  200loPI   C1B 3197  13.268  13.762  10.423  0.2923  0.0535  0.2516
  200loPI   C2B 3198  13.291  13.711   9.997 -0.2013 -0.1773  0.2093
  200loPI   C3B 3199  13.371  13.765   9.592  0.1536 -0.1469 -0.0793
  200loPI   C4B 3200  13.450  13.760   9.171  0.0621  0.2260  0.0460
  201loPI    C1 3201   5.400   7.698  11.460 -0.0792  0.2313 -0.0727
  201loPI    C2 3202   5.614   7.974  11.654  0.0547  0.1416 -0.0918
  201loPI    C3 3203   5.798   7.666  11.476 -0.1056 -0.0529  0.0741
  201loPI   PO4 3204   5.210   7.820  11.221  0.2034  0.2966  0.0056
  201loPI   GL1 3205   4.995   7.694  10.967  0.1454 -0.1322  0.1757
  201loPI   GL2 3206   4.893   7.903  10.844  0.2075 -0.2354 -0.2668
  201loPI   C1A 3207   4.902   7.462  10.549 -0.1040 -0.0460  0.0385
  201loPI   C2A 3208   4.860   7.460  10.105 -0.1088  0.2479  0.1449
  201loPI   C3A 3209   4.804   7.525   9.682  0.3446 -0.0222 -0.0029
  201loPI   C4A 3210   4.758   7.559   9.291  0.2092  0.1832  0.2094
  201loPI   C5A 3211   4.818   7.695   8.866 -0.1594  0.0654  0.2709
  201loPI   C6A 3212   5.240   7.907   8.715 -0.0437  0.1342  0.2893
  201loPI   C1B 3213   4.811   7.910  10.344 -0.0763 -0.1643 -0.0133
  201loPI   C2B 3214   4.834   7.995   9.898 -0.1399  0.0910 -0.1449
  201loPI   C3B 3215   4.783   8.010   9.552 -0.0976 -0.0631  0.1006
  201loPI   C4B 3216   4.782   8.077   9.160 -0.4059 -0.0180  0.1550
  202loPI    C1 3217  16.594   9.863  11.405 -0.1817  0.0134  0.0341
  202loPI    C2 3218  16.848  10.103  11.601  0.1092 -0.2689  0.0103
  202loPI    C3 3219  16.771   9.736  11.740  0.2481 -0.4397 -0.3505
  202loPI   PO4 3220  16.627   9.895  11.133  0.0158 -0.0493 -0.3577
  202loPI   GL1 3221  16.874  10.085  10.793  0.0784 -0.0644 -0.0010
  202loPI   GL2 3222  16.581  10.230  10.749 -0.0569  0.3730 -0.1233
  202loPI   C1A 3223  16.969  10.127  10.386 -0.0355  0.0347  0.0299
  202loPI   C2A 3224  16.983  10.157   9.949 -0.1207 -0.1366  0.0748
  202loPI   C3A 3225  16.759  10.158   9.532 -0.1303  0.0877  0.0230
  202loPI   C4A 3226  16.789  10.130   9.066  0.4212  0.1982  0.1192
  202loPI   C5A 3227  17.013  10.025   8.738  0.0715 -0.0126  0.0270
  202loPI   C6A 3228  17.289   9.732   8.683 -0.2204 -0.2138  0.0544
  202loPI   C1B 3229  16.402  10.325  10.554  0.0299  0.2952 -0.0493
  202loPI   C2B 3230  16.350  10.368  10.101 -0.2624 -0.0415  0.1080
  202loPI   C3B 3231  16.333  10.364   9.632  0.1659  0.2533 -0.1145
  202loPI   C4B 3232  16.372  10.404   9.163  0.1851  0.3541  0.4160
  203loPI    C1 3233   0.206  16.111  11.701 -0.1145 -0.3834 -0.1516
  203loPI    C2 3234   0.079  15.865  11.990 -0.0007  0.0844  0.3121
  203loPI    C3 3235  -0.130  16.194  11.900  0.0924  0.0674  0.0213
  203loPI   PO4 3236   0.244  16.048  11.536 -0.0617 -0.1829  0.1091
  203loPI   GL1 3237   0.151  16.179  11.049  0.0745 -0.1351  0.2638
  203loPI   GL2 3238  -0.033  16.018  10.845  0.2355  0.0563 -0.0378
  203loPI   C1A 3239   0.166  16.460  10.699 -0.0434  0.0366  0.1269
  203loPI   C2A 3240   0.146  16.506  10.344  0.0990  0.3364  0.1856
  203loPI   C3A 3241   0.132  16.525   9.913 -0.1745  0.0475 -0.1637
  203loPI   C4A 3242   0.140  16.536   9.530 -0.2343  0.0945 -0.4601
  203loPI   C5A 3243   0.090  16.545   9.095 -0.2509 -0.0055 -0.2284
  203loPI   C6A 3244   0.267  16.641   8.688  0.5229  0.0111 -0.0929
  203loPI   C1B 3245   0.024  16.040  10.396 -0.0469 -0.0566 -0.1543
  203loPI   C2B 3246  -0.043  16.107   9.956  0.0870  0.3785  0.2088
  203loPI   C3B 3247  -0.115  16.073   9.548  0.1193 -0.1348 -0.1816
  203loPI   C4B 3248  -0.077  16.098   9.161  0.1655 -0.1021  0.1309
  204loPI    C1 3249   1.963  13.340  11.260  0.0617  0.1632  0.2059
  204loPI    C2 3250   1.599  13.397  11.416 -0.1443 -0.1429 -0.1448
  204loPI    C3 3251   1.822  13.087  11.536  0.0795  0.1406  0.1942
  204loPI   PO4 3252   1.945  13.345  11.011  0.1683 -0.1938 -0.2329
  204loPI   GL1 3253   1.963  13.060  10.665 -0.0547 -0.1065  0.2502
  204loPI   GL2 3254   1.740  12.936  10.514  0.3114 -0.0457  0.2747
  204loPI   C1A 3255   2.052  13.252  10.304 -0.2458 -0.0655 -0.0903
  204loPI   C2A 3256   2.121  13.157   9.923 -0.0565 -0.1057  0.0461
  204loPI   C3A 3257   2.162  13.322   9.550  0.1059 -0.0077 -0.0919
  204loPI   C4A 3258   2.239  13.311   9.095 -0.0074 -0.0085 -0.4621
  204loPI   C5A 3259   2.609  13.529   8.997 -0.1088 -0.0427  0.2705
  204loPI   C6A 3260   2.801  13.957   8.729 -0.2131  0.0484 -0.1545
  204loPI   C1B 3261   1.680  12.890  10.022 -0.3754  0.0327 -0.2996
  204loPI   C2B 3262   1.738  12.907   9.660 -0.0041  0.0721  0.1434
  204loPI   C3B 3263   1.720  13.107   9.195  0.0543  0.1899 -0.1343
  204loPI   C4B 3264   1.763  12.987   8.688  0.1437 -0.3131 -0.0076
  205loPI    C1 3265   2.683   5.562  11.343  0.0170 -0.1297 -0.2504
  205loPI    C2 3266   2.868   5.908  11.267  0.0274 -0.0623  0.0663
  205loPI    C3 3267   2.646   5.868  11.598 -0.2601 -0.2483 -0.1435
  205loPI   PO4 3268   2.604   5.448  11.184  0.1169 -0.0170 -0.1367
  205loPI   GL1 3269   2.430   5.626  10.930  0.4445  0.1525  0.2236
  205loPI   GL2 3270   2.254   5.828  10.782  0.1459 -0.1424  0.0648
  205loPI   C1A 3271   2.698   5.503  10.551  0.2541  0.0449 -0.1580
  205loPI   C2A 3272   2.809   5.472  10.112 -0.3328 -0.6083 -0.0389
  205loPI   C3A 3273   2.687   5.510   9.661  0.2915  0.0867 -0.1501
  205loPI   C4A 3274   2.736   5.553   9.178  0.2292 -0.1337 -0.2597
  205loPI   C5A 3275   3.122   5.438   8.890 -0.0371 -0.0506  0.0190
  205loPI   C6A 3276   3.491   5.198   8.891 -0.2205 -0.0733 -0.0099
  205loPI   C1B 3277   2.277   5.758  10.338  0.0062  0.1374 -0.0677
  205loPI   C2B 3278   2.297   5.654   9.963  0.1272 -0.3067 -0.1546
  205loPI   C3B 3279   2.188   5.701   9.538 -0.0341  0.2138 -0.0417
  205loPI   C4B 3280   2.242   5.645   9.071  0.0900  0.0990 -0.0962
  206loPI    C1 3281   3.655  17.235  11.503 -0.1008 -0.0819 -0.1395
  206loPI    C2 3282   3.541  17.547  11.726 -0.0178 -0.0235 -0.1783
  206loPI    C3 3283   3.301  17.230  11.688  0.0470 -0.1162  0.1496
  206loPI   PO4 3284   3.723  17.320  11.340  0.2286  0.2206 -0.1000
  206loPI   GL1 3285   3.732  17.350  10.942  0.0749 -0.0336 -0.2834
  206loPI   GL2 3286   3.967  17.058  10.929 -0.1870 -0.1532 -0.2116
  206loPI   C1A 3287   3.737  17.429  10.478  0.1607  0.0879 -0.5703
  206loPI   C2A 3288   3.639  17.408  10.012  0.0712  0.0325  0.1141
  206loPI   C3A 3289   3.748  17.432   9.612  0.0283 -0.0127  0.1284
  206loPI   C4A 3290   3.780  17.418   9.184 -0.0377 -0.0473 -0.0838
  206loPI   C5A 3291   3.777  17.476   8.809  0.0259  0.4018 -0.4055
  206loPI   C6A 3292   4.144  17.496   8.567  0.1250 -0.1661  0.2454
  206loPI   C1B 3293   4.006  16.906  10.514  0.2404 -0.2987  0.0511
  206loPI   C2B 3294   4.034  17.050  10.194  0.0100 -0.0681 -0.1136
  206loPI   C3B 3295   4.032  16.945   9.740 -0.2180 -0.2926 -0.1328
  206loPI   C4B 3296   4.143  16.948   9.237 -0.2413  0.1030  0.2486
  207loPI    C1 3297  13.846   0.617  11.706  0.0198 -0.0119  0.0136
  207loPI    C2 3298  13.962   0.909  11.459  0.1258 -0.0283  0.0432
  207loPI    C3 3299  13.935   0.978  11.852  0.1083 -0.0463  0.0453
  207loPI   PO4 3300  13.924   0.331  11.491 -0.0343 -0.1085 -0.2095
  207loPI   GL1 3301  13.677   0.303  11.202  0.1059  0.0942 -0.1478
  207loPI   GL2 3302  13.718   0.646  11.042  0.0571  0.0939  0.1042
  207loPI   C1A 3303  13.503   0.150  10.823  0.1255 -0.0635  0.1087
  207loPI   C2A 3304  13.497   0.079  10.379 -0.2540  0.0217  0.2891
  207loPI   C3A 3305  13.410   0.056   9.974 -0.0698 -0.1048  0.3175
  207loPI   C4A 3306  13.480   0.132   9.518 -0.1358  0.2872  0.1371
  207loPI   C5A 3307  13.540   0.035   9.081 -0.3368 -0.1121 -0.0431
  207loPI   C6A 3308  13.698  -0.428   8.913 -0.1069  0.2085 -0.0640
  207loPI   C1B 3309  13.737   0.610  10.662  0.1418  0.1859 -0.0360
  207loPI   C2B 3310  13.687   0.563  10.238 -0.0677  0.1685 -0.2041
  207loPI   C3B 3311  13.678   0.534   9.776 -0.3641 -0.3182 -0.0626
  207loPI   C4B 3312  13.680   0.603   9.317  0.0556 -0.0458  0.0404
  208loPI    C1 3313  16.617   9.232  11.618 -0.2144  0.1534  0.0574
  208loPI    C2 3314  16.840   9.287  11.946 -0.3152  0.1539  0.1263
  208loPI    C3 3315  16.691   8.925  11.864 -0.0350  0.0824 -0.0829
  208loPI   PO4 3316  16.830   9.419  11.361 -0.3139  0.0895 -0.2704
  208loPI   GL1 3317  16.881   9.516  10.942  0.2332 -0.1773 -0.2278
  208loPI   GL2 3318  16.616   9.182  10.926 -0.0940  0.1063 -0.0703
  208loPI   C1A 3319  16.974   9.552  10.579 -0.1123  0.1927  0.1411
  208loPI   C2A 3320  16.920   9.625  10.187  0.0812 -0.1197  0.2415
  208loPI   C3A 3321  16.900   9.642   9.726 -0.3210  0.0653 -0.1110
  208loPI   C4A 3322  16.855   9.651   9.322 -0.1758 -0.0355 -0.0035
  208loPI   C5A 3323  16.610   9.639   8.942 -0.0157  0.2029  0.1407
  208loPI   C6A 3324  16.466   9.269   8.711  0.0259  0.1662 -0.2308
  208loPI   C1B 3325  16.519   9.276  10.475 -0.0863 -0.0559  0.0701
  208loPI   C2B 3326  16.498   9.207  10.101 -0.1238 -0.3115  0.1823
  208loPI   C3B 3327  16.447   9.372   9.704 -0.1750  0.1791  0.0057
  208loPI   C4B 3328  16.500   9.244   9.282  0.1198  0.1809  0.2588
  209loPI    C1 3329   9.660  13.319  11.277 -0.1209  0.1612  0.0277
  209loPI    C2 3330   9.788  13.253  11.650 -0.0781  0.1035  0.0030
  209loPI    C3 3331   9.398  13.304  11.578 -0.1282 -0.2477  0.0065
  209loPI   PO4 3332   9.718  13.468  11.209  0.0981  0.3900  0.1421
  209loPI   GL1 3333   9.949  13.632  10.846  0.1708 -0.4838  0.4223
  209loPI   GL2 3334  10.271  13.537  10.612 -0.2354  0.1389  0.1081
  209loPI   C1A 3335   9.831  13.577  10.406 -0.1661  0.2126  0.3203
  209loPI   C2A 3336   9.780  13.604  10.075 -0.2234 -0.1366 -0.1798
  209loPI   C3A 3337   9.668  13.647   9.565  0.0352  0.1555  0.0233
  209loPI   C4A 3338   9.678  13.588   9.103 -0.0366 -0.0983  0.1035
  209loPI   C5A 3339   9.762  13.455   8.589 -0.1369 -0.0983  0.0666
  209loPI   C6A 3340   9.590  13.549   8.208  0.4303  0.1026 -0.0130
  209loPI   C1B 3341  10.299  13.596  10.199 -0.0681  0.2156  0.3109
  209loPI   C2B 3342  10.163  13.607   9.751 -0.0795  0.1762  0.2425
  209loPI   C3B 3343  10.234  13.681   9.286 -0.0374 -0.0047 -0.0027
  209loPI   C4B 3344  10.135  13.659   8.874 -0.3970  0.1948 -0.3648
  210loPI    C1 3345   7.542   5.482  11.342 -0.1683  0.1704 -0.0047
  210loPI    C2 3346   7.627   5.869  11.400  0.1268  0.0818  0.1754
  210loPI    C3 3347   7.402   5.671  11.665 -0.0470  0.1349  0.0692
  210loPI   PO4 3348   7.592   5.440  11.089 -0.2327  0.0894 -0.0484
  210loPI   GL1 3349   7.466   5.596  10.686 -0.1979  0.1064 -0.0050
  210loPI   GL2 3350   7.770   5.679  10.571  0.1114  0.0635  0.1998
  210loPI   C1A 3351   7.247   5.354  10.326  0.0277 -0.0809  0.1262
  210loPI   C2A 3352   7.077   5.316   9.872  0.0758 -0.1168  0.1416
  210loPI   C3A 3353   7.034   5.418   9.475  0.1532  0.1392  0.0133
  210loPI   C4A 3354   7.145   5.195   9.001  0.0269 -0.4224 -0.2600
  210loPI   C5A 3355   7.288   5.060   8.668  0.0609 -0.2464  0.1636
  210loPI   C6A 3356   7.436   5.115   8.329 -0.0096 -0.0253  0.1051
  210loPI   C1B 3357   7.810   5.398  10.295  0.0566  0.2012 -0.3179
  210loPI   C2B 3358   7.695   5.376   9.903  0.1981  0.0723 -0.2372
  210loPI   C3B 3359   7.595   5.391   9.428 -0.0358  0.3231 -0.0986
  210loPI   C4B 3360   7.662   5.761   9.075  0.0666 -0.0438 -0.3179
  211loPI    C1 3361   1.544  12.882  11.208 -0.3000 -0.1244  0.0567
  211loPI    C2 3362   1.411  12.508  11.265 -0.2319 -0.1156  0.2831
  211loPI    C3 3363   1.211  12.818  11.421 -0.4498 -0.0323 -0.1465
  211loPI   PO4 3364   1.539  12.949  10.990  0.1511  0.0723  0.3587
  211loPI   GL1 3365   1.441  12.630  10.710  0.3868  0.1703 -0.4047
  211loPI   GL2 3366   1.656  12.434  10.802 -0.1093 -0.1248 -0.0275
  211loPI   C1A 3367   1.346  12.613  10.254 -0.1005  0.1058  0.2195
  211loPI   C2A 3368   1.283  12.634   9.795 -0.0790 -0.1856 -0.2140
  211loPI   C3A 3369   1.254  12.763   9.397 -0.2572 -0.0050 -0.0317
  211loPI   C4A 3370   1.257  12.872   8.876  0.1227  0.2257 -0.0937
  211loPI   C5A 3371   1.437  12.598   8.570 -0.1040 -0.1002 -0.3574
  211loPI   C6A 3372   1.437  12.641   8.132  0.2327  0.0805  0.1029
  211loPI   C1B 3373   1.808  12.420  10.369 -0.0693 -0.0978 -0.2061
  211loPI   C2B 3374   1.732  12.354   9.927  0.0613  0.0193  0.1436
  211loPI   C3B 3375   1.732  12.441   9.539 -0.1600  0.0095 -0.1598
  211loPI   C4B 3376   1.698  12.645   9.159 -0.2197 -0.1002 -0.2171
  212loPI    C1 3377   6.369  16.891  11.576 -0.2142  0.0362 -0.0408
  212loPI    C2 3378   6.235  16.546  11.422 -0.0622 -0.0605  0.0410
  212loPI    C3 3379   6.301  16.578  11.816  0.0281  0.0276  0.0191
  212loPI   PO4 3380   6.273  17.019  11.333 -0.2921  0.0769 -0.2192
  212loPI   GL1 3381   6.294  16.878  10.923  0.0283  0.2395 -0.1766
  212loPI   GL2 3382   6.614  17.053  10.812 -0.0252  0.3444  0.0324
  212loPI   C1A 3383   6.101  17.029  10.681 -0.1531 -0.2944 -0.2408
  212loPI   C2A 3384   6.053  17.069  10.224 -0.0633 -0.3309 -0.0930
  212loPI   C3A 3385   5.948  17.068   9.787  0.1268  0.1706 -0.2977
  212loPI   C4A 3386   6.117  17.071   9.319  0.1488 -0.0771  0.1815
  212loPI   C5A 3387   6.139  17.064   8.852 -0.3235 -0.2432  0.0580
  212loPI   C6A 3388   5.872  17.078   8.586  0.0259  0.0330 -0.1157
  212loPI   C1B 3389   6.528  17.018  10.444 -0.2574 -0.0989 -0.2415
  212loPI   C2B 3390   6.523  17.152  10.039  0.3113  0.0803  0.1498
  212loPI   C3B 3391   6.557  17.061   9.595 -0.0412 -0.0974  0.2851
  212loPI   C4B 3392   6.585  17.094   9.172  0.2602 -0.3363 -0.1653
  213loPI    C1 3393  14.330   3.478  11.729  0.1344 -0.0231 -0.2294
  213loPI    C2 3394  14.021   3.530  11.480 -0.1359 -0.1415  0.0741
  213loPI    C3 3395  14.091   3.796  11.770  0.0713 -0.0964 -0.0156
  213loPI   PO4 3396  14.522   3.375  11.547  0.0342 -0.1313  0.2019
  213loPI   GL1 3397  14.487   3.410  11.159 -0.2152  0.0667  0.0667
  213loPI   GL2 3398  14.361   3.723  10.994  0.1377 -0.1916 -0.0504
  213loPI   C1A 3399  14.655   3.286  10.758 -0.1968  0.3925  0.2815
  213loPI   C2A 3400  14.685   3.249  10.352 -0.0716 -0.1171 -0.0683
  213loPI   C3A 3401  14.654   3.258   9.913  0.0416  0.2368  0.0072
  213loPI   C4A 3402  14.633   3.095   9.487  0.1311  0.2035 -0.0167
  213loPI   C5A 3403  14.588   3.270   9.075 -0.1993  0.0879 -0.0503
  213loPI   C6A 3404  14.264   3.535   8.874  0.0237  0.1778 -0.3133
  213loPI   C1B 3405  14.260   3.760  10.589 -0.0382  0.2731 -0.2330
  213loPI   C2B 3406  14.386   3.638  10.282 -0.0317  0.0753 -0.2434
  213loPI   C3B 3407  14.361   3.665   9.808  0.0588  0.2728 -0.0332
  213loPI   C4B 3408  14.255   3.586   9.403 -0.0951  0.1241  0.1475
  214loPI    C1 3409  11.702   6.051  11.439 -0.1393 -0.0900 -0.0918
  214loPI    C2 3410  11.694   6.360  11.184  0.1641 -0.0551 -0.0625
  214loPI    C3 3411  11.796   6.418  11.566  0.1193 -0.1748 -0.0317
  214loPI   PO4 3412  11.890   5.872  11.336 -0.0461 -0.1351 -0.3022
  214loPI   GL1 3413  11.933   5.627  10.900  0.2613  0.0376  0.2087
  214loPI   GL2 3414  11.846   5.964  10.800  0.1624 -0.0306 -0.1138
  214loPI   C1A 3415  11.735   5.560  10.461 -0.0968  0.0295  0.4222
  214loPI   C2A 3416  11.772   5.418  10.040 -0.0209  0.1090 -0.1051
  214loPI   C3A 3417  11.835   5.529   9.551  0.1169 -0.1395 -0.1985
  214loPI   C4A 3418  11.822   5.539   9.129  0.0203 -0.0520  0.0406
  214loPI   C5A 3419  11.750   5.698   8.700 -0.1152 -0.1416 -0.1737
  214loPI   C6A 3420  11.440   6.047   8.612 -0.2059 -0.0727 -0.1913
  214loPI   C1B 3421  12.213   5.919  10.468 -0.1138  0.2642  0.2937
  214loPI   C2B 3422  12.364   6.019  10.109  0.1651 -0.0910  0.1387
  214loPI   C3B 3423  12.331   5.828   9.664  0.0132  0.3883 -0.3188
  214loPI   C4B 3424  12.283   5.593   9.266 -0.0952 -0.0678 -0.2389
  215loPI    C1 3425   8.908  14.103  11.634  0.2882  0.1415  0.0994
  215loPI    C2 3426   8.756  14.392  11.866 -0.3245  0.0032 -0.1120
  215loPI    C3 3427   8.735  14.010  11.983  0.2915  0.0146  0.0676
  215loPI   PO4 3428   8.888  14.191  11.360 -0.2888 -0.3577 -0.0068
  215loPI   GL1 3429   8.902  14.219  10.915 -0.1164 -0.1808 -0.1401
  215loPI   GL2 3430   8.777  14.549  10.854 -0.0484  0.0448  0.3047
  215loPI   C1A 3431   8.983  14.181  10.556 -0.1411  0.0497 -0.0111
  215loPI   C2A 3432   9.100  14.067  10.155  0.0477  0.1962 -0.0136
  215loPI   C3A 3433   9.013  14.131   9.757  0.0975  0.0374  0.2829
  215loPI   C4A 3434   8.955  14.068   9.318  0.0197  0.1840  0.2258
  215loPI   C5A 3435   8.999  14.041   8.877  0.1350 -0.3698 -0.0221
  215loPI   C6A 3436   8.793  13.916   8.440  0.0731 -0.4671 -0.2455
  215loPI   C1B 3437   8.709  14.593  10.358 -0.0534 -0.0569  0.0195
  215loPI   C2B 3438   8.711  14.480   9.911  0.2528  0.3336 -0.1201
  215loPI   C3B 3439   8.689  14.455   9.357 -0.0608 -0.2964  0.0500
  215loPI   C4B 3440   8.584  14.234   8.977  0.1564  0.1865  0.1304
  216loPI    C1 3441   8.965   9.444  11.495  0.0279 -0.1002  0.1283
  216loPI    C2 3442   9.203   9.622  11.762 -0.1024 -0.1494  0.2792
  216loPI    C3 3443   9.142   9.227  11.781 -0.1026 -0.1548  0.1686
  216loPI   PO4 3444   8.969   9.476  11.304  0.1826  0.1867 -0.0989
  216loPI   GL1 3445   9.139   9.483  10.993 -0.1883 -0.0757 -0.0249
  216loPI   GL2 3446   9.314   9.128  10.946 -0.2884 -0.2155 -0.1541
  216loPI   C1A 3447   9.296   9.511  10.636 -0.2555 -0.1420 -0.0257
  216loPI   C2A 3448   9.271   9.472  10.282 -0.4323 -0.1297  0.0890
  216loPI   C3A 3449   9.299   9.429   9.843  0.0146  0.1547  0.0095
  216loPI   C4A 3450   9.179   9.310   9.528  0.1220 -0.2577  0.1506
  216loPI   C5A 3451   9.134   9.296   9.088 -0.1305  0.1154 -0.2318
  216loPI   C6A 3452   9.079   9.231   8.709 -0.0148 -0.2331 -0.1456
  216loPI   C1B 3453   9.295   8.936  10.530  0.2057  0.1962 -0.1391
  216loPI   C2B 3454   9.304   8.948  10.138 -0.0670  0.2329  0.0230
  216loPI   C3B 3455   9.313   8.826   9.826  0.0090  0.1564  0.0323
  216loPI   C4B 3456   9.193   8.807   9.483 -0.1245  0.1840  0.1196
  217loPI    C1 3457  14.772  11.101  11.354 -0.0113  0.1030 -0.1001
  217loPI    C2 3458  15.055  11.383  11.374 -0.0255  0.1051  0.0869
  217loPI    C3 3459  15.059  11.078  11.632  0.0164 -0.0925 -0.1434
  217loPI   PO4 3460  14.730  11.109  11.146  0.2377  0.2201 -0.2054
  217loPI   GL1 3461  15.025  11.437  10.888 -0.1519  0.2174  0.0333
  217loPI   GL2 3462  14.989  11.089  10.741 -0.1656 -0.1547 -0.0634
  217loPI   C1A 3463  14.902  11.495  10.458  0.0218 -0.0005  0.3295
  217loPI   C2A 3464  14.985  11.447  10.077  0.1107 -0.2342  0.0403
  217loPI   C3A 3465  14.922  11.598   9.703 -0.1526  0.0691 -0.2353
  217loPI   C4A 3466  14.871  11.574   9.347  0.1689 -0.0430  0.0031
  217loPI   C5A 3467  14.845  11.570   8.938 -0.0710 -0.3802  0.0087
  217loPI   C6A 3468  14.877  11.677   8.435  0.2442 -0.0156 -0.1885
  217loPI   C1B 3469  14.983  11.014  10.272  0.2148  0.2506 -0.0277
  217loPI   C2B 3470  14.993  11.048   9.760 -0.1222 -0.0215 -0.0998
  217loPI   C3B 3471  14.889  10.954   9.354  0.1333 -0.0991  0.1741
  217loPI   C4B 3472  15.079  10.924   9.000 -0.0921  0.2683 -0.0040
  218loPI    C1 3473  17.472  17.285  11.875  0.1961 -0.1744 -0.0566
  218loPI    C2 3474  17.147  17.098  11.737 -0.0739  0.2340  0.0065
  218loPI    C3 3475  17.343  16.951  12.054  0.0502 -0.2383 -0.2778
  218loPI   PO4 3476  17.591  17.380  11.662 -0.1126 -0.1772 -0.0519
  218loPI   GL1 3477  17.534  17.490  11.216 -0.1091  0.1757  0.2877
  218loPI   GL2 3478  17.392  17.305  10.939 -0.3781 -0.0036 -0.0464
  218loPI   C1A 3479  17.674  17.740  10.836  0.3614  0.2129  0.2371
  218loPI   C2A 3480  17.548  17.822  10.476 -0.1274  0.3641 -0.0478
  218loPI   C3A 3481  17.482  17.841   9.982 -0.2257 -0.3811 -0.1662
  218loPI   C4A 3482  17.486  17.788   9.493 -0.1506  0.1536 -0.3154
  218loPI   C5A 3483  17.515  17.966   9.051  0.1411 -0.1344 -0.0929
  218loPI   C6A 3484  17.809  18.200   8.807  0.3935 -0.2431  0.0009
  218loPI   C1B 3485  17.281  17.375  10.466 -0.1073  0.0820  0.3684
  218loPI   C2B 3486  17.282  17.450  10.123  0.1965 -0.0269  0.1873
  218loPI   C3B 3487  17.290  17.321   9.671  0.1502  0.0523  0.3358
  218loPI   C4B 3488  17.282  17.348   9.308 -0.2585 -0.0382  0.1752
  219loPI    C1 3489   0.746   9.361  11.481  0.1226  0.1323  0.0537
  219loPI    C2 3490   0.528   9.079  11.300 -0.0291  0.2036  0.1245
  219loPI    C3 3491   0.663   9.020  11.672  0.0083  0.1909  0.1090
  219loPI   PO4 3492   0.836   9.477  11.326 -0.0676 -0.0006 -0.1395
  219loPI   GL1 3493   0.679   9.626  10.933  0.0270 -0.1286 -0.2347
  219loPI   GL2 3494   0.618   9.342  10.899  0.2860  0.3692 -0.3050
  219loPI   C1A 3495   0.710   9.494  10.410  0.1278 -0.3623 -0.0217
  219loPI   C2A 3496   0.659   9.604   9.934 -0.3935  0.0908 -0.1118
  219loPI   C3A 3497   0.570   9.548   9.482 -0.2450 -0.1102  0.1976
  219loPI   C4A 3498   0.500   9.600   9.087  0.0423 -0.2790  0.1636
  219loPI   C5A 3499   0.658   9.421   8.725  0.1921  0.1940  0.1272
  219loPI   C6A 3500   0.966   9.231   8.623  0.2244  0.0149 -0.0957
  219loPI   C1B 3501   0.717   9.041  10.551 -0.1752  0.1019  0.1810
  219loPI   C2B 3502   0.749   9.003  10.137  0.3344 -0.0171 -0.0255
  219loPI   C3B 3503   0.557   9.068   9.721  0.0355  0.1345 -0.0290
  219loPI   C4B 3504   0.689   9.089   9.293  0.1117  0.0027  0.0340
  220loPI    C1 3505  14.060   8.658  11.295  0.2100  0.2655 -0.0675
  220loPI    C2 3506  14.037   8.356  11.034 -0.0193  0.3184 -0.1111
  220loPI    C3 3507  13.945   8.295  11.419 -0.2156  0.3670 -0.1493
  220loPI   PO4 3508  14.348   8.761  11.142 -0.0056  0.0287 -0.0099
  220loPI   GL1 3509  14.408   8.870  10.771 -0.0117  0.3742  0.0585
  220loPI   GL2 3510  14.294   9.183  10.740 -0.2696  0.1819  0.1212
  220loPI   C1A 3511  14.252   8.946  10.299 -0.0106  0.1750  0.0790
  220loPI   C2A 3512  14.221   8.840   9.860 -0.2843 -0.1399 -0.0798
  220loPI   C3A 3513  14.330   8.859   9.444 -0.1349 -0.0886  0.0404
  220loPI   C4A 3514  14.219   8.836   9.032  0.0150 -0.0244  0.1782
  220loPI   C5A 3515  14.291   9.119   8.667  0.2118  0.1662 -0.1296
  220loPI   C6A 3516  14.347   9.097   8.264 -0.4325  0.1053 -0.1362
  220loPI   C1B 3517  14.196   9.436  10.327 -0.2175 -0.0626  0.0091
  220loPI   C2B 3518  14.224   9.336   9.899  0.0904 -0.2183 -0.2419
  220loPI   C3B 3519  14.266   9.337   9.549  0.1420  0.0053 -0.2595
  220loPI   C4B 3520  14.246   9.323   9.151 -0.0563 -0.1612 -0.2632
  221loPI    C1 3521  11.151  12.032  11.580  0.0055  0.1116  0.0640
  221loPI    C2 3522  10.826  12.217  11.720 -0.0174  0.2228 -0.1321
  221loPI    C3 3523  11.059  12.007  11.968 -0.2787  0.0795 -0.0033
  221loPI   PO4 3524  11.166  12.130  11.379 -0.3257 -0.0400 -0.0346
  221loPI   GL1 3525  11.096  11.969  11.046  0.1672 -0.1880 -0.1181
  221loPI   GL2 3526  10.964  12.104  10.824  0.3544  0.0837 -0.0882
  221loPI   C1A 3527  11.392  11.853  10.724 -0.2321  0.1790 -0.0132
  221loPI   C2A 3528  11.324  11.842  10.311  0.0906 -0.0958  0.0490
  221loPI   C3A 3529  11.288  11.798   9.858 -0.0435 -0.0601 -0.1294
  221loPI   C4A 3530  11.271  11.781   9.401  0.3480 -0.1378  0.4294
  221loPI   C5A 3531  11.325  11.851   8.989  0.0441 -0.3697  0.2803
  221loPI   C6A 3532  11.036  11.890   8.643  0.0868 -0.1482  0.0055
  221loPI   C1B 3533  10.829  12.058  10.406 -0.1503  0.0515  0.0702
  221loPI   C2B 3534  10.849  12.094  10.026  0.2017 -0.3257  0.1467
  221loPI   C3B 3535  10.752  11.946   9.652  0.0595  0.0866 -0.0757
  221loPI   C4B 3536  10.767  11.981   9.118 -0.0911 -0.0161 -0.2330
  222loPI    C1 3537  16.206   8.480  11.062  0.0359 -0.0497  0.0721
  222loPI    C2 3538  16.381   8.389  11.410  0.0970  0.0007  0.0548
  222loPI    C3 3539  16.195   8.104  11.198  0.1180 -0.0435  0.0958
  222loPI   PO4 3540  16.446   8.672  10.948 -0.0307  0.2251  0.0821
  222loPI   GL1 3541  16.491   8.464  10.636 -0.2488  0.1210 -0.3475
  222loPI   GL2 3542  16.674   8.298  10.664  0.1118 -0.0033 -0.0632
  222loPI   C1A 3543  16.185   8.478  10.362  0.2302 -0.0755 -0.0502
  222loPI   C2A 3544  16.097   8.481   9.958  0.3092  0.2788  0.1326
  222loPI   C3A 3545  16.106   8.421   9.520 -0.0411  0.2143  0.2140
  222loPI   C4A 3546  16.007   8.473   9.096  0.0676 -0.0166  0.1563
  222loPI   C5A 3547  15.989   8.388   8.690  0.1229  0.2184  0.0368
  222loPI   C6A 3548  16.185   8.514   8.359  0.1764 -0.2199  0.1693
  222loPI   C1B 3549  16.662   8.234  10.250  0.0974 -0.1401 -0.3190
  222loPI   C2B 3550  16.580   8.222   9.775  0.0135  0.0025 -0.1128
  222loPI   C3B 3551  16.610   8.260   9.268 -0.2351  0.0059  0.0554
  222loPI   C4B 3552  16.495   8.296   8.879  0.1040  0.2366  0.2469
  223loPI    C1 3553  14.238   4.281  11.753  0.1517  0.1260 -0.0779
  223loPI    C2 3554  13.977   4.475  11.520  0.0806  0.0998 -0.0206
  223loPI    C3 3555  14.007   4.568  11.908  0.0501  0.0004  0.0057
  223loPI   PO4 3556  14.511   4.322  11.503  0.1917  0.2900 -0.3770
  223loPI   GL1 3557  14.726   4.253  11.161  0.1291 -0.0312 -0.1176
  223loPI   GL2 3558  14.996   4.175  10.942  0.3698 -0.0402 -0.0965
  223loPI   C1A 3559  14.531   4.182  10.759  0.2031  0.2172  0.0974
  223loPI   C2A 3560  14.570   4.189  10.334 -0.0624 -0.1702 -0.0092
  223loPI   C3A 3561  14.607   4.189   9.883  0.2174 -0.0797  0.4206
  223loPI   C4A 3562  14.650   4.114   9.522  0.0052 -0.1316  0.2222
  223loPI   C5A 3563  14.612   3.867   9.098  0.2733 -0.2876  0.0563
  223loPI   C6A 3564  14.680   4.080   8.660 -0.0810 -0.1099 -0.0121
  223loPI   C1B 3565  15.033   4.144  10.500  0.0631  0.2113 -0.4233
  223loPI   C2B 3566  15.156   4.134  10.098 -0.1087 -0.2453  0.2796
  223loPI   C3B 3567  15.110   4.092   9.615 -0.1967  0.1031 -0.0308
  223loPI   C4B 3568  15.027   4.181   9.128 -0.0668  0.3596 -0.1368
  224loPI    C1 3569  13.595   9.031  11.652 -0.0129  0.2251 -0.1487
  224loPI    C2 3570  13.993   9.050  11.614  0.0261  0.0483  0.1342
  224loPI    C3 3571  13.823   9.119  11.969 -0.1790 -0.0940  0.0659
  224loPI   PO4 3572  13.564   9.127  11.404 -0.0788 -0.1252 -0.3189
  224loPI   GL1 3573  13.392   9.138  11.054  0.1763  0.0004 -0.1715
  224loPI   GL2 3574  13.351   8.901  10.786  0.0821  0.3007  0.0380
  224loPI   C1A 3575  13.283   9.350  10.672 -0.0208  0.1288 -0.0327
  224loPI   C2A 3576  13.312   9.344  10.171  0.2499  0.1862 -0.0642
  224loPI   C3A 3577  13.230   9.351   9.683  0.0801  0.1566 -0.1627
  224loPI   C4A 3578  13.330   9.293   9.277  0.0808  0.1089  0.0769
  224loPI   C5A 3579  13.396   9.229   8.850  0.0393 -0.0725 -0.5415
  224loPI   C6A 3580  13.525   9.132   8.424 -0.0440  0.1877  0.2105
  224loPI   C1B 3581  13.336   8.865  10.359 -0.0363 -0.0124  0.1909
  224loPI   C2B 3582  13.398   8.756  10.043 -0.2377 -0.0532 -0.0203
  224loPI   C3B 3583  13.298   8.844   9.557 -0.1698  0.0863 -0.4306
  224loPI   C4B 3584  13.384   8.736   9.111 -0.0932 -0.2544  0.0503
  225loPI    C1 3585   7.179   5.193  11.500 -0.1017 -0.0300 -0.1465
  225loPI    C2 3586   7.250   4.941  11.802 -0.1657 -0.0037 -0.1094
  225loPI    C3 3587   7.143   5.319  11.878 -0.0398  0.0438 -0.1649
  225loPI   PO4 3588   7.000   5.202  11.284  0.2712  0.0471 -0.1598
  225loPI   GL1 3589   7.170   5.273  10.947  0.0133  0.3005 -0.2388
  225loPI   GL2 3590   6.996   5.500  10.738  0.0042 -0.2331  0.1695
  225loPI   C1A 3591   6.850   5.027  10.640 -0.0457 -0.2852 -0.0319
  225loPI   C2A 3592   6.939   4.867  10.195 -0.2295  0.1053 -0.2946
  225loPI   C3A 3593   6.886   4.859   9.797  0.0507  0.1959 -0.1374
  225loPI   C4A 3594   6.931   4.826   9.410  0.1290 -0.0055  0.2407
  225loPI   C5A 3595   6.953   4.737   8.938 -0.0405  0.0047  0.2660
  225loPI   C6A 3596   6.615   4.677   8.488  0.0411 -0.3226 -0.0661
  225loPI   C1B 3597   6.768   5.518  10.412  0.0459 -0.2201 -0.0111
  225loPI   C2B 3598   6.618   5.418  10.101 -0.1149  0.0603  0.2897
  225loPI   C3B 3599   6.584   5.210   9.676  0.1553  0.1396  0.1307
  225loPI   C4B 3600   6.616   5.215   9.299 -0.2107  0.0461  0.0889
  226loPI    C1 3601  10.273  10.710  11.519 -0.0055 -0.1458 -0.1637
  226loPI    C2 3602  10.541  10.878  11.274  0.0174  0.1775  0.0766
  226loPI    C3 3603  10.569  10.933  11.669 -0.1003 -0.2228  0.1453
  226loPI   PO4 3604  10.017  10.696  11.470  0.2461  0.1816  0.0797
  226loPI   GL1 3605   9.977  10.644  11.104  0.1338  0.0085 -0.2037
  226loPI   GL2 3606  10.153  10.893  11.015  0.1549 -0.1089  0.3845
  226loPI   C1A 3607  10.183  10.480  10.677 -0.0017  0.0004  0.1483
  226loPI   C2A 3608  10.183  10.480  10.279 -0.1369 -0.2365 -0.0615
  226loPI   C3A 3609  10.099  10.387   9.846 -0.0334 -0.0142 -0.1515
  226loPI   C4A 3610  10.038  10.470   9.412  0.1668  0.3075  0.3146
  226loPI   C5A 3611   9.867  10.503   9.016 -0.1173  0.2193  0.0441
  226loPI   C6A 3612   9.534  10.681   8.783  0.1220 -0.1358 -0.0678
  226loPI   C1B 3613  10.151  11.007  10.544 -0.0349  0.1715  0.1778
  226loPI   C2B 3614  10.070  10.927  10.082 -0.0653  0.0476 -0.0453
  226loPI   C3B 3615   9.989  10.912   9.628  0.0774  0.0641 -0.0234
  226loPI   C4B 3616   9.912  10.951   9.243 -0.0153  0.0062 -0.0888
  227loPI    C1 3617  10.975   8.259  11.374 -0.1668 -0.0578 -0.0082
  227loPI    C2 3618  11.146   8.383  11.714  0.2428  0.0105 -0.2340
  227loPI    C3 3619  11.052   7.997  11.667 -0.3109  0.0858  0.1607
  227loPI   PO4 3620  11.164   8.227  11.094  0.0383 -0.0317 -0.2546
  227loPI   GL1 3621  11.137   8.490  10.701  0.4977 -0.0835  0.2273
  227loPI   GL2 3622  10.942   8.252  10.611  0.0478  0.2331 -0.5060
  227loPI   C1A 3623  11.134   8.519  10.174 -0.0521  0.0460 -0.3453
  227loPI   C2A 3624  11.096   8.314   9.871 -0.0384  0.0640 -0.2242
  227loPI   C3A 3625  11.126   8.306   9.460  0.2116  0.0238 -0.1571
  227loPI   C4A 3626  11.088   8.394   9.121 -0.0494  0.2243 -0.0782
  227loPI   C5A 3627  11.289   8.251   8.700 -0.0238  0.1978 -0.0740
  227loPI   C6A 3628  11.410   7.931   8.403 -0.0903  0.1053  0.1429
  227loPI   C1B 3629  10.714   8.188  10.339  0.1501  0.1537  0.1268
  227loPI   C2B 3630  10.673   8.020   9.921 -0.3178 -0.1550 -0.3692
  227loPI   C3B 3631  10.635   8.099   9.576 -0.0416 -0.0032 -0.1284
  227loPI   C4B 3632  10.606   8.094   9.140  0.2155  0.3827 -0.2608
  228loPI    C1 3633  11.685  14.969  11.637 -0.2216 -0.0044 -0.1830
  228loPI    C2 3634  11.510  15.121  11.963  0.2350 -0.1196  0.1261
  228loPI    C3 3635  11.485  14.729  11.887  0.2789 -0.1212  0.1199
  228loPI   PO4 3636  11.673  15.038  11.447  0.0412  0.3062 -0.0394
  228loPI   GL1 3637  11.724  14.895  10.990 -0.0493 -0.1690 -0.2262
  228loPI   GL2 3638  11.395  15.011  10.972  0.2316 -0.1319  0.0738
  228loPI   C1A 3639  11.994  15.065  10.571  0.0849  0.1372 -0.1881
  228loPI   C2A 3640  12.055  15.078  10.157 -0.2798 -0.0306 -0.1483
  228loPI   C3A 3641  12.021  15.036   9.771 -0.0538 -0.3035 -0.1977
  228loPI   C4A 3642  12.114  14.956   9.371  0.0601  0.0311  0.1626
  228loPI   C5A 3643  12.110  15.054   8.907  0.2258 -0.0319  0.1462
  228loPI   C6A 3644  12.436  15.142   8.626  0.0077 -0.0156  0.0789
  228loPI   C1B 3645  11.410  15.060  10.552  0.0706 -0.0637  0.1306
  228loPI   C2B 3646  11.578  15.040  10.194  0.2866 -0.0327 -0.1354
  228loPI   C3B 3647  11.440  15.074   9.753  0.3512 -0.1169  0.0653
  228loPI   C4B 3648  11.564  14.987   9.288 -0.2698  0.1793 -0.1099
  229loPI    C1 3649  14.615   1.610  11.671 -0.2297  0.3116  0.0110
  229loPI    C2 3650  14.369   1.483  11.959 -0.1659 -0.1761 -0.1415
  229loPI    C3 3651  14.685   1.710  12.052 -0.4694  0.1594  0.0969
  229loPI   PO4 3652  14.492   1.622  11.490 -0.0227  0.1120 -0.3026
  229loPI   GL1 3653  14.299   1.609  11.030  0.0574  0.1817 -0.1364
  229loPI   GL2 3654  14.267   1.296  11.188  0.1626 -0.2811 -0.3329
  229loPI   C1A 3655  14.175   1.495  10.616  0.1507  0.1675  0.0676
  229loPI   C2A 3656  14.133   1.399  10.181  0.0713  0.0898 -0.0352
  229loPI   C3A 3657  14.165   1.441   9.764  0.1506 -0.0158  0.1295
  229loPI   C4A 3658  14.242   1.370   9.326  0.3539 -0.0056 -0.1469
  229loPI   C5A 3659  14.325   1.790   9.078 -0.2339 -0.5916  0.2531
  229loPI   C6A 3660  14.299   1.710   8.604  0.0415 -0.3016  0.0712
  229loPI   C1B 3661  14.003   1.028  10.839  0.0706  0.0653 -0.2237
  229loPI   C2B 3662  13.854   1.021  10.464  0.2571  0.2625  0.0372
  229loPI   C3B 3663  13.916   0.923  10.026 -0.2138  0.2960 -0.0338
  229loPI   C4B 3664  13.974   0.963   9.540 -0.1597  0.3441 -0.1017
  230loPI    C1 3665   4.599  17.448  11.602 -0.0356  0.0366  0.0260
  230loPI    C2 3666   4.956  17.366  11.764 -0.1490  0.0463  0.2861
  230loPI    C3 3667   4.698  17.070  11.688 -0.0338  0.0235 -0.0333
  230loPI   PO4 3668   4.660  17.491  11.304  0.3486  0.0471 -0.2125
  230loPI   GL1 3669   4.894  17.569  11.037 -0.0378 -0.2353 -0.0560
  230loPI   GL2 3670   5.109  17.577  10.953  0.0944  0.1526 -0.0166
  230loPI   C1A 3671   4.943  17.960  10.668 -0.0792  0.1306 -0.1034
  230loPI   C2A 3672   4.939  17.955  10.252 -0.0467  0.2819  0.0249
  230loPI   C3A 3673   5.056  17.878   9.791 -0.1801 -0.1120  0.0747
  230loPI   C4A 3674   4.991  18.021   9.385 -0.0130 -0.0607  0.0326
  230loPI   C5A 3675   5.083  17.930   8.945  0.1858  0.1206 -0.0459
  230loPI   C6A 3676   5.398  18.058   8.516  0.1533 -0.0907 -0.1551
  230loPI   C1B 3677   5.128  17.525  10.515  0.3303 -0.0510 -0.0456
  230loPI   C2B 3678   5.277  17.570  10.115 -0.2568 -0.1650  0.0272
  230loPI   C3B 3679   5.282  17.456   9.674 -0.2273 -0.0449 -0.3193
  230loPI   C4B 3680   5.327  17.458   9.224 -0.1470  0.6061 -0.1080
  231loPI    C1 3681  14.149  11.976  11.384 -0.1625 -0.1941  0.0062
  231loPI    C2 3682  13.831  12.184  11.261  0.0180  0.0152 -0.1137
  231loPI    C3 3683  13.925  12.175  11.649 -0.0531  0.0683 -0.0951
  231loPI   PO4 3684  14.203  11.843  11.253 -0.3537 -0.0433 -0.1573
  231loPI   GL1 3685  14.099  11.636  10.819  0.1424  0.1403 -0.1075
  231loPI   GL2 3686  13.885  11.888  10.890  0.2236  0.0192  0.2099
  231loPI   C1A 3687  14.080  11.491  10.466 -0.0262  0.4940  0.1069
  231loPI   C2A 3688  14.024  11.514  10.091 -0.3854  0.0665  0.1098
  231loPI   C3A 3689  14.002  11.510   9.703  0.0439 -0.1296  0.0983
  231loPI   C4A 3690  13.976  11.487   9.305  0.1947 -0.0437 -0.0204
  231loPI   C5A 3691  13.874  11.586   8.949  0.1116 -0.2000  0.2664
  231loPI   C6A 3692  13.825  11.410   8.588 -0.3651 -0.0805 -0.2387
  231loPI   C1B 3693  14.029  11.975  10.462  0.2023 -0.0374 -0.1145
  231loPI   C2B 3694  14.024  12.009   9.995  0.1864  0.0236 -0.2090
  231loPI   C3B 3695  13.981  12.013   9.551  0.1210 -0.0120 -0.0740
  231loPI   C4B 3696  14.161  12.070   9.113 -0.0537 -0.4590 -0.0039
  232loPI    C1 3697  15.104   5.081  11.470 -0.1718  0.0249 -0.2459
  232loPI    C2 3698  15.371   4.810  11.594 -0.1280  0.2026  0.0604
  232loPI    C3 3699  15.025   4.854  11.790 -0.2493  0.1895 -0.1470
  232loPI   PO4 3700  15.092   5.053  11.266  0.0678 -0.1468  0.1951
  232loPI   GL1 3701  15.106   4.883  10.902 -0.1947  0.4857  0.0762
  232loPI   GL2 3702  14.848   4.694  10.942 -0.0429 -0.1977 -0.0486
  232loPI   C1A 3703  15.045   5.061  10.519 -0.5218 -0.2098 -0.0703
  232loPI   C2A 3704  15.079   4.985  10.077 -0.1384 -0.1815  0.4110
  232loPI   C3A 3705  15.133   5.043   9.614 -0.1386  0.1398 -0.0893
  232loPI   C4A 3706  15.309   4.995   9.274  0.0375 -0.0683 -0.2391
  232loPI   C5A 3707  15.277   5.004   8.849  0.1504  0.1076  0.0426
  232loPI   C6A 3708  15.612   4.763   8.678 -0.2951  0.1262 -0.3560
  232loPI   C1B 3709  14.781   4.613  10.509 -0.1476  0.0622  0.0648
  232loPI   C2B 3710  14.833   4.537  10.100  0.2472 -0.0123  0.0395
  232loPI   C3B 3711  14.929   4.597   9.651 -0.1400  0.1648 -0.4288
  232loPI   C4B 3712  14.802   4.609   9.229 -0.1938 -0.0333 -0.0313
  233loPI    C1 3713   9.699  10.029  11.373  0.1210  0.0152 -0.0703
  233loPI    C2 3714   9.752  10.237  11.711 -0.0435 -0.0482 -0.0046
  233loPI    C3 3715   9.388  10.101  11.614  0.0412 -0.2077 -0.1041
  233loPI   PO4 3716   9.815  10.092  11.194 -0.0455 -0.3231  0.0343
  233loPI   GL1 3717   9.648  10.395  10.808  0.2323 -0.0643  0.0561
  233loPI   GL2 3718   9.342  10.331  10.836  0.0161  0.0323 -0.2258
  233loPI   C1A 3719   9.786  10.195  10.483  0.2345  0.1951 -0.2692
  233loPI   C2A 3720   9.649  10.170  10.078  0.2280  0.0919 -0.0115
  233loPI   C3A 3721   9.670  10.202   9.671  0.1841 -0.0367  0.6349
  233loPI   C4A 3722   9.717  10.119   9.268  0.2380 -0.1623  0.0973
  233loPI   C5A 3723   9.520  10.152   8.864  0.3782  0.1292  0.0895
  233loPI   C6A 3724   9.182  10.319   8.597 -0.0642  0.0718 -0.3739
  233loPI   C1B 3725   9.186  10.492  10.479  0.0186  0.1807  0.0698
  233loPI   C2B 3726   9.146  10.440  10.100  0.2366  0.0590  0.2775
  233loPI   C3B 3727   9.103  10.416   9.611 -0.0116 -0.3260  0.0760
  233loPI   C4B 3728   9.116  10.379   9.078  0.0336 -0.3709  0.2119
  234loPI    C1 3729   6.484  12.295  11.476  0.0076  0.1179 -0.1405
  234loPI    C2 3730   6.101  12.379  11.554  0.0270  0.0260  0.0594
  234loPI    C3 3731   6.392  12.555  11.765  0.1021  0.2088 -0.1915
  234loPI   PO4 3732   6.590  12.284  11.166 -0.0823 -0.1957  0.1676
  234loPI   GL1 3733   6.722  12.175  10.666 -0.1418 -0.2635  0.0496
  234loPI   GL2 3734   6.688  12.526  10.591  0.0474 -0.0318 -0.2062
  234loPI   C1A 3735   6.783  12.068  10.235 -0.1202 -0.2196 -0.0617
  234loPI   C2A 3736   6.756  12.037   9.909 -0.0252 -0.0094 -0.2530
  234loPI   C3A 3737   6.812  12.117   9.562  0.1627  0.1570  0.2067
  234loPI   C4A 3738   6.634  12.218   9.149  0.0434  0.1441 -0.0088
  234loPI   C5A 3739   6.735  12.157   8.739 -0.1351 -0.1117 -0.0105
  234loPI   C6A 3740   6.736  11.970   8.359 -0.1952  0.1678  0.1880
  234loPI   C1B 3741   6.683  12.579  10.186 -0.0382  0.2230  0.2684
  234loPI   C2B 3742   6.775  12.625   9.742  0.1468 -0.2110  0.0110
  234loPI   C3B 3743   6.666  12.652   9.419 -0.3052 -0.1527 -0.1356
  234loPI   C4B 3744   6.813  12.628   8.923 -0.0909 -0.0216  0.0230
  235loPI    C1 3745   8.294   2.587  11.323 -0.0291 -0.0786 -0.0358
  235loPI    C2 3746   8.556   2.570  11.624 -0.1964  0.0471  0.1197
  235loPI    C3 3747   8.178   2.453  11.681 -0.1801 -0.1195 -0.0991
  235loPI   PO4 3748   8.482   2.426  11.105  0.1854 -0.0021 -0.0976
  235loPI   GL1 3749   8.368   2.496  10.702 -0.0924  0.3734 -0.0590
  235loPI   GL2 3750   8.254   2.806  10.649 -0.0801 -0.1645  0.1017
  235loPI   C1A 3751   8.491   2.282  10.387 -0.0160 -0.0491  0.0904
  235loPI   C2A 3752   8.541   2.203   9.892  0.0138 -0.1399  0.1204
  235loPI   C3A 3753   8.483   2.216   9.420  0.0108 -0.0279 -0.1776
  235loPI   C4A 3754   8.482   2.207   8.929 -0.2768  0.1642 -0.2258
  235loPI   C5A 3755   8.096   2.134   8.713  0.0935 -0.4056 -0.0848
  235loPI   C6A 3756   7.925   2.088   8.295 -0.1889 -0.0901  0.2427
  235loPI   C1B 3757   8.245   2.701  10.157  0.0551 -0.1124  0.1726
  235loPI   C2B 3758   8.210   2.567   9.754  0.0711 -0.2797  0.0369
  235loPI   C3B 3759   8.354   2.669   9.322 -0.0588 -0.0594 -0.2842
  235loPI   C4B 3760   8.292   2.655   8.879 -0.2562 -0.2417 -0.0379
  236loPI    C1 3761  10.884   5.971  11.218  0.2704  0.1242  0.1007
  236loPI    C2 3762  10.674   6.291  11.336  0.0382 -0.0106  0.0574
  236loPI    C3 3763  10.834   6.045  11.608  0.1541  0.1008  0.0906
  236loPI   PO4 3764  10.785   5.869  11.014 -0.1924  0.2036 -0.1918
  236loPI   GL1 3765  10.762   6.023  10.598 -0.0492 -0.4619 -0.1858
  236loPI   GL2 3766  11.087   6.051  10.647 -0.1414 -0.0414 -0.4301
  236loPI   C1A 3767  10.826   5.991  10.190 -0.1232  0.1231 -0.2109
  236loPI   C2A 3768  10.778   5.961   9.825 -0.2539  0.2874 -0.0998
  236loPI   C3A 3769  11.030   5.911   9.505  0.1536 -0.3658 -0.1503
  236loPI   C4A 3770  11.026   6.020   9.134 -0.0047 -0.1600  0.0428
  236loPI   C5A 3771  10.905   6.114   8.749  0.0956 -0.3951  0.0205
  236loPI   C6A 3772  10.977   5.941   8.294  0.1328  0.0294  0.1680
  236loPI   C1B 3773  11.294   5.832  10.313 -0.0043  0.1789 -0.2923
  236loPI   C2B 3774  11.222   5.620   9.914  0.0213  0.1411  0.2707
  236loPI   C3B 3775  11.265   5.471   9.492 -0.0703  0.1211  0.0301
  236loPI   C4B 3776  11.265   5.335   9.093 -0.2214 -0.5167 -0.0837
  237loPI    C1 3777  15.540   1.134  11.925  0.1100 -0.0493  0.0477
  237loPI    C2 3778  15.537   1.242  12.310  0.1660 -0.0288  0.0427
  237loPI    C3 3779  15.595   0.859  12.211  0.1416 -0.0357  0.0548
  237loPI   PO4 3780  15.475   1.229  11.719 -0.0880  0.0046  0.0505
  237loPI   GL1 3781  15.247   1.168  11.292 -0.3145 -0.3082 -0.1180
  237loPI   GL2 3782  15.552   1.098  11.257 -0.1285  0.1295 -0.1125
  237loPI   C1A 3783  15.299   1.480  10.844 -0.0100 -0.0459  0.2211
  237loPI   C2A 3784  15.129   1.513  10.421  0.0918  0.2300  0.0561
  237loPI   C3A 3785  15.192   1.434  10.066  0.1439 -0.0354  0.0289
  237loPI   C4A 3786  15.174   1.432   9.600  0.0738  0.0130 -0.0955
  237loPI   C5A 3787  15.268   1.356   9.207  0.0042  0.2163 -0.0575
  237loPI   C6A 3788  15.239   1.278   8.755 -0.2751 -0.0149 -0.0834
  237loPI   C1B 3789  15.537   1.048  10.854  0.1472 -0.0903  0.1616
  237loPI   C2B 3790  15.456   1.018  10.458  0.0964 -0.2005 -0.2893
  237loPI   C3B 3791  15.418   0.920  10.055  0.2709 -0.2584  0.0226
  237loPI   C4B 3792  15.434   0.953   9.556 -0.1689  0.2512 -0.0085
  238loPI    C1 3793  10.195   0.251  11.498 -0.0916 -0.1461  0.1115
  238loPI    C2 3794  10.398   0.336  11.833  0.0791 -0.2870  0.0453
  238loPI    C3 3795  10.071   0.105  11.849  0.0598 -0.2545  0.1208
  238loPI   PO4 3796  10.320   0.496  11.340 -0.1411  0.0814 -0.0673
  238loPI   GL1 3797  10.694   0.518  11.010  0.0396 -0.0606 -0.1440
  238loPI   GL2 3798  10.494   0.846  10.997 -0.0063  0.0252 -0.1039
  238loPI   C1A 3799  10.667   0.542  10.558  0.0483  0.1342 -0.1044
  238loPI   C2A 3800  10.633   0.509  10.097 -0.1843  0.0222 -0.1412
  238loPI   C3A 3801  10.624   0.495   9.768 -0.1517  0.1247 -0.0783
  238loPI   C4A 3802  10.585   0.482   9.275 -0.0862 -0.1601 -0.2216
  238loPI   C5A 3803  10.845   0.491   8.908 -0.1783  0.0030  0.0704
  238loPI   C6A 3804  10.988   0.242   8.572 -0.2300 -0.1484 -0.3646
  238loPI   C1B 3805  10.358   0.906  10.569 -0.1103 -0.2578  0.2788
  238loPI   C2B 3806  10.356   0.947  10.139 -0.1472  0.1431 -0.3012
  238loPI   C3B 3807  10.287   1.041   9.811  0.0551  0.0040  0.0987
  238loPI   C4B 3808  10.298   0.942   9.342 -0.0588 -0.2036 -0.2622
  239loPI    C1 3809   1.544  15.120  11.197 -0.1577 -0.0909 -0.4190
  239loPI    C2 3810   1.299  14.804  11.188 -0.1780 -0.0922 -0.0088
  239loPI    C3 3811   1.512  14.883  11.517 -0.0772  0.2510 -0.1520
  239loPI   PO4 3812   1.593  15.141  10.976  0.3520 -0.1891  0.3845
  239loPI   GL1 3813   1.392  14.987  10.651  0.2537 -0.1418  0.0148
  239loPI   GL2 3814   1.235  14.766  10.569  0.1639 -0.2372  0.0807
  239loPI   C1A 3815   0.989  15.151  10.414  0.0393  0.0297  0.5313
  239loPI   C2A 3816   0.974  15.311  10.063 -0.2712 -0.1477 -0.0758
  239loPI   C3A 3817   0.887  15.271   9.555 -0.0059 -0.0072  0.2595
  239loPI   C4A 3818   0.829  15.278   9.083  0.2832 -0.1502  0.2412
  239loPI   C5A 3819   0.539  15.225   8.722  0.0031  0.0962  0.0406
  239loPI   C6A 3820   0.414  14.860   8.570  0.2632 -0.1024  0.1635
  239loPI   C1B 3821   1.309  14.895  10.132 -0.2965 -0.1482 -0.4152
  239loPI   C2B 3822   1.434  15.259   9.764  0.0583  0.0815 -0.2653
  239loPI   C3B 3823   1.434  15.265   9.302  0.0179  0.1284  0.0617
  239loPI   C4B 3824   1.666  15.215   8.929  0.4953 -0.0217  0.0489
  240loPI    C1 3825   3.325  12.327  11.515  0.0070  0.0838  0.0320
  240loPI    C2 3826   3.408  12.431  11.892  0.2352  0.0786 -0.0155
  240loPI    C3 3827   3.074  12.565  11.717  0.0904  0.0209  0.2117
  240loPI   PO4 3828   3.503  12.363  11.280  0.0478  0.1561  0.2368
  240loPI   GL1 3829   3.636  12.111  11.042  0.0516 -0.1690 -0.0796
  240loPI   GL2 3830   3.919  12.298  10.992 -0.2172 -0.1628 -0.0062
  240loPI   C1A 3831   3.554  12.081  10.625 -0.2371 -0.5587  0.1000
  240loPI   C2A 3832   3.548  12.020  10.146 -0.0233 -0.3395  0.2061
  240loPI   C3A 3833   3.558  11.995   9.707  0.2808  0.0484 -0.1634
  240loPI   C4A 3834   3.602  12.032   9.309  0.0463  0.0572 -0.0179
  240loPI   C5A 3835   3.492  12.153   8.918  0.1757 -0.2252  0.1068
  240loPI   C6A 3836   3.584  12.354   8.455  0.1958 -0.0280 -0.0315
  240loPI   C1B 3837   4.044  12.359  10.492 -0.0994 -0.0078  0.0724
  240loPI   C2B 3838   4.022  12.309  10.131  0.0276  0.1522 -0.3080
  240loPI   C3B 3839   4.043  12.362   9.657  0.1404 -0.2387  0.1939
  240loPI   C4B 3840   3.906  12.395   9.235  0.1494  0.1010  0.0800
  241loPI    C1 3841  16.523  16.922  11.898  0.2025 -0.1788  0.0165
  241loPI    C2 3842  16.854  16.950  12.122  0.0274  0.0091  0.2566
  241loPI    C3 3843  16.546  16.726  12.246  0.0204 -0.0772  0.0869
  241loPI   PO4 3844  16.608  17.001  11.666 -0.0050  0.3279 -0.1308
  241loPI   GL1 3845  16.217  16.986  11.284 -0.0541 -0.0344  0.1140
  241loPI   GL2 3846  16.517  17.003  11.161 -0.1103 -0.0337  0.3604
  241loPI   C1A 3847  16.091  16.948  10.863 -0.0013 -0.2385 -0.0209
  241loPI   C2A 3848  16.098  16.958  10.447 -0.0328 -0.3017  0.1287
  241loPI   C3A 3849  16.058  16.893  10.010  0.2145 -0.0483  0.2271
  241loPI   C4A 3850  15.989  16.922   9.601 -0.0900  0.3005 -0.0678
  241loPI   C5A 3851  15.996  16.932   9.103  0.0615  0.1590 -0.2190
  241loPI   C6A 3852  16.309  17.070   8.851  0.0384 -0.0037 -0.0438
  241loPI   C1B 3853  16.601  16.899  10.624 -0.1753 -0.0550 -0.0124
  241loPI   C2B 3854  16.610  16.900  10.150 -0.4090  0.1673 -0.0583
  241loPI   C3B 3855  16.534  16.930   9.746 -0.0085  0.1719  0.0712
  241loPI   C4B 3856  16.522  16.902   9.316 -0.1311 -0.0797 -0.1155
  242loPI    C1 3857   9.095  16.743  11.558  0.0426  0.2304 -0.1219
  242loPI    C2 3858   9.088  16.918  11.918  0.1291  0.0935 -0.0529
  242loPI    C3 3859   8.749  16.781  11.755  0.1170 -0.0121  0.0599
  242loPI   PO4 3860   9.179  16.863  11.408 -0.3665  0.1934 -0.1689
  242loPI   GL1 3861   9.263  17.085  11.064  0.0300 -0.2109  0.1244
  242loPI   GL2 3862   9.037  17.330  10.952 -0.0269 -0.3749 -0.0554
  242loPI   C1A 3863   8.951  16.877  10.695 -0.0881  0.1535  0.1818
  242loPI   C2A 3864   8.911  16.770  10.208 -0.0247  0.0770 -0.1871
  242loPI   C3A 3865   8.963  16.793   9.770 -0.0043  0.5204  0.1991
  242loPI   C4A 3866   8.901  16.742   9.271 -0.2417  0.0293  0.0787
  242loPI   C5A 3867   8.971  16.744   8.833 -0.2085  0.0477 -0.0364
  242loPI   C6A 3868   8.980  17.110   8.582 -0.0746 -0.2164 -0.4063
  242loPI   C1B 3869   9.207  17.243  10.505  0.3166  0.1119 -0.0015
  242loPI   C2B 3870   9.103  17.239  10.000 -0.2744 -0.1710  0.1285
  242loPI   C3B 3871   9.125  17.169   9.489  0.1828 -0.0311 -0.2910
  242loPI   C4B 3872   9.213  17.124   9.101 -0.2087 -0.0739 -0.1605
  243loPI    C1 3873  12.531   8.901  11.234  0.1068  0.2627  0.1626
  243loPI    C2 3874  12.225   8.945  11.487 -0.2103 -0.2043 -0.1230
  243loPI    C3 3875  12.364   8.580  11.405  0.3851 -0.0029 -0.0538
  243loPI   PO4 3876  12.426   8.972  11.012 -0.1829 -0.0748  0.0232
  243loPI   GL1 3877  12.348   9.355  10.698  0.1452  0.1793 -0.1199
  243loPI   GL2 3878  11.984   9.550  10.649 -0.0662  0.1591  0.0820
  243loPI   C1A 3879  12.392   9.389  10.308  0.1551 -0.2457  0.1497
  243loPI   C2A 3880  12.462   9.306   9.889 -0.1176  0.1534 -0.0438
  243loPI   C3A 3881  12.399   9.253   9.462  0.3297  0.1823 -0.1949
  243loPI   C4A 3882  12.322   9.231   9.010  0.3064  0.0435  0.0305
  243loPI   C5A 3883  12.244   9.176   8.668 -0.0299  0.1546 -0.3462
  243loPI   C6A 3884  11.872   9.230   8.391 -0.0351 -0.0550 -0.1907
  243loPI   C1B 3885  11.930   9.585  10.285  0.1137  0.2357  0.0929
  243loPI   C2B 3886  11.989   9.506   9.822 -0.0881 -0.0585  0.0677
  243loPI   C3B 3887  11.939   9.383   9.390  0.0807  0.0449  0.3374
  243loPI   C4B 3888  11.935   9.510   8.873  0.1417 -0.4612 -0.2371
  244loPI    C1 3889  14.362   8.149  11.662 -0.1884  0.0664  0.1820
  244loPI    C2 3890  14.716   7.990  11.759 -0.1160  0.2199  0.1725
  244loPI    C3 3891  14.403   7.947  12.004 -0.1386 -0.0697  0.0961
  244loPI   PO4 3892  14.508   8.264  11.362 -0.0280 -0.1186  0.0470
  244loPI   GL1 3893  14.588   8.408  10.877 -0.2436  0.0236 -0.0179
  244loPI   GL2 3894  14.515   8.133  10.876 -0.0711  0.2156  0.1114
  244loPI   C1A 3895  14.270   8.447  10.493 -0.0454  0.0607 -0.2270
  244loPI   C2A 3896  14.297   8.346  10.093 -0.0357  0.0112  0.1113
  244loPI   C3A 3897  14.334   8.327   9.704 -0.1081 -0.0974 -0.0224
  244loPI   C4A 3898  14.316   8.295   9.288  0.0258  0.3628  0.1549
  244loPI   C5A 3899  14.453   8.449   8.881 -0.4694  0.1960  0.1014
  244loPI   C6A 3900  14.785   8.502   8.722 -0.3219 -0.1468 -0.0687
  244loPI   C1B 3901  14.730   8.135  10.476  0.0372 -0.2528  0.4378
  244loPI   C2B 3902  14.841   8.084   9.969 -0.0812  0.4248 -0.0703
  244loPI   C3B 3903  14.739   8.056   9.565  0.2267 -0.0993 -0.1483
  244loPI   C4B 3904  14.764   8.102   9.140 -0.1572 -0.4331  0.2577
  245loPI    C1 3905  12.606   5.486  11.515 -0.1464  0.1777  0.1102
  245loPI    C2 3906  12.793   5.148  11.620 -0.0814  0.1695 -0.0292
  245loPI    C3 3907  12.825   5.473  11.850 -0.1057  0.0948  0.0810
  245loPI   PO4 3908  12.654   5.474  11.132 -0.0849  0.2905  0.2297
  245loPI   GL1 3909  12.579   5.691  10.753  0.0902 -0.1306 -0.0621
  245loPI   GL2 3910  12.356   5.357  10.734 -0.0295 -0.1013  0.1637
  245loPI   C1A 3911  12.725   6.018  10.466 -0.0739 -0.0865 -0.1344
  245loPI   C2A 3912  12.770   6.242  10.067  0.0944 -0.2952 -0.1589
  245loPI   C3A 3913  12.708   6.174   9.692 -0.0191 -0.1819 -0.0055
  245loPI   C4A 3914  12.605   6.020   9.307 -0.1109 -0.0665 -0.3145
  245loPI   C5A 3915  12.501   5.939   8.839 -0.0868  0.4140 -0.0898
  245loPI   C6A 3916  12.471   6.135   8.421  0.1690 -0.0882 -0.0192
  245loPI   C1B 3917  12.327   5.435  10.328 -0.0421  0.1227  0.1510
  245loPI   C2B 3918  12.367   5.387   9.931  0.1974  0.1270 -0.2173
  245loPI   C3B 3919  12.531   5.137   9.632 -0.1731  0.0777 -0.0731
  245loPI   C4B 3920  12.579   4.889   9.265  0.1764 -0.1260 -0.1430
  246loPI    C1 3921  16.841   7.963  11.552 -0.0861 -0.0928 -0.1216
  246loPI    C2 3922  17.197   7.836  11.684  0.0632  0.4108 -0.0153
  246loPI    C3 3923  16.893   7.883  11.940 -0.0622  0.0582 -0.0929
  246loPI   PO4 3924  16.729   7.896  11.370 -0.1564  0.0789 -0.1914
  246loPI   GL1 3925  16.675   7.802  10.972 -0.1081 -0.1102  0.0285
  246loPI   GL2 3926  16.973   7.973  10.886 -0.2086  0.0710 -0.3271
  246loPI   C1A 3927  16.686   7.776  10.510  0.1841  0.1257 -0.3660
  246loPI   C2A 3928  16.692   7.712  10.059 -0.2692 -0.0002  0.0269
  246loPI   C3A 3929  16.587   7.728   9.674 -0.1056 -0.2985 -0.0432
  246loPI   C4A 3930  16.585   7.710   9.259  0.3042 -0.3409  0.2405
  246loPI   C5A 3931  16.569   7.835   8.821 -0.1769  0.1606 -0.0672
  246loPI   C6A 3932  16.351   8.042   8.486 -0.2316 -0.2509  0.2185
  246loPI   C1B 3933  17.146   8.048  10.494  0.3003 -0.3557  0.2698
  246loPI   C2B 3934  17.097   8.094  10.030  0.1888 -0.0835 -0.0588
  246loPI   C3B 3935  16.996   8.095   9.615 -0.1116  0.2729 -0.0301
  246loPI   C4B 3936  17.095   8.120   9.121  0.2228  0.0382 -0.1546
  247loPI    C1 3937  14.845   1.147  11.875 -0.0031  0.0208 -0.0224
  247loPI    C2 3938  15.111   1.036  12.152 -0.0918 -0.1192  0.0079
  247loPI    C3 3939  14.802   1.268  12.253  0.0676  0.1200 -0.0458
  247loPI   PO4 3940  14.933   1.198  11.721 -0.1773 -0.1322 -0.1019
  247loPI   GL1 3941  14.781   1.228  11.319 -0.0266 -0.1504 -0.0053
  247loPI   GL2 3942  14.851   1.515  11.081  0.3247 -0.0037 -0.1001
  247loPI   C1A 3943  14.941   1.050  10.959  0.0934  0.0714 -0.3792
  247loPI   C2A 3944  14.973   1.050  10.576  0.0431 -0.0153  0.1763
  247loPI   C3A 3945  14.903   0.996  10.184  0.0932  0.3211  0.2968
  247loPI   C4A 3946  14.991   0.969   9.841  0.2306  0.3108  0.3086
  247loPI   C5A 3947  14.934   0.930   9.428  0.2322 -0.1903 -0.4070
  247loPI   C6A 3948  14.668   1.007   9.090 -0.0313  0.0727 -0.0157
  247loPI   C1B 3949  14.677   1.490  10.692 -0.0363 -0.0808 -0.0676
  247loPI   C2B 3950  14.657   1.482  10.270 -0.0720  0.1636  0.0901
  247loPI   C3B 3951  14.731   1.417   9.824 -0.1866  0.1786 -0.0187
  247loPI   C4B 3952  14.724   1.415   9.406  0.2296 -0.0159 -0.0149
  248loPI    C1 3953   5.965   0.960  11.661 -0.1290 -0.0070 -0.1759
  248loPI    C2 3954   6.024   0.581  11.547  0.1278  0.0527 -0.2481
  248loPI    C3 3955   6.033   0.676  11.935 -0.3221 -0.0778 -0.1995
  248loPI   PO4 3956   5.789   1.024  11.467  0.0430  0.0393  0.0588
  248loPI   GL1 3957   5.777   1.156  11.020 -0.0434  0.1794  0.1901
  248loPI   GL2 3958   6.018   1.099  10.853  0.2655  0.0330 -0.0211
  248loPI   C1A 3959   5.471   1.303  10.717  0.0930  0.0937  0.0339
  248loPI   C2A 3960   5.442   1.229  10.399 -0.1317 -0.0608 -0.1240
  248loPI   C3A 3961   5.470   1.264  10.026 -0.1835 -0.1564  0.1032
  248loPI   C4A 3962   5.525   1.277   9.497 -0.0061  0.2040 -0.0620
  248loPI   C5A 3963   5.606   1.228   9.071 -0.0620 -0.0355 -0.1096
  248loPI   C6A 3964   5.491   1.405   8.646 -0.1319 -0.3904 -0.2875
  248loPI   C1B 3965   5.955   1.265  10.427  0.3802 -0.2185  0.1665
  248loPI   C2B 3966   5.968   1.249  10.007 -0.0560 -0.5762  0.2224
  248loPI   C3B 3967   6.022   1.218   9.584  0.1108  0.0938 -0.0125
  248loPI   C4B 3968   6.082   1.094   9.158  0.1645  0.0603  0.0373
  249loPI    C1 3969   5.685   4.462  11.856 -0.1352  0.0977 -0.1100
  249loPI    C2 3970   5.901   4.757  12.020  0.0409 -0.0411 -0.0898
  249loPI    C3 3971   5.936   4.383  12.157 -0.2832 -0.0498 -0.0242
  249loPI   PO4 3972   5.760   4.506  11.564 -0.1038 -0.0215  0.0102
  249loPI   GL1 3973   5.764   4.699  11.165  0.1883  0.1811 -0.0953
  249loPI   GL2 3974   5.891   5.027  11.075 -0.3828  0.0602  0.0639
  249loPI   C1A 3975   5.676   4.557  10.807 -0.1411 -0.1699  0.0859
  249loPI   C2A 3976   5.629   4.349  10.310 -0.0122 -0.0802  0.1271
  249loPI   C3A 3977   5.760   4.289   9.953  0.1267 -0.2332  0.3040
  249loPI   C4A 3978   5.693   4.320   9.495 -0.0106 -0.1854 -0.0460
  249loPI   C5A 3979   5.786   4.378   9.061  0.3270 -0.0571  0.0725
  249loPI   C6A 3980   6.093   4.565   8.800  0.1905 -0.2791  0.1426
  249loPI   C1B 3981   5.915   4.934  10.573  0.0362  0.0773  0.0155
  249loPI   C2B 3982   5.924   4.744  10.185  0.0020  0.1282  0.2517
  249loPI   C3B 3983   5.869   4.738   9.638 -0.0925  0.1428  0.1847
  249loPI   C4B 3984   5.873   4.822   9.201  0.0582  0.0487 -0.0807
  250loPI    C1 3985   7.855  12.370  11.069 -0.0169 -0.2004  0.0137
  250loPI    C2 3986   7.630  12.218  11.363 -0.2879  0.1336 -0.0155
  250loPI    C3 3987   7.462  12.324  11.016 -0.0123 -0.0111 -0.1973
  250loPI   PO4 3988   8.177  12.229  11.031  0.0099 -0.0718 -0.4370
  250loPI   GL1 3989   8.586  12.333  10.904 -0.0717 -0.2845  0.0145
  250loPI   GL2 3990   8.807  12.038  10.909  0.4652 -0.0271 -0.2046
  250loPI   C1A 3991   8.586  12.221  10.433 -0.2003  0.1914  0.1261
  250loPI   C2A 3992   8.642  12.082  10.015  0.2141  0.0327 -0.0386
  250loPI   C3A 3993   8.586  12.124   9.582  0.2494 -0.1786 -0.4183
  250loPI   C4A 3994   8.589  12.236   9.240  0.0086 -0.0069  0.0075
  250loPI   C5A 3995   8.657  12.376   8.798  0.1826  0.0961  0.1749
  250loPI   C6A 3996   8.581  12.507   8.385 -0.1531  0.2077  0.2568
  250loPI   C1B 3997   8.995  11.957  10.465  0.4931 -0.0502 -0.2596
  250loPI   C2B 3998   9.126  11.948  10.036 -0.2643  0.0080 -0.2669
  250loPI   C3B 3999   9.010  11.900   9.659  0.1438 -0.0570  0.2779
  250loPI   C4B 4000   9.012  11.940   9.279  0.0505  0.0702 -0.2981
  251loPI    C1 4001   4.050  11.054  11.355  0.0775 -0.0590  0.1868
  251loPI    C2 4002   4.131  10.795  11.648 -0.1259 -0.2068  0.1146
  251loPI    C3 4003   3.900  11.113  11.721  0.1419 -0.0308  0.2087
  251loPI   PO4 4004   4.070  10.954  11.130 -0.0377 -0.1322 -0.2480
  251loPI   GL1 4005   4.328  10.942  10.914 -0.1742 -0.0760 -0.0731
  251loPI   GL2 4006   4.584  10.971  10.917 -0.1516  0.1632 -0.0307
  251loPI   C1A 4007   4.195  10.888  10.439 -0.1344 -0.1979 -0.0225
  251loPI   C2A 4008   4.195  10.844  10.018 -0.0148 -0.3662 -0.1667
  251loPI   C3A 4009   4.079  10.908   9.502  0.2589  0.1292 -0.0901
  251loPI   C4A 4010   4.165  10.917   9.068 -0.3393  0.0693 -0.1910
  251loPI   C5A 4011   4.313  10.875   8.619 -0.1697 -0.1942  0.1201
  251loPI   C6A 4012   4.554  10.566   8.494 -0.0030  0.0047 -0.1488
  251loPI   C1B 4013   4.584  11.167  10.505  0.0490 -0.2520 -0.0304
  251loPI   C2B 4014   4.681  11.060  10.182 -0.0618  0.1328  0.0540
  251loPI   C3B 4015   4.641  11.129   9.767 -0.1318  0.0981 -0.1130
  251loPI   C4B 4016   4.490  11.134   9.407 -0.3109  0.1205 -0.1532
  252loPI    C1 4017   3.414   8.791  11.640  0.1140 -0.0949 -0.0212
  252loPI    C2 4018   3.693   9.065  11.725 -0.0454  0.0050  0.1911
  252loPI    C3 4019   3.587   8.795  12.001 -0.1698 -0.0222  0.1175
  252loPI   PO4 4020   3.544   8.701  11.387 -0.1334  0.0052  0.2196
  252loPI   GL1 4021   3.450   8.596  11.030  0.0917  0.2071 -0.0368
  252loPI   GL2 4022   3.476   8.304  10.967 -0.2317  0.1615 -0.2150
  252loPI   C1A 4023   3.550   8.656  10.604  0.0194  0.0259 -0.0159
  252loPI   C2A 4024   3.602   8.604  10.187  0.0477  0.2330 -0.2039
  252loPI   C3A 4025   3.431   8.595   9.784  0.0331 -0.3735 -0.0068
  252loPI   C4A 4026   3.345   8.669   9.375 -0.0266  0.1449  0.1938
  252loPI   C5A 4027   3.436   8.633   8.940 -0.1475  0.1914  0.1717
  252loPI   C6A 4028   3.418   8.535   8.454  0.1017 -0.0596  0.1817
  252loPI   C1B 4029   3.507   8.150  10.521 -0.1047 -0.2812 -0.2903
  252loPI   C2B 4030   3.497   8.082  10.000 -0.0376  0.4573  0.0038
  252loPI   C3B 4031   3.400   8.147   9.588  0.0529 -0.0180 -0.1695
  252loPI   C4B 4032   3.473   8.201   9.211  0.0010  0.0057  0.2111
  253loPI    C1 4033  13.578   4.268  11.876  0.0991  0.0327  0.0536
  253loPI    C2 4034  13.841   4.079  12.111 -0.1705 -0.1894  0.1821
  253loPI    C3 4035  13.634   4.390  12.253  0.2920  0.2321 -0.0375
  253loPI   PO4 4036  13.629   4.116  11.600 -0.1577 -0.0723 -0.2039
  253loPI   GL1 4037  13.574   4.081  11.263 -0.0800 -0.1880 -0.0119
  253loPI   GL2 4038  13.724   3.881  11.188 -0.1413  0.5209  0.3983
  253loPI   C1A 4039  13.824   4.396  11.084 -0.0254  0.0218  0.3997
  253loPI   C2A 4040  14.049   4.306  10.853 -0.0154 -0.2120  0.4506
  253loPI   C3A 4041  14.075   4.216  10.437  0.1483  0.0681  0.1185
  253loPI   C4A 4042  14.161   4.081  10.117  0.3338  0.3237  0.2094
  253loPI   C5A 4043  14.108   4.099   9.803  0.1067 -0.0982 -0.0843
  253loPI   C6A 4044  14.065   4.038   9.307  0.1773  0.0951 -0.0609
  253loPI   C1B 4045  13.756   3.922  10.751 -0.1560  0.1843  0.0519
  253loPI   C2B 4046  13.809   3.786  10.374 -0.1463 -0.0033  0.1003
  253loPI   C3B 4047  13.876   3.735   9.940 -0.2416 -0.2157 -0.2939
  253loPI   C4B 4048  13.823   3.521   9.607 -0.0842  0.0415  0.0467
  254loPI    C1 4049  12.512  14.519  11.503  0.0411 -0.0579 -0.2009
  254loPI    C2 4050  12.858  14.670  11.636 -0.1008 -0.0894  0.2190
  254loPI    C3 4051  12.784  14.278  11.672 -0.1976 -0.0760  0.1687
  254loPI   PO4 4052  12.540  14.558  11.250 -0.0241  0.0783  0.0342
  254loPI   GL1 4053  12.421  14.474  10.833 -0.0322  0.0426 -0.2767
  254loPI   GL2 4054  12.150  14.601  10.775  0.1842  0.0878 -0.1474
  254loPI   C1A 4055  12.502  14.210  10.558 -0.0819 -0.1161 -0.0227
  254loPI   C2A 4056  12.535  14.188  10.174 -0.0096 -0.2133 -0.3242
  254loPI   C3A 4057  12.601  14.110   9.732  0.0331  0.0119  0.0156
  254loPI   C4A 4058  12.748  14.069   9.364  0.1404 -0.1595 -0.2558
  254loPI   C5A 4059  12.785  13.954   9.021  0.1621  0.0856  0.2888
  254loPI   C6A 4060  12.660  13.683   8.638 -0.2368 -0.1610  0.1941
  254loPI   C1B 4061  12.200  14.591  10.332 -0.1580  0.0156 -0.3313
  254loPI   C2B 4062  12.407  14.561   9.882  0.2890 -0.3978 -0.0123
  254loPI   C3B 4063  12.381  14.514   9.441 -0.1013 -0.4259 -0.0963
  254loPI   C4B 4064  12.316  14.494   9.024 -0.1149 -0.0536 -0.3280
  255loPI    C1 4065  13.551   8.582  11.382 -0.1095 -0.1863 -0.1324
  255loPI    C2 4066  13.210   8.375  11.350 -0.0844 -0.2779  0.1669
  255loPI    C3 4067  13.336   8.500  11.709  0.0365  0.0297  0.0209
  255loPI   PO4 4068  13.590   8.637  11.127  0.0174  0.1984 -0.0056
  255loPI   GL1 4069  13.829   8.665  10.689 -0.0130  0.1227 -0.1318
  255loPI   GL2 4070  13.587   8.430  10.546 -0.1712  0.4581  0.3587
  255loPI   C1A 4071  13.838   8.627  10.183  0.1299  0.2346 -0.1434
  255loPI   C2A 4072  13.774   8.672   9.667 -0.2498 -0.2315 -0.1429
  255loPI   C3A 4073  13.895   8.594   9.303  0.1859  0.3286 -0.1505
  255loPI   C4A 4074  13.885   8.468   8.903 -0.1236 -0.1475 -0.0574
  255loPI   C5A 4075  14.001   8.611   8.631 -0.1810  0.0592  0.1805
  255loPI   C6A 4076  13.853   8.723   8.245  0.1174 -0.0607 -0.5149
  255loPI   C1B 4077  13.396   8.258  10.136  0.0154 -0.2313  0.3457
  255loPI   C2B 4078  13.421   8.275   9.736  0.1316  0.1991 -0.1452
  255loPI   C3B 4079  13.372   8.195   9.295 -0.1125  0.2431 -0.2344
  255loPI   C4B 4080  13.515   8.073   8.773  0.2248  0.0598 -0.0984
  256loPI    C1 4081  11.259   2.631  11.488  0.0206  0.1288  0.1139
  256loPI    C2 4082  11.293   2.271  11.315  0.3186  0.1667  0.0886
  256loPI    C3 4083  11.310   2.304  11.714  0.2177  0.1458  0.0951
  256loPI   PO4 4084  11.275   2.861  11.242 -0.2037 -0.1073 -0.0792
  256loPI   GL1 4085  11.327   2.952  10.862 -0.3793  0.1016  0.1692
  256loPI   GL2 4086  11.505   3.164  10.780  0.0521 -0.2830 -0.0543
  256loPI   C1A 4087  11.265   2.801  10.533  0.2790 -0.0056  0.1609
  256loPI   C2A 4088  11.312   2.853  10.071 -0.1547  0.2965 -0.0731
  256loPI   C3A 4089  11.391   2.753   9.636  0.4139  0.0982 -0.2360
  256loPI   C4A 4090  11.420   2.603   9.220 -0.0278 -0.0633  0.4245
  256loPI   C5A 4091  11.246   2.766   8.879 -0.0255 -0.2005 -0.0257
  256loPI   C6A 4092  11.089   2.994   8.572 -0.2732  0.0802  0.2007
  256loPI   C1B 4093  11.572   3.203  10.300  0.0627 -0.3201 -0.0903
  256loPI   C2B 4094  11.556   3.290   9.810 -0.0295 -0.0905 -0.1567
  256loPI   C3B 4095  11.610   3.156   9.458 -0.0579  0.1786 -0.3069
  256loPI   C4B 4096  11.597   3.070   9.089  0.2194 -0.2408 -0.2767
  257loPI    C1 4097   1.891  15.458  11.240 -0.1389 -0.0532 -0.1826
  257loPI    C2 4098   1.995  15.149  11.471  0.0558  0.1434 -0.0018
  257loPI    C3 4099   1.684  15.379  11.573 -0.0959  0.0041 -0.1420
  257loPI   PO4 4100   2.010  15.388  11.027 -0.2196 -0.2653  0.0408
  257loPI   GL1 4101   1.953  15.308  10.580  0.1333  0.0575 -0.1291
  257loPI   GL2 4102   2.198  15.595  10.572 -0.0010  0.0770  0.1049
  257loPI   C1A 4103   1.769  15.190  10.247  0.1150 -0.0410  0.1651
  257loPI   C2A 4104   1.931  15.266   9.898  0.0518  0.1028  0.3321
  257loPI   C3A 4105   2.008  15.235   9.419 -0.6763 -0.2445 -0.0526
  257loPI   C4A 4106   2.179  15.433   9.032 -0.0246 -0.0080  0.0442
  257loPI   C5A 4107   2.040  15.604   8.751  0.2132 -0.2497 -0.0320
  257loPI   C6A 4108   1.735  15.682   8.497 -0.2051  0.1741  0.1402
  257loPI   C1B 4109   2.232  15.721  10.183 -0.0772  0.4217  0.1559
  257loPI   C2B 4110   2.198  15.729   9.799  0.3625 -0.0049 -0.0969
  257loPI   C3B 4111   2.251  15.794   9.349  0.0068  0.1458  0.3022
  257loPI   C4B 4112   2.393  15.932   8.927 -0.3184  0.0327 -0.0763
  258loPI    C1 4113   8.164   1.854  11.766 -0.0514  0.0429  0.0202
  258loPI    C2 4114   7.792   1.897  11.908 -0.1242 -0.0688 -0.1341
  258loPI    C3 4115   8.074   1.726  12.135 -0.1380  0.1171  0.0250
  258loPI   PO4 4116   8.125   1.698  11.561 -0.0466  0.2031  0.2150
  258loPI   GL1 4117   8.071   1.671  11.183 -0.3208  0.0021  0.1019
  258loPI   GL2 4118   8.215   1.986  11.023 -0.0563 -0.0166  0.0822
  258loPI   C1A 4119   8.064   1.417  10.845 -0.0743  0.2239 -0.1443
  258loPI   C2A 4120   8.037   1.307  10.358 -0.1975 -0.2452  0.1457
  258loPI   C3A 4121   8.081   1.340   9.886 -0.0319  0.2318  0.0901
  258loPI   C4A 4122   8.048   1.274   9.347 -0.0045  0.0921  0.1649
  258loPI   C5A 4123   7.731   1.188   8.982 -0.1779  0.4136  0.2581
  258loPI   C6A 4124   7.933   0.996   8.574  0.0603  0.0052  0.4224
  258loPI   C1B 4125   8.242   1.801  10.608 -0.0219  0.0383  0.1773
  258loPI   C2B 4126   8.283   1.739  10.217  0.1736  0.0610  0.0178
  258loPI   C3B 4127   8.285   1.759   9.703  0.1149  0.0016  0.0425
  258loPI   C4B 4128   8.262   1.794   9.261  0.2588 -0.1087  0.0472
  259loPI    C1 4129  11.834  12.055  11.664 -0.0092 -0.2658  0.1455
  259loPI    C2 4130  11.576  12.083  11.969 -0.1157  0.0997  0.0263
  259loPI    C3 4131  11.806  12.396  11.871  0.0575 -0.0789 -0.1473
  259loPI   PO4 4132  11.673  11.961  11.502 -0.2344 -0.3158  0.0855
  259loPI   GL1 4133  11.709  11.879  11.123  0.0719 -0.2434 -0.0239
  259loPI   GL2 4134  11.763  12.151  10.994  0.1034 -0.2816  0.0971
  259loPI   C1A 4135  11.863  11.738  10.655 -0.1356 -0.1340 -0.4441
  259loPI   C2A 4136  11.843  11.604  10.376  0.0378 -0.0236 -0.0535
  259loPI   C3A 4137  11.737  11.625  10.008 -0.0799  0.1028 -0.0279
  259loPI   C4A 4138  11.701  11.528   9.529 -0.1575 -0.0792 -0.3670
  259loPI   C5A 4139  11.701  11.491   9.142  0.2501  0.1314  0.1356
  259loPI   C6A 4140  11.725  11.661   8.755 -0.1906 -0.0178 -0.0392
  259loPI   C1B 4141  11.833  12.243  10.674 -0.0208  0.1790  0.4372
  259loPI   C2B 4142  11.832  12.159  10.167  0.0980 -0.0417  0.2880
  259loPI   C3B 4143  11.701  12.055   9.710 -0.0117 -0.0474 -0.3260
  259loPI   C4B 4144  11.737  12.003   9.278  0.0710 -0.1215  0.2351
  260loPI    C1 4145  11.476   7.367  11.506  0.2615 -0.0219  0.0094
  260loPI    C2 4146  11.251   7.109  11.713  0.2423  0.1027  0.1451
  260loPI    C3 4147  11.103   7.467  11.611  0.1976 -0.0148 -0.2174
  260loPI   PO4 4148  11.516   7.275  11.243  0.4986 -0.1558  0.0835
  260loPI   GL1 4149  11.702   7.381  10.833 -0.1275 -0.1558  0.0553
  260loPI   GL2 4150  11.632   7.669  10.854 -0.0609  0.1046 -0.4303
  260loPI   C1A 4151  11.860   7.232  10.556  0.2406 -0.0654 -0.4633
  260loPI   C2A 4152  11.777   7.228  10.201  0.0268  0.0349  0.1021
  260loPI   C3A 4153  11.640   7.108   9.856  0.0241  0.1870  0.2142
  260loPI   C4A 4154  11.669   7.032   9.462 -0.1474  0.0907  0.0239
  260loPI   C5A 4155  11.654   7.161   9.016  0.0643 -0.0315 -0.1135
  260loPI   C6A 4156  11.948   7.508   8.785 -0.1264 -0.2391 -0.0284
  260loPI   C1B 4157  11.917   7.822  10.554  0.1633 -0.0679  0.0335
  260loPI   C2B 4158  12.042   7.920  10.185  0.1421  0.1023 -0.0783
  260loPI   C3B 4159  12.075   7.979   9.715 -0.2397  0.2610  0.0016
  260loPI   C4B 4160  12.034   7.783   9.248  0.0841 -0.1719  0.1721
  261loPI    C1 4161  12.565   9.312  11.494 -0.0519 -0.1474  0.1195
  261loPI    C2 4162  12.457   9.545  11.800  0.0207 -0.0724  0.0882
  261loPI    C3 4163  12.474   9.149  11.847 -0.0672 -0.0689  0.1520
  261loPI   PO4 4164  12.430   9.396  11.265  0.1747  0.0851 -0.0917
  261loPI   GL1 4165  12.321   9.767  10.972  0.0561  0.1841  0.0861
  261loPI   GL2 4166  12.714   9.635  10.885 -0.1122  0.2353 -0.0501
  261loPI   C1A 4167  12.341   9.894  10.489 -0.0835 -0.1981  0.0886
  261loPI   C2A 4168  12.383   9.813  10.059  0.0583 -0.0438  0.3085
  261loPI   C3A 4169  12.400   9.774   9.626  0.1127 -0.1079  0.0490
  261loPI   C4A 4170  12.423   9.648   9.216 -0.0101  0.1163  0.0342
  261loPI   C5A 4171  12.486   9.769   8.776  0.1957 -0.1406 -0.2851
  261loPI   C6A 4172  12.343   9.982   8.327  0.1438  0.1047 -0.0522
  261loPI   C1B 4173  12.825   9.616  10.438 -0.0428  0.1959 -0.2858
  261loPI   C2B 4174  12.863   9.624   9.961 -0.0942  0.0002 -0.2746
  261loPI   C3B 4175  12.876   9.611   9.527  0.0956 -0.1043 -0.0547
  261loPI   C4B 4176  12.810   9.360   9.170  0.0913  0.0167 -0.2735
  262loPI    C1 4177   9.303   6.167  10.961  0.0078 -0.0524 -0.2319
  262loPI    C2 4178   9.630   6.101  11.181 -0.0888  0.1166 -0.0335
  262loPI    C3 4179   9.325   5.842  11.193 -0.0705  0.0958 -0.0130
  262loPI   PO4 4180   9.340   6.485  10.976 -0.1931  0.0599  0.0207
  262loPI   GL1 4181   9.514   6.754  10.632 -0.0873 -0.4257  0.0084
  262loPI   GL2 4182   9.514   6.435  10.521 -0.1081  0.0311  0.0406
  262loPI   C1A 4183   9.428   6.835  10.201 -0.1415 -0.0446  0.2034
  262loPI   C2A 4184   9.500   6.921   9.755  0.2910  0.1572  0.0049
  262loPI   C3A 4185   9.542   6.741   9.356  0.0921  0.1770  0.0434
  262loPI   C4A 4186   9.779   6.557   9.051 -0.1359 -0.0567 -0.0795
  262loPI   C5A 4187   9.952   6.439   8.666 -0.1627 -0.0941  0.0818
  262loPI   C6A 4188  10.150   6.454   8.222 -0.0399  0.4562 -0.1043
  262loPI   C1B 4189   9.763   6.474  10.101 -0.0614 -0.0977 -0.1579
  262loPI   C2B 4190  10.018   6.429   9.756  0.2203 -0.2627 -0.0377
  262loPI   C3B 4191  10.242   6.335   9.379  0.4440 -0.5090  0.1365
  262loPI   C4B 4192  10.419   6.247   8.977 -0.1119  0.0146 -0.0505
  263loPI    C1 4193  12.658   4.651  11.394  0.1454  0.0413 -0.0660
  263loPI    C2 4194  12.932   4.544  11.666  0.0723  0.1482  0.0506
  263loPI    C3 4195  12.554   4.614  11.779  0.0850  0.3817 -0.0469
  263loPI   PO4 4196  12.629   4.516  11.207 -0.1452  0.0917  0.1876
  263loPI   GL1 4197  12.777   4.374  10.851  0.0701  0.0671 -0.4542
  263loPI   GL2 4198  12.863   4.675  10.771 -0.0649  0.0805  0.0943
  263loPI   C1A 4199  12.981   4.224  10.541  0.0211  0.1257  0.1374
  263loPI   C2A 4200  13.077   4.093  10.165  0.0583 -0.0307  0.2930
  263loPI   C3A 4201  13.137   4.237   9.883 -0.0252 -0.2278 -0.0093
  263loPI   C4A 4202  13.086   4.089   9.460  0.2904 -0.3280  0.0715
  263loPI   C5A 4203  13.152   4.123   9.043 -0.1681 -0.0603  0.0146
  263loPI   C6A 4204  13.257   4.375   8.676  0.0341  0.0951 -0.0860
  263loPI   C1B 4205  12.828   4.603  10.244  0.2577  0.3188  0.0404
  263loPI   C2B 4206  12.791   4.657   9.739  0.2422  0.0897 -0.3957
  263loPI   C3B 4207  12.819   4.530   9.432 -0.0236 -0.0734  0.2157
  263loPI   C4B 4208  12.759   4.430   9.060 -0.0423  0.2074  0.1009
  264loPI    C1 4209  16.544   1.615  11.972 -0.0993  0.0006 -0.1136
  264loPI    C2 4210  16.485   1.798  12.323  0.3732  0.0037 -0.0281
  264loPI    C3 4211  16.414   1.406  12.287 -0.0684  0.0795 -0.0481
  264loPI   PO4 4212  16.476   1.722  11.773 -0.0124 -0.1100  0.2474
  264loPI   GL1 4213  16.418   1.658  11.370  0.2336 -0.0812  0.3430
  264loPI   GL2 4214  16.226   1.871  11.237 -0.1163  0.3056  0.0406
  264loPI   C1A 4215  16.299   1.533  10.871  0.0011  0.1883  0.3743
  264loPI   C2A 4216  16.170   1.541  10.479 -0.0266  0.2264 -0.1005
  264loPI   C3A 4217  16.193   1.404  10.093 -0.0406 -0.2018  0.0226
  264loPI   C4A 4218  16.218   1.384   9.634 -0.4423  0.1615 -0.0646
  264loPI   C5A 4219  16.344   1.456   9.274  0.1344 -0.1413  0.0388
  264loPI   C6A 4220  16.566   1.684   9.031  0.5413 -0.0381 -0.0015
  264loPI   C1B 4221  16.005   1.964  10.879 -0.0377 -0.3815 -0.1092
  264loPI   C2B 4222  15.898   1.966  10.408  0.1292 -0.4411  0.2143
  264loPI   C3B 4223  15.960   1.874  10.050  0.0977 -0.2363 -0.0459
  264loPI   C4B 4224  15.956   1.901   9.752  0.1579  0.1255 -0.0858
  265loPI    C1 4225  11.070   3.076  11.626  0.1073  0.0006  0.0674
  265loPI    C2 4226  10.796   2.949  11.889 -0.0490  0.2469  0.0274
  265loPI    C3 4227  11.120   3.146  12.017  0.1833 -0.1623  0.0876
  265loPI   PO4 4228  10.920   3.201  11.467 -0.1834 -0.4052  0.0244
  265loPI   GL1 4229  10.920   3.216  11.081 -0.3697 -0.0563 -0.1952
  265loPI   GL2 4230  10.538   3.185  10.999  0.0877 -0.0963  0.0534
  265loPI   C1A 4231  11.004   3.264  10.683 -0.0801 -0.1091 -0.0158
  265loPI   C2A 4232  11.027   3.187  10.295  0.1764  0.1526 -0.1762
  265loPI   C3A 4233  11.055   3.210   9.857  0.1403 -0.1390 -0.0528
  265loPI   C4A 4234  11.058   3.135   9.437  0.0467 -0.0825  0.1847
  265loPI   C5A 4235  11.086   3.207   9.025 -0.3632  0.2032  0.0411
  265loPI   C6A 4236  11.096   3.471   8.643  0.1726 -0.2627  0.2518
  265loPI   C1B 4237  10.518   3.188  10.543 -0.0577  0.3005 -0.0697
  265loPI   C2B 4238  10.514   3.257  10.114 -0.0195 -0.2637  0.1122
  265loPI   C3B 4239  10.603   3.145   9.623  0.4501 -0.0329 -0.1256
  265loPI   C4B 4240  10.512   3.153   9.241 -0.1010 -0.1269  0.1290
  266loPI    C1 4241  16.506   3.550  11.898 -0.1743 -0.1783 -0.0932
  266loPI    C2 4242  16.271   3.530  12.221  0.0338  0.0463  0.0752
  266loPI    C3 4243  16.669   3.527  12.262  0.0623  0.0512 -0.1813
  266loPI   PO4 4244  16.367   3.665  11.702 -0.2037 -0.1408 -0.0680
  266loPI   GL1 4245  16.350   3.830  11.220  0.5250  0.1274 -0.0833
  266loPI   GL2 4246  15.981   3.817  11.095  0.0152  0.0087  0.0538
  266loPI   C1A 4247  16.403   3.705  10.804  0.2674 -0.1495 -0.1453
  266loPI   C2A 4248  16.436   3.695  10.335 -0.2216 -0.0594  0.0908
  266loPI   C3A 4249  16.347   3.698   9.909 -0.0800  0.2935 -0.0353
  266loPI   C4A 4250  16.360   3.621   9.508  0.1475  0.0235 -0.3308
  266loPI   C5A 4251  16.584   3.588   9.101 -0.0388 -0.0485 -0.1138
  266loPI   C6A 4252  16.926   3.428   8.873  0.1235  0.1642  0.1047
  266loPI   C1B 4253  15.821   3.708  10.577 -0.1138 -0.0772 -0.2104
  266loPI   C2B 4254  15.851   3.639  10.176 -0.0312 -0.2830  0.2088
  266loPI   C3B 4255  15.891   3.601   9.764  0.2362  0.0356  0.1170
  266loPI   C4B 4256  15.884   3.629   9.276 -0.4355  0.2138 -0.2185
  267loPI    C1 4257  14.965   2.102  12.064 -0.2340 -0.0367 -0.0606
  267loPI    C2 4258  15.232   1.952  12.321  0.0355  0.1455 -0.2284
  267loPI    C3 4259  14.847   1.980  12.426  0.0926 -0.0501  0.0445
  267loPI   PO4 4260  15.072   1.991  11.795  0.3297  0.0175  0.1410
  267loPI   GL1 4261  14.889   2.123  11.309  0.0868 -0.1585 -0.1732
  267loPI   GL2 4262  14.672   1.971  11.209 -0.1168 -0.0670  0.2776
  267loPI   C1A 4263  14.973   1.903  10.827 -0.1799  0.0741 -0.0652
  267loPI   C2A 4264  14.862   1.918  10.427 -0.1755 -0.2107  0.1990
  267loPI   C3A 4265  15.012   1.914  10.096  0.3406 -0.1418  0.5126
  267loPI   C4A 4266  14.973   1.922   9.680 -0.0590 -0.0238  0.2934
  267loPI   C5A 4267  15.074   1.812   9.210  0.0401  0.1561 -0.2110
  267loPI   C6A 4268  15.154   1.752   8.762 -0.0700  0.1747  0.2047
  267loPI   C1B 4269  14.459   1.935  10.738  0.1299  0.1085  0.2395
  267loPI   C2B 4270  14.394   1.932  10.408  0.2147  0.0776 -0.1702
  267loPI   C3B 4271  14.495   1.902   9.997  0.2403 -0.0215  0.0479
  267loPI   C4B 4272  14.436   1.850   9.600 -0.1336 -0.0251  0.3351
  268loPI    C1 4273   0.096  11.624  11.168  0.0967 -0.1741 -0.0482
  268loPI    C2 4274   0.131  11.399  11.497 -0.1293  0.0071  0.1024
  268loPI    C3 4275   0.250  11.781  11.502 -0.1328  0.0105 -0.0271
  268loPI   PO4 4276   0.148  11.476  11.017  0.1610  0.3109  0.1052
  268loPI   GL1 4277   0.363  11.694  10.686  0.0305 -0.1165  0.1340
  268loPI   GL2 4278   0.432  11.491  10.559 -0.1359  0.2005 -0.0462
  268loPI   C1A 4279   0.014  11.793  10.454 -0.0682  0.0914 -0.1997
  268loPI   C2A 4280  -0.052  11.795  10.054  0.1821  0.0332  0.1437
  268loPI   C3A 4281   0.032  11.718   9.569  0.1501  0.0181  0.1654
  268loPI   C4A 4282   0.115  11.872   9.103 -0.2791 -0.0769 -0.0089
  268loPI   C5A 4283   0.211  12.019   8.683  0.2552 -0.2133  0.3734
  268loPI   C6A 4284   0.642  11.956   8.484  0.0379 -0.1684  0.0782
  268loPI   C1B 4285   0.442  11.605  10.087  0.1314  0.1252 -0.1872
  268loPI   C2B 4286   0.491  11.522   9.672  0.0344  0.1181 -0.0909
  268loPI   C3B 4287   0.536  11.584   9.228 -0.0979  0.0165 -0.1435
  268loPI   C4B 4288   0.527  11.550   8.816  0.1263  0.1216 -0.3571
  269loPI    C1 4289   4.780  13.259  11.357  0.0804  0.1274 -0.1054
  269loPI    C2 4290   4.991  13.455  11.634 -0.2886  0.2671  0.0819
  269loPI    C3 4291   4.799  13.118  11.731 -0.1221  0.1190 -0.0974
  269loPI   PO4 4292   4.609  13.419  11.224  0.1256 -0.2791  0.0808
  269loPI   GL1 4293   4.564  13.672  10.850  0.1614  0.2363  0.1594
  269loPI   GL2 4294   4.803  13.880  10.882  0.3211 -0.0998 -0.0401
  269loPI   C1A 4295   4.391  13.646  10.468 -0.0617  0.0367 -0.1071
  269loPI   C2A 4296   4.291  13.661  10.055 -0.1422 -0.2626 -0.0133
  269loPI   C3A 4297   4.209  13.630   9.686 -0.3130  0.0380  0.1348
  269loPI   C4A 4298   4.364  13.830   9.394 -0.2352 -0.0565  0.2529
  269loPI   C5A 4299   4.549  13.918   9.012  0.0183 -0.1933 -0.1269
  269loPI   C6A 4300   4.673  14.001   8.631 -0.0067 -0.1123  0.1741
  269loPI   C1B 4301   4.736  14.029  10.442  0.3019 -0.1219 -0.0873
  269loPI   C2B 4302   4.791  14.098  10.003 -0.1953 -0.2483 -0.2597
  269loPI   C3B 4303   4.752  14.055   9.562 -0.1532 -0.1320  0.1159
  269loPI   C4B 4304   4.551  14.388   9.269  0.0952  0.0951  0.1157
  270loPI    C1 4305   7.081  12.971  11.358  0.1942 -0.1008 -0.0836
  270loPI    C2 4306   6.825  12.685  11.471  0.2014 -0.1369 -0.1573
  270loPI    C3 4307   6.919  12.981  11.723  0.1332 -0.1562 -0.1088
  270loPI   PO4 4308   7.009  13.054  11.122 -0.0926  0.1377 -0.0632
  270loPI   GL1 4309   7.026  12.987  10.731  0.1290  0.0306 -0.1521
  270loPI   GL2 4310   7.009  13.268  10.618 -0.0590  0.0893 -0.0562
  270loPI   C1A 4311   7.097  12.807  10.369 -0.0253 -0.2631 -0.0100
  270loPI   C2A 4312   7.174  12.785  10.003 -0.1665 -0.0218  0.1719
  270loPI   C3A 4313   7.150  12.978   9.657 -0.1398 -0.0160 -0.0213
  270loPI   C4A 4314   7.057  12.969   9.176  0.0293  0.3017  0.0270
  270loPI   C5A 4315   7.109  13.037   8.719  0.0542  0.0889 -0.1700
  270loPI   C6A 4316   7.457  12.825   8.507  0.0030  0.1710  0.1493
  270loPI   C1B 4317   7.121  13.392  10.291  0.1105 -0.0189 -0.4333
  270loPI   C2B 4318   7.073  13.397   9.852  0.1602 -0.0142  0.1637
  270loPI   C3B 4319   7.135  13.462   9.385 -0.1093  0.0774 -0.1495
  270loPI   C4B 4320   7.010  13.465   9.026  0.1057  0.3579 -0.2463
  271loPI    C1 4321   0.647   6.784  11.360 -0.0201  0.1505  0.1004
  271loPI    C2 4322   0.864   6.624  11.655 -0.1523 -0.1294  0.0497
  271loPI    C3 4323   0.474   6.693  11.709 -0.1107  0.1183  0.0474
  271loPI   PO4 4324   0.802   6.903  11.239  0.0637 -0.0720  0.0199
  271loPI   GL1 4325   0.893   6.780  10.878 -0.0377 -0.0751 -0.0128
  271loPI   GL2 4326   1.032   7.020  10.755  0.2098 -0.1769 -0.2011
  271loPI   C1A 4327   0.660   6.507  10.626 -0.2511  0.1043 -0.3273
  271loPI   C2A 4328   0.508   6.585  10.193 -0.1210 -0.0736  0.0953
  271loPI   C3A 4329   0.430   6.645   9.720 -0.2276 -0.0462 -0.2531
  271loPI   C4A 4330   0.428   6.603   9.315  0.0602  0.0308  0.2101
  271loPI   C5A 4331   0.564   6.282   9.001 -0.1022 -0.0644  0.1498
  271loPI   C6A 4332   0.462   5.904   8.833 -0.0556 -0.2356  0.2052
  271loPI   C1B 4333   0.897   7.024  10.362 -0.0833 -0.0495 -0.1145
  271loPI   C2B 4334   0.807   6.958   9.956 -0.0043  0.2300  0.2025
  271loPI   C3B 4335   0.863   6.888   9.547 -0.0560  0.0819 -0.1085
  271loPI   C4B 4336   0.825   6.899   9.083  0.0895 -0.0073 -0.0591
  272loPI    C1 4337   2.738   0.779  11.611  0.1274 -0.0668 -0.2502
  272loPI    C2 4338   2.438   0.959  11.806  0.0788 -0.2453 -0.1580
  272loPI    C3 4339   2.797   0.925  11.979  0.2178  0.1624 -0.3539
  272loPI   PO4 4340   2.698   0.874  11.405 -0.2751  0.1791  0.1602
  272loPI   GL1 4341   2.469   1.048  10.991 -0.0026 -0.2403 -0.0502
  272loPI   GL2 4342   2.524   1.320  10.948 -0.0446 -0.2854 -0.2921
  272loPI   C1A 4343   2.328   1.117  10.564 -0.1177 -0.1265  0.0462
  272loPI   C2A 4344   2.336   1.223  10.197 -0.2057 -0.0760 -0.0907
  272loPI   C3A 4345   2.403   1.219   9.801 -0.0320  0.0945  0.1292
  272loPI   C4A 4346   2.393   1.121   9.380 -0.0008  0.0362  0.0734
  272loPI   C5A 4347   2.226   1.077   8.963 -0.0283 -0.2170 -0.1835
  272loPI   C6A 4348   2.012   1.240   8.634  0.1608  0.0299 -0.4386
  272loPI   C1B 4349   2.603   1.519  10.498 -0.3604  0.2596  0.0085
  272loPI   C2B 4350   2.689   1.564  10.090 -0.0982  0.0334 -0.0853
  272loPI   C3B 4351   2.710   1.595   9.689  0.2406  0.1340 -0.1419
  272loPI   C4B 4352   2.671   1.595   9.248  0.0201 -0.2137 -0.0072
  273loPI    C1 4353  14.384  12.984  11.238  0.1801  0.2257  0.1364
  273loPI    C2 4354  14.650  13.109  11.510  0.2229  0.0389  0.1823
  273loPI    C3 4355  14.338  12.887  11.624  0.2050  0.0147  0.0874
  273loPI   PO4 4356  14.374  13.213  11.059 -0.1551  0.1558 -0.0187
  273loPI   GL1 4357  14.493  13.233  10.627  0.0804  0.2424 -0.0189
  273loPI   GL2 4358  14.103  13.342  10.596 -0.1516 -0.0957 -0.0312
  273loPI   C1A 4359  14.424  13.318  10.171 -0.0040  0.2383  0.0061
  273loPI   C2A 4360  14.448  13.316   9.787  0.3443 -0.0080  0.1174
  273loPI   C3A 4361  14.292  13.409   9.372  0.2880 -0.0262  0.0213
  273loPI   C4A 4362  14.247  13.393   8.870  0.1262 -0.3066  0.3722
  273loPI   C5A 4363  14.143  13.071   8.565 -0.1054 -0.1138  0.1200
  273loPI   C6A 4364  14.073  13.088   8.157  0.4818  0.2842 -0.1186
  273loPI   C1B 4365  13.971  13.087  10.327 -0.2697 -0.1577 -0.1831
  273loPI   C2B 4366  14.025  13.105   9.834  0.1585  0.0377 -0.2221
  273loPI   C3B 4367  13.836  13.029   9.402  0.1359 -0.0035 -0.2236
  273loPI   C4B 4368  13.775  13.245   8.983 -0.3657 -0.2738 -0.2421
  274loPI    C1 4369   5.031  13.876  11.321 -0.0304 -0.1581 -0.1142
  274loPI    C2 4370   4.638  13.939  11.360  0.0032  0.0454 -0.0922
  274loPI    C3 4371   4.874  13.939  11.683  0.0229 -0.0668 -0.1063
  274loPI   PO4 4372   5.220  14.006  11.120  0.1963  0.1348 -0.3209
  274loPI   GL1 4373   5.308  13.916  10.653 -0.0397 -0.1066  0.1784
  274loPI   GL2 4374   5.154  14.237  10.682 -0.1519 -0.2609  0.2644
  274loPI   C1A 4375   5.306  13.766  10.308 -0.1755  0.1481  0.1657
  274loPI   C2A 4376   5.353  13.700   9.924 -0.2724  0.2851 -0.2341
  274loPI   C3A 4377   5.196  13.750   9.496  0.3750  0.2181  0.4526
  274loPI   C4A 4378   5.053  13.828   9.059 -0.1493 -0.2128 -0.3054
  274loPI   C5A 4379   5.256  14.033   8.659 -0.1106 -0.1022  0.2483
  274loPI   C6A 4380   5.213  14.296   8.167  0.2476  0.1238  0.0150
  274loPI   C1B 4381   5.207  14.298  10.225 -0.0599  0.5425  0.1153
  274loPI   C2B 4382   5.150  14.255   9.701  0.0505 -0.0230  0.0909
  274loPI   C3B 4383   5.210  14.263   9.281 -0.2483  0.1568  0.0318
  274loPI   C4B 4384   4.941  14.277   8.983  0.0330  0.0275  0.0702
  275loPI    C1 4385  16.223   8.845  11.447  0.0982  0.0906  0.1598
  275loPI    C2 4386  16.192   9.071  11.776 -0.0583 -0.0017  0.2098
  275loPI    C3 4387  15.874   8.868  11.642  0.1488 -0.4145  0.3255
  275loPI   PO4 4388  16.250   9.025  11.245  0.0329 -0.1501 -0.1441
  275loPI   GL1 4389  15.954   9.366  10.930 -0.0726 -0.2966 -0.1962
  275loPI   GL2 4390  16.116   9.110  10.745  0.3565 -0.0048 -0.0801
  275loPI   C1A 4391  16.041   9.490  10.462 -0.1055  0.0737  0.0087
  275loPI   C2A 4392  15.940   9.570  10.135 -0.2001 -0.1632 -0.1290
  275loPI   C3A 4393  15.985   9.538   9.671 -0.2465  0.1925  0.0117
  275loPI   C4A 4394  16.067   9.490   9.268  0.2411 -0.1345 -0.2945
  275loPI   C5A 4395  15.963   9.428   8.839 -0.1485  0.1671  0.2603
  275loPI   C6A 4396  15.648   9.265   8.580  0.2117  0.1991  0.0122
  275loPI   C1B 4397  16.074   8.983  10.350  0.0792  0.2293 -0.1565
  275loPI   C2B 4398  16.134   8.985   9.820 -0.3003  0.0169 -0.2830
  275loPI   C3B 4399  16.015   8.995   9.459  0.0416  0.1606 -0.2625
  275loPI   C4B 4400  16.102   9.035   9.056 -0.1525 -0.1168 -0.3382
  276loPI    C1 4401   4.697  16.661  11.360 -0.0904  0.0775 -0.0172
  276loPI    C2 4402   4.427  16.380  11.448 -0.0601  0.0057 -0.1511
  276loPI    C3 4403   4.656  16.535  11.738 -0.1778 -0.0019 -0.0531
  276loPI   PO4 4404   4.855  16.587  11.193  0.0599  0.0395  0.0072
  276loPI   GL1 4405   4.657  16.813  10.832 -0.2609 -0.0173  0.1123
  276loPI   GL2 4406   4.390  16.695  10.955  0.1789  0.2083  0.1396
  276loPI   C1A 4407   4.502  17.014  10.474  0.0567  0.0472  0.4676
  276loPI   C2A 4408   4.510  17.055  10.069  0.1168 -0.1955  0.0230
  276loPI   C3A 4409   4.521  16.996   9.588  0.0486  0.1291 -0.0485
  276loPI   C4A 4410   4.598  17.045   9.263 -0.0395  0.0561 -0.1596
  276loPI   C5A 4411   4.510  16.796   8.830  0.1003 -0.2446 -0.1187
  276loPI   C6A 4412   4.214  16.542   8.467 -0.1896 -0.4912  0.2500
  276loPI   C1B 4413   4.372  16.508  10.578 -0.0751 -0.0221 -0.1910
  276loPI   C2B 4414   4.212  16.521  10.146  0.0567 -0.0910 -0.3716
  276loPI   C3B 4415   4.271  16.464   9.715 -0.0373 -0.2277  0.1043
  276loPI   C4B 4416   4.390  16.533   9.318 -0.0239 -0.0105  0.1543
  277loPI    C1 4417  13.211   4.600  11.180  0.0712 -0.1463 -0.2015
  277loPI    C2 4418  13.439   4.553  11.505  0.2023  0.0882 -0.2570
  277loPI    C3 4419  13.255   4.901  11.440  0.0043 -0.0278 -0.3265
  277loPI   PO4 4420  13.112   4.348  11.207 -0.1033 -0.0001 -0.1890
  277loPI   GL1 4421  13.057   3.944  11.132  0.1255 -0.1896 -0.2771
  277loPI   GL2 4422  13.305   3.987  10.920  0.4607 -0.1654 -0.0314
  277loPI   C1A 4423  12.814   3.844  10.832  0.1402  0.1419  0.1583
  277loPI   C2A 4424  12.824   3.741  10.386  0.0469  0.0848  0.2859
  277loPI   C3A 4425  12.820   3.699  10.011 -0.1575  0.0819 -0.0471
  277loPI   C4A 4426  12.829   3.622   9.554  0.3184 -0.0616 -0.0626
  277loPI   C5A 4427  12.833   3.634   9.133 -0.0456  0.2635 -0.0615
  277loPI   C6A 4428  12.779   3.391   8.799  0.0550  0.1747  0.1915
  277loPI   C1B 4429  13.296   3.776  10.566 -0.3088 -0.0710 -0.1467
  277loPI   C2B 4430  13.383   3.624  10.133 -0.2735  0.2616 -0.0216
  277loPI   C3B 4431  13.327   3.735   9.692  0.0723  0.1768  0.0132
  277loPI   C4B 4432  13.439   3.665   9.234  0.0167  0.1383 -0.1445
  278loPI    C1 4433   5.405  17.007  11.388 -0.0821  0.0062  0.0243
  278loPI    C2 4434   5.357  17.097  11.774 -0.1238 -0.2634  0.0842
  278loPI    C3 4435   5.125  16.820  11.604 -0.1642 -0.0836 -0.1577
  278loPI   PO4 4436   5.428  17.244  11.238 -0.0103 -0.0381 -0.4244
  278loPI   GL1 4437   5.538  17.332  10.818 -0.0075 -0.2939  0.2648
  278loPI   GL2 4438   5.669  17.035  10.849 -0.0131  0.1180  0.1468
  278loPI   C1A 4439   5.512  17.125  10.416 -0.0593  0.0918 -0.0798
  278loPI   C2A 4440   5.508  17.124  10.014 -0.1883 -0.2374  0.2081
  278loPI   C3A 4441   5.519  17.013   9.610  0.0778 -0.0664 -0.1207
  278loPI   C4A 4442   5.620  16.905   9.173 -0.0346  0.0534 -0.0625
  278loPI   C5A 4443   5.399  17.122   8.809 -0.0059  0.1264 -0.0310
  278loPI   C6A 4444   5.079  17.263   8.405 -0.2572 -0.0069 -0.1504
  278loPI   C1B 4445   5.710  16.662  10.657 -0.0328  0.4400 -0.0620
  278loPI   C2B 4446   5.733  16.660  10.236  0.3606 -0.1022 -0.4058
  278loPI   C3B 4447   5.799  16.579   9.762  0.3001  0.0952 -0.1208
  278loPI   C4B 4448   5.923  16.544   9.334 -0.0356 -0.2574 -0.1551
  279loPI    C1 4449   4.374   3.091  11.978 -0.0291  0.0991  0.1069
  279loPI    C2 4450   4.468   2.721  11.859 -0.1552  0.0870  0.0434
  279loPI    C3 4451   4.480   2.815  12.248 -0.2678 -0.0262  0.0751
  279loPI   PO4 4452   4.507   3.188  11.732 -0.0131  0.0599  0.1476
  279loPI   GL1 4453   4.738   3.033  11.265  0.0854  0.1616 -0.0490
  279loPI   GL2 4454   4.774   3.271  11.275 -0.1260  0.0043  0.0001
  279loPI   C1A 4455   5.022   2.892  10.989  0.1878 -0.2209  0.1302
  279loPI   C2A 4456   4.989   2.945  10.552 -0.3012  0.0850 -0.2497
  279loPI   C3A 4457   4.938   2.983  10.115  0.1812 -0.0390 -0.1617
  279loPI   C4A 4458   5.039   3.028   9.662  0.0062  0.0775  0.0905
  279loPI   C5A 4459   4.962   2.949   9.140 -0.0926 -0.2065 -0.1276
  279loPI   C6A 4460   5.055   2.591   8.830 -0.2198 -0.3193 -0.0704
  279loPI   C1B 4461   4.746   3.278  10.846 -0.0435 -0.0908  0.0044
  279loPI   C2B 4462   4.670   3.359  10.415 -0.1690 -0.2069 -0.1640
  279loPI   C3B 4463   4.650   3.420  10.084  0.2279  0.0874 -0.1889
  279loPI   C4B 4464   4.669   3.384   9.584 -0.1948  0.0432 -0.0893
  280loPI    C1 4465  12.961  15.807  11.590  0.0443 -0.1657  0.0206
  280loPI    C2 4466  12.870  16.068  11.879  0.2257  0.1505 -0.2028
  280loPI    C3 4467  13.224  15.880  11.882  0.1794  0.0637 -0.1553
  280loPI   PO4 4468  12.890  15.924  11.325 -0.0235  0.2557 -0.2961
  280loPI   GL1 4469  12.944  15.768  10.955 -0.1421  0.2647 -0.0286
  280loPI   GL2 4470  12.727  15.473  10.804 -0.2252 -0.0450 -0.0881
  280loPI   C1A 4471  13.023  15.895  10.513 -0.0669 -0.2793  0.2749
  280loPI   C2A 4472  13.069  15.879   9.992 -0.1238 -0.0323  0.0611
  280loPI   C3A 4473  12.911  15.849   9.593  0.1571  0.0537 -0.0671
  280loPI   C4A 4474  12.959  15.904   9.142  0.0501 -0.1790  0.1085
  280loPI   C5A 4475  12.589  15.970   8.879  0.1625 -0.0769 -0.0024
  280loPI   C6A 4476  12.218  15.932   8.854  0.0139 -0.2193 -0.0937
  280loPI   C1B 4477  12.705  15.503  10.373  0.0579  0.4724 -0.2209
  280loPI   C2B 4478  12.772  15.495   9.914  0.1251  0.1573 -0.1995
  280loPI   C3B 4479  12.755  15.425   9.468 -0.4891 -0.1018  0.0655
  280loPI   C4B 4480  12.709  15.473   8.992 -0.1711  0.0028 -0.0977
  281loPI    C1 4481   6.005   8.615  11.646 -0.2157  0.0351  0.0744
  281loPI    C2 4482   5.908   8.310  11.886 -0.1154 -0.0686 -0.0151
  281loPI    C3 4483   5.888   8.686  12.022 -0.0027 -0.1297  0.1745
  281loPI   PO4 4484   6.003   8.432  11.409  0.1133 -0.0021  0.0922
  281loPI   GL1 4485   6.065   8.415  11.041 -0.1423 -0.0351 -0.0964
  281loPI   GL2 4486   5.725   8.416  10.820  0.2011  0.0822  0.0196
  281loPI   C1A 4487   6.160   8.330  10.602 -0.1633  0.0635  0.0261
  281loPI   C2A 4488   6.124   8.328  10.144  0.0636  0.0138 -0.1628
  281loPI   C3A 4489   6.129   8.358   9.765 -0.1840 -0.2036  0.0414
  281loPI   C4A 4490   6.079   8.434   9.309  0.0092 -0.4217  0.1300
  281loPI   C5A 4491   6.279   8.473   8.929  0.0469  0.0576 -0.0271
  281loPI   C6A 4492   6.525   8.624   8.575  0.1769  0.1708  0.1898
  281loPI   C1B 4493   5.704   8.496  10.405 -0.0844  0.0212  0.0741
  281loPI   C2B 4494   5.752   8.590   9.933  0.3832  0.1709 -0.0020
  281loPI   C3B 4495   5.625   8.653   9.468 -0.0134  0.1360 -0.4344
  281loPI   C4B 4496   5.687   8.652   9.014  0.1211 -0.0520  0.2536
  282loPI    C1 4497   9.839  12.823  11.327  0.4411  0.1066  0.0814
  282loPI    C2 4498  10.040  12.828  11.672  0.1560 -0.1151  0.2561
  282loPI    C3 4499   9.804  12.518  11.583 -0.0226  0.0881  0.0057
  282loPI   PO4 4500   9.958  12.887  11.128 -0.2323  0.2270  0.2491
  282loPI   GL1 4501   9.835  13.094  10.851 -0.0060  0.0817  0.3755
  282loPI   GL2 4502   9.546  13.247  10.776  0.5045 -0.0003  0.2361
  282loPI   C1A 4503  10.013  13.099  10.472  0.0812 -0.2821 -0.2436
  282loPI   C2A 4504  10.034  13.198  10.081  0.0204 -0.1292 -0.1773
  282loPI   C3A 4505   9.814  13.174   9.750 -0.3596  0.0413 -0.0130
  282loPI   C4A 4506   9.885  12.963   9.417 -0.1985  0.0458  0.1903
  282loPI   C5A 4507   9.968  13.174   8.943 -0.0831  0.2139 -0.4576
  282loPI   C6A 4508  10.145  13.114   8.609 -0.0574 -0.2270 -0.1122
  282loPI   C1B 4509   9.442  13.138  10.384  0.2426  0.2711  0.3888
  282loPI   C2B 4510   9.475  12.855  10.012  0.0447 -0.1630 -0.2524
  282loPI   C3B 4511   9.418  12.745   9.536  0.3061  0.1904  0.4282
  282loPI   C4B 4512   9.460  12.678   9.086  0.1415  0.0283 -0.2194
  283loPI    C1 4513   9.024  12.111  11.374 -0.0022 -0.1898 -0.1630
  283loPI    C2 4514   9.101  11.852  11.669  0.1784 -0.0972 -0.1278
  283loPI    C3 4515   9.006  12.230  11.756  0.1082 -0.1015 -0.1851
  283loPI   PO4 4516   9.232  11.941  11.167  0.1339 -0.2505  0.0342
  283loPI   GL1 4517   9.415  12.080  10.746  0.0671 -0.0954  0.0095
  283loPI   GL2 4518   9.628  11.763  10.726  0.2706 -0.0412  0.1114
  283loPI   C1A 4519   9.468  12.275  10.464  0.1029 -0.1931 -0.0708
  283loPI   C2A 4520   9.531  12.259  10.098 -0.0662 -0.2167 -0.1434
  283loPI   C3A 4521   9.477  12.134   9.654  0.1099 -0.0980  0.1122
  283loPI   C4A 4522   9.435  12.208   9.241  0.0940 -0.0589 -0.2516
  283loPI   C5A 4523   9.156  12.268   8.919 -0.0579  0.1195  0.0601
  283loPI   C6A 4524   9.044  12.275   8.434  0.0569  0.0667 -0.1023
  283loPI   C1B 4525   9.495  11.674  10.284  0.1056  0.2136  0.1245
  283loPI   C2B 4526   9.470  11.604   9.874 -0.0112  0.3822 -0.0469
  283loPI   C3B 4527   9.459  11.628   9.470  0.2307 -0.0140 -0.0166
  283loPI   C4B 4528   9.422  11.788   9.022 -0.1001  0.1688 -0.0972
  284loPI    C1 4529  10.274  12.223  11.378 -0.1709  0.1058  0.0274
  284loPI    C2 4530  10.034  12.099  11.674 -0.0848 -0.0846  0.0194
  284loPI    C3 4531  10.328  12.360  11.750 -0.2247  0.0651  0.0503
  284loPI   PO4 4532  10.098  12.360  11.187 -0.3973  0.2573  0.3134
  284loPI   GL1 4533   9.906  12.305  10.727  0.3614 -0.3559  0.0570
  284loPI   GL2 4534   9.987  12.582  10.706 -0.2053 -0.2996 -0.0359
  284loPI   C1A 4535   9.989  12.051  10.540  0.0405  0.1780 -0.2268
  284loPI   C2A 4536   9.954  12.010  10.223 -0.2124  0.1337  0.0778
  284loPI   C3A 4537   9.907  11.917   9.783 -0.1257  0.3913 -0.1066
  284loPI   C4A 4538   9.892  11.976   9.280 -0.0432 -0.1111 -0.1635
  284loPI   C5A 4539   9.768  12.152   8.790 -0.1594  0.1311 -0.0759
  284loPI   C6A 4540   9.456  12.036   8.424  0.0770 -0.2455 -0.2065
  284loPI   C1B 4541   9.943  12.481  10.262 -0.0269  0.0905 -0.1676
  284loPI   C2B 4542   9.920  12.383   9.795 -0.0191  0.1853 -0.2919
  284loPI   C3B 4543   9.902  12.478   9.285 -0.1922  0.0169 -0.2523
  284loPI   C4B 4544   9.954  12.651   8.928  0.0944 -0.4945  0.0231
  285loPI    C1 4545   4.008   4.052  11.746  0.0673  0.0372  0.2200
  285loPI    C2 4546   4.390   4.033  11.864  0.0554  0.3209  0.3107
  285loPI    C3 4547   4.098   4.063  12.136 -0.0560 -0.1892  0.2566
  285loPI   PO4 4548   4.006   4.232  11.581 -0.2658 -0.0347 -0.0147
  285loPI   GL1 4549   3.964   3.920  11.221  0.0541  0.0335  0.0181
  285loPI   GL2 4550   4.109   4.250  11.055  0.0680 -0.3061 -0.1086
  285loPI   C1A 4551   3.945   3.786  10.832 -0.2075  0.1350 -0.0481
  285loPI   C2A 4552   3.825   3.743  10.508 -0.3274 -0.1749  0.1869
  285loPI   C3A 4553   3.856   3.727  10.079 -0.0443 -0.1841  0.0466
  285loPI   C4A 4554   3.827   3.854   9.656 -0.0729  0.2208  0.4233
  285loPI   C5A 4555   3.947   3.886   9.127  0.1418  0.0331  0.0865
  285loPI   C6A 4556   4.237   4.158   8.891 -0.3088  0.1011 -0.0737
  285loPI   C1B 4557   4.207   4.307  10.673 -0.0853 -0.2681 -0.3792
  285loPI   C2B 4558   4.179   4.315  10.248 -0.2109  0.0747 -0.0586
  285loPI   C3B 4559   4.115   4.237   9.837 -0.1060 -0.1259 -0.2760
  285loPI   C4B 4560   4.112   4.318   9.479 -0.2247 -0.1974 -0.2207
  286loPI    C1 4561  15.327   8.604  11.163  0.0194  0.1395 -0.1772
  286loPI    C2 4562  15.263   8.958  11.339  0.0627  0.0562  0.0084
  286loPI    C3 4563  15.410   8.652  11.552  0.3597  0.0271 -0.2330
  286loPI   PO4 4564  15.443   8.553  10.991  0.0073  0.0478 -0.1107
  286loPI   GL1 4565  15.512   8.706  10.596  0.1273 -0.1068 -0.0407
  286loPI   GL2 4566  15.853   8.645  10.655 -0.1313 -0.2220 -0.1098
  286loPI   C1A 4567  15.178   8.990  10.381 -0.2563  0.0091 -0.2295
  286loPI   C2A 4568  15.186   8.931   9.893 -0.1800 -0.1828 -0.0068
  286loPI   C3A 4569  15.177   8.930   9.455 -0.0216 -0.2828 -0.1404
  286loPI   C4A 4570  15.221   8.929   9.046  0.0357 -0.1462 -0.1944
  286loPI   C5A 4571  15.239   8.816   8.675 -0.2901 -0.2412  0.2098
  286loPI   C6A 4572  15.253   9.000   8.313  0.1575  0.0406 -0.0898
  286loPI   C1B 4573  15.618   8.663  10.146  0.3249  0.1942 -0.2135
  286loPI   C2B 4574  15.689   8.737   9.741 -0.2919 -0.0892 -0.0183
  286loPI   C3B 4575  15.614   8.693   9.307  0.0203  0.0319  0.2470
  286loPI   C4B 4576  15.683   8.783   8.866  0.1766 -0.1301  0.1148
  287loPI    C1 4577   0.626   0.659  11.873  0.1177 -0.1144 -0.1883
  287loPI    C2 4578   0.606   0.829  12.234 -0.2101 -0.1731 -0.1753
  287loPI    C3 4579   0.777   0.470  12.191 -0.2257 -0.1938 -0.0679
  287loPI   PO4 4580   0.715   0.877  11.718 -0.0920  0.1583  0.0143
  287loPI   GL1 4581   0.569   0.917  11.289  0.2181  0.1060 -0.1181
  287loPI   GL2 4582   0.596   0.624  11.087  0.2244  0.0481  0.1625
  287loPI   C1A 4583   0.852   1.011  10.931  0.2237  0.1148  0.0074
  287loPI   C2A 4584   0.763   1.142  10.446 -0.2692 -0.0910  0.0254
  287loPI   C3A 4585   0.796   1.123   9.970 -0.3036  0.2293 -0.1665
  287loPI   C4A 4586   0.825   1.068   9.505 -0.0089  0.2789 -0.3028
  287loPI   C5A 4587   0.817   1.256   9.131  0.0825 -0.1791  0.0619
  287loPI   C6A 4588   1.096   1.183   8.899 -0.0502 -0.1430 -0.1547
  287loPI   C1B 4589   0.659   0.597  10.646  0.1995 -0.0226 -0.0779
  287loPI   C2B 4590   0.595   0.635  10.237  0.0710 -0.2178 -0.1391
  287loPI   C3B 4591   0.600   0.572   9.827  0.0715 -0.1143 -0.0795
  287loPI   C4B 4592   0.607   0.654   9.374  0.1184  0.0362 -0.0382
  288loPI    C1 4593  10.747  15.712  11.523  0.0219 -0.0253 -0.1592
  288loPI    C2 4594  10.442  15.830  11.754  0.1451  0.0498 -0.0335
  288loPI    C3 4595  10.778  15.692  11.921  0.1598 -0.0854 -0.1726
  288loPI   PO4 4596  10.610  15.602  11.319  0.1228  0.2505 -0.2383
  288loPI   GL1 4597  10.711  15.375  10.937  0.0818 -0.0531  0.0607
  288loPI   GL2 4598  10.945  15.163  11.126 -0.0666 -0.0699  0.3581
  288loPI   C1A 4599  10.715  15.565  10.536  0.2368  0.0683 -0.1728
  288loPI   C2A 4600  10.753  15.467  10.049  0.5891 -0.1767  0.3595
  288loPI   C3A 4601  10.773  15.454   9.539 -0.1631  0.0672  0.0743
  288loPI   C4A 4602  10.710  15.432   9.091 -0.2959 -0.2867 -0.0899
  288loPI   C5A 4603  10.815  15.541   8.776  0.0841  0.0599 -0.0153
  288loPI   C6A 4604  10.810  15.118   8.569 -0.2712  0.0826  0.0973
  288loPI   C1B 4605  10.867  15.053  10.635  0.3113 -0.1684  0.0703
  288loPI   C2B 4606  10.975  14.996  10.236 -0.1047 -0.1312  0.0639
  288loPI   C3B 4607  10.957  15.022   9.755  0.0181 -0.1118 -0.0312
  288loPI   C4B 4608  11.075  14.917   9.347  0.1937 -0.0105  0.1859
  289loPI    C1 4609  16.890   4.527  11.681  0.2508 -0.1768  0.2825
  289loPI    C2 4610  16.997   4.867  11.864 -0.0391  0.0177  0.0984
  289loPI    C3 4611  17.052   4.516  12.047  0.0252  0.1813  0.3993
  289loPI   PO4 4612  17.013   4.576  11.440 -0.0715 -0.0664  0.1139
  289loPI   GL1 4613  17.264   4.341  11.151 -0.2032  0.0162 -0.1566
  289loPI   GL2 4614  17.589   4.201  11.046  0.1612 -0.3275  0.3739
  289loPI   C1A 4615  17.192   4.193  10.737 -0.0978  0.2549 -0.1004
  289loPI   C2A 4616  17.065   4.205  10.263 -0.3286  0.2990  0.4159
  289loPI   C3A 4617  17.225   4.132   9.958  0.0062 -0.2631  0.1875
  289loPI   C4A 4618  17.137   4.165   9.542  0.3554 -0.0579  0.3286
  289loPI   C5A 4619  17.312   4.312   9.168 -0.2950 -0.2967  0.0629
  289loPI   C6A 4620  17.446   4.498   8.728  0.0067 -0.5193  0.2522
  289loPI   C1B 4621  17.678   4.148  10.618 -0.1612  0.0367 -0.0449
  289loPI   C2B 4622  17.716   4.188  10.194  0.3064 -0.4676  0.2897
  289loPI   C3B 4623  17.742   4.257   9.822 -0.0264 -0.0442  0.1356
  289loPI   C4B 4624  17.614   4.091   9.497  0.0235 -0.1512  0.3056
  290loPI    C1 4625  12.560  11.540  11.667 -0.2396  0.0138  0.3042
  290loPI    C2 4626  12.950  11.453  11.668 -0.2673 -0.1210  0.0900
  290loPI    C3 4627  12.829  11.829  11.729 -0.0889 -0.0237 -0.1392
  290loPI   PO4 4628  12.559  11.433  11.333 -0.0079  0.1436  0.0003
  290loPI   GL1 4629  12.658  11.534  10.910  0.0817 -0.2413 -0.0501
  290loPI   GL2 4630  12.648  11.230  10.699 -0.1167  0.0182 -0.1436
  290loPI   C1A 4631  12.703  11.714  10.515  0.0556 -0.2206  0.1404
  290loPI   C2A 4632  12.760  11.602  10.047 -0.1274 -0.1297  0.2261
  290loPI   C3A 4633  12.727  11.617   9.635  0.0091  0.0696  0.1227
  290loPI   C4A 4634  12.533  11.511   9.248 -0.1475 -0.1798  0.2787
  290loPI   C5A 4635  12.304  11.367   8.929 -0.0011 -0.1175  0.1831
  290loPI   C6A 4636  12.407  11.121   8.532 -0.0611 -0.1715 -0.1175
  290loPI   C1B 4637  12.702  11.093  10.257 -0.2038  0.1634 -0.1306
  290loPI   C2B 4638  12.691  11.090   9.903  0.1092 -0.1463  0.1460
  290loPI   C3B 4639  12.754  11.130   9.485  0.0360 -0.1425  0.0375
  290loPI   C4B 4640  12.682  11.116   8.954 -0.2669 -0.0399  0.0610
  291loPI    C1 4641  17.514   0.324  11.733 -0.0686 -0.1603  0.0738
  291loPI    C2 4642  17.490   0.173  12.103 -0.2685  0.0351  0.1426
  291loPI    C3 4643  17.204   0.418  11.968  0.0015  0.2776 -0.0009
  291loPI   PO4 4644  17.551   0.205  11.601 -0.0843  0.0814  0.1119
  291loPI   GL1 4645  17.546   0.351  11.190 -0.1703  0.1283 -0.1070
  291loPI   GL2 4646  17.761   0.558  11.104  0.1631  0.4734 -0.1966
  291loPI   C1A 4647  17.311   0.508  10.849  0.1209 -0.2667  0.0654
  291loPI   C2A 4648  17.307   0.588  10.380  0.0047 -0.0439 -0.0747
  291loPI   C3A 4649  17.226   0.665   9.924  0.0106 -0.1413  0.1227
  291loPI   C4A 4650  17.198   0.599   9.458  0.1871 -0.1983  0.2790
  291loPI   C5A 4651  17.102   0.845   9.068 -0.0493  0.2712 -0.0096
  291loPI   C6A 4652  16.987   1.288   9.131  0.0518 -0.0307  0.1914
  291loPI   C1B 4653  17.852   0.574  10.727  0.0470 -0.0113 -0.1644
  291loPI   C2B 4654  17.791   0.534  10.233  0.0050  0.0001 -0.0510
  291loPI   C3B 4655  17.740   0.591   9.853 -0.0627  0.0505  0.1488
  291loPI   C4B 4656  17.798   0.610   9.345  0.0670  0.1419  0.2069
  292loPI    C1 4657   9.326  11.239  11.677 -0.0664  0.0666 -0.1505
  292loPI    C2 4658   9.493  11.574  11.819 -0.1391  0.1090 -0.1641
  292loPI    C3 4659   9.237  11.367  12.045  0.2202 -0.1644  0.0037
  292loPI   PO4 4660   9.284  11.348  11.395 -0.0000  0.0601  0.0210
  292loPI   GL1 4661   9.295  11.365  10.911 -0.0940 -0.0301  0.3025
  292loPI   GL2 4662   9.106  11.653  10.802  0.1749  0.3745 -0.1374
  292loPI   C1A 4663   9.167  11.051  10.589  0.0465 -0.1380  0.0752
  292loPI   C2A 4664   9.058  10.931  10.227  0.1153 -0.0450  0.1637
  292loPI   C3A 4665   9.031  10.915   9.811 -0.0647 -0.0594 -0.1305
  292loPI   C4A 4666   9.075  10.864   9.377  0.0652 -0.2138  0.1716
  292loPI   C5A 4667   9.072  10.874   8.933  0.1576  0.0128  0.1533
  292loPI   C6A 4668   9.050  10.808   8.521 -0.3642  0.3642 -0.2241
  292loPI   C1B 4669   9.061  11.457  10.367 -0.0032  0.0082  0.2516
  292loPI   C2B 4670   9.005  11.460   9.953  0.2501  0.0346  0.0748
  292loPI   C3B 4671   9.021  11.413   9.620  0.1677  0.4528  0.2087
  292loPI   C4B 4672   9.081  11.353   9.190  0.0801  0.0593  0.1684
  293loPI    C1 4673   8.404   0.382  11.873 -0.0566 -0.2598 -0.1808
  293loPI    C2 4674   8.465   0.769  11.950  0.0209 -0.2846 -0.1165
  293loPI    C3 4675   8.707   0.493  12.110 -0.1108 -0.3680 -0.0593
  293loPI   PO4 4676   8.445   0.363  11.598 -0.1236 -0.1350 -0.0355
  293loPI   GL1 4677   8.635   0.552  11.259  0.2032 -0.0184 -0.1460
  293loPI   GL2 4678   8.821   0.347  11.220 -0.1159 -0.2567 -0.0673
  293loPI   C1A 4679   8.505   0.441  10.785  0.1974  0.3953 -0.2251
  293loPI   C2A 4680   8.569   0.380  10.393 -0.1736  0.2634 -0.0427
  293loPI   C3A 4681   8.678   0.438  10.014 -0.1543  0.0789  0.0252
  293loPI   C4A 4682   8.561   0.355   9.507 -0.1321  0.1000 -0.4492
  293loPI   C5A 4683   8.779   0.340   9.134  0.1668 -0.4863  0.1572
  293loPI   C6A 4684   9.159   0.539   8.962  0.3569  0.0327  0.0603
  293loPI   C1B 4685   8.976   0.507  10.729  0.1849 -0.2785  0.1103
  293loPI   C2B 4686   9.137   0.383  10.356 -0.5124 -0.1036 -0.0121
  293loPI   C3B 4687   9.146   0.449   9.936 -0.0591 -0.0091  0.0209
  293loPI   C4B 4688   9.135   0.504   9.550 -0.1270 -0.1450 -0.1126
  294loPI    C1 4689   1.370   5.368  11.789  0.1925  0.1249  0.0308
  294loPI    C2 4690   1.114   5.182  12.033  0.0092  0.1719 -0.1232
  294loPI    C3 4691   1.311   5.505  12.160  0.0681  0.0774  0.0292
  294loPI   PO4 4692   1.282   5.304  11.573  0.1145 -0.0872 -0.1106
  294loPI   GL1 4693   1.284   5.089  11.258  0.0542 -0.1443 -0.0152
  294loPI   GL2 4694   1.367   5.237  11.023 -0.1649  0.1427  0.1484
  294loPI   C1A 4695   1.244   4.796  10.826  0.1926 -0.3456  0.2458
  294loPI   C2A 4696   1.293   4.713  10.455  0.0512  0.4808  0.0952
  294loPI   C3A 4697   1.335   4.665   9.971 -0.1670 -0.0744 -0.2387
  294loPI   C4A 4698   1.341   4.548   9.539 -0.2295 -0.1570  0.0880
  294loPI   C5A 4699   1.028   4.641   9.134 -0.1450  0.0569  0.0644
  294loPI   C6A 4700   0.600   4.464   8.943 -0.0124 -0.0882  0.2026
  294loPI   C1B 4701   1.457   5.225  10.581  0.0741  0.0119  0.1193
  294loPI   C2B 4702   1.539   5.139  10.179  0.1630 -0.1549  0.2695
  294loPI   C3B 4703   1.421   5.123   9.770 -0.1723 -0.1283 -0.2309
  294loPI   C4B 4704   1.298   5.043   9.262  0.0859 -0.0135 -0.1318
  295loPI    C1 4705  10.618   9.555  11.263  0.2518 -0.0151 -0.0690
  295loPI    C2 4706  10.716   9.915  11.407 -0.1556  0.0133  0.1519
  295loPI    C3 4707  10.741   9.592  11.642  0.0270 -0.0756  0.0120
  295loPI   PO4 4708  10.709   9.648  11.009  0.0924 -0.0353 -0.0269
  295loPI   GL1 4709  10.805   9.701  10.608  0.0272 -0.2723  0.3335
  295loPI   GL2 4710  11.087   9.526  10.589  0.1760  0.1262 -0.1087
  295loPI   C1A 4711  10.637   9.739  10.171  0.0432  0.2622 -0.1683
  295loPI   C2A 4712  10.577   9.701   9.749  0.1638  0.2581  0.3827
  295loPI   C3A 4713  10.517   9.546   9.324 -0.0847 -0.1967  0.2658
  295loPI   C4A 4714  10.473   9.555   8.936 -0.0550  0.1878  0.0488
  295loPI   C5A 4715  10.517   9.788   8.657  0.0130 -0.1365 -0.1196
  295loPI   C6A 4716  10.894   9.840   8.571  0.1784 -0.1938  0.3013
  295loPI   C1B 4717  11.118   9.546  10.227  0.1124  0.0782  0.0346
  295loPI   C2B 4718  11.081   9.546   9.798 -0.2805  0.1443  0.0611
  295loPI   C3B 4719  11.077   9.451   9.350 -0.1672  0.1121  0.0133
  295loPI   C4B 4720  11.023   9.531   8.890 -0.2590  0.2622 -0.0331
  296loPI    C1 4721  13.484  13.012  11.509  0.1007  0.0486 -0.1773
  296loPI    C2 4722  13.197  13.218  11.696 -0.0250 -0.2818  0.0025
  296loPI    C3 4723  13.578  13.263  11.807 -0.0675 -0.2574  0.1412
  296loPI   PO4 4724  13.541  13.084  11.278  0.3126 -0.1548  0.0350
  296loPI   GL1 4725  13.317  13.029  10.936 -0.0886  0.0387  0.3987
  296loPI   GL2 4726  13.459  13.345  10.861  0.0002 -0.2135 -0.0861
  296loPI   C1A 4727  13.491  12.860  10.469  0.2382  0.1879 -0.0978
  296loPI   C2A 4728  13.573  12.816  10.046  0.0716  0.2433 -0.3002
  296loPI   C3A 4729  13.476  12.769   9.663  0.1413  0.3143  0.3737
  296loPI   C4A 4730  13.475  12.811   9.189 -0.3056  0.1939  0.1026
  296loPI   C5A 4731  13.189  12.923   8.899  0.1331  0.0857  0.2602
  296loPI   C6A 4732  12.757  12.647   8.736 -0.2150 -0.4494 -0.0321
  296loPI   C1B 4733  13.586  13.354  10.479  0.0149  0.0975  0.0196
  296loPI   C2B 4734  13.603  13.373  10.120 -0.2291 -0.1988  0.0462
  296loPI   C3B 4735  13.546  13.339   9.712 -0.0599  0.1148 -0.1557
  296loPI   C4B 4736  13.373  13.278   9.331 -0.0620  0.2955  0.0402
  297loPI    C1 4737   5.094   5.930  11.622  0.0112  0.0760 -0.0376
  297loPI    C2 4738   5.253   6.210  11.859 -0.2624  0.1866  0.0189
  297loPI    C3 4739   5.299   5.823  11.948 -0.0784  0.2182  0.0661
  297loPI   PO4 4740   5.175   5.936  11.264  0.1319  0.3971 -0.1865
  297loPI   GL1 4741   5.241   6.084  10.978  0.0672  0.1548  0.1806
  297loPI   GL2 4742   5.231   6.342  10.917 -0.0731 -0.3514  0.0287
  297loPI   C1A 4743   5.413   5.792  10.659 -0.3834  0.0020  0.0813
  297loPI   C2A 4744   5.395   5.777  10.221  0.0053  0.1951 -0.0990
  297loPI   C3A 4745   5.411   5.707   9.778 -0.3062  0.1109  0.0817
  297loPI   C4A 4746   5.267   5.608   9.374  0.0583  0.3302  0.0768
  297loPI   C5A 4747   5.069   5.585   8.999 -0.1317  0.3902 -0.0967
  297loPI   C6A 4748   4.889   5.885   8.751 -0.2625  0.0754  0.1647
  297loPI   C1B 4749   4.946   6.451  10.500 -0.1104 -0.0511  0.2056
  297loPI   C2B 4750   4.912   6.456  10.037 -0.1449 -0.1465 -0.1713
  297loPI   C3B 4751   4.884   6.484   9.554  0.4022  0.1270 -0.2898
  297loPI   C4B 4752   4.843   6.537   9.100  0.0065 -0.0250 -0.1206
  298loPI    C1 4753   1.335   7.758  11.379  0.1691  0.1354 -0.1926
  298loPI    C2 4754   1.628   7.779  11.651 -0.0824 -0.1379  0.1086
  298loPI    C3 4755   1.247   7.830  11.763 -0.1834 -0.1694 -0.2102
  298loPI   PO4 4756   1.487   7.782  11.160 -0.1415 -0.0736 -0.0908
  298loPI   GL1 4757   1.350   7.732  10.702 -0.1047 -0.1157  0.0133
  298loPI   GL2 4758   0.983   7.516  10.629  0.2068 -0.0935  0.1714
  298loPI   C1A 4759   1.307   7.817  10.307 -0.0267  0.1010 -0.2288
  298loPI   C2A 4760   1.159   7.772   9.844 -0.2263 -0.1266  0.1771
  298loPI   C3A 4761   1.248   7.810   9.396  0.2596  0.2601 -0.0418
  298loPI   C4A 4762   1.152   7.940   8.971 -0.0068 -0.2791  0.3253
  298loPI   C5A 4763   0.758   7.814   8.651 -0.0568  0.0799  0.0202
  298loPI   C6A 4764   0.398   7.604   8.381 -0.0153  0.0180 -0.1639
  298loPI   C1B 4765   0.840   7.510  10.292 -0.5011 -0.1522 -0.0231
  298loPI   C2B 4766   0.794   7.469   9.893  0.0616 -0.2256 -0.2015
  298loPI   C3B 4767   0.828   7.547   9.477  0.1393 -0.0009 -0.1243
  298loPI   C4B 4768   0.831   7.583   9.056  0.2524  0.1118 -0.0325
  299loPI    C1 4769   8.155  13.253  10.996 -0.2234  0.1371  0.1440
  299loPI    C2 4770   8.258  13.142  11.366 -0.2793 -0.2103  0.0591
  299loPI    C3 4771   8.124  13.513  11.298  0.0800 -0.0260  0.3209
  299loPI   PO4 4772   8.001  13.105  10.927 -0.0075 -0.1127  0.1923
  299loPI   GL1 4773   8.006  12.654  10.743 -0.1782 -0.2107  0.1104
  299loPI   GL2 4774   8.064  12.418  10.524 -0.0484 -0.0126  0.4808
  299loPI   C1A 4775   8.077  12.861  10.307 -0.0986  0.0199 -0.0962
  299loPI   C2A 4776   8.110  12.901   9.827 -0.1394 -0.3009 -0.0460
  299loPI   C3A 4777   8.034  13.029   9.324  0.1841 -0.2357 -0.0705
  299loPI   C4A 4778   8.273  13.113   8.925  0.0582 -0.0816  0.0486
  299loPI   C5A 4779   8.187  13.348   8.576  0.0272  0.3154 -0.2474
  299loPI   C6A 4780   8.281  13.797   8.379  0.1062 -0.0043 -0.2970
  299loPI   C1B 4781   8.108  12.290  10.117  0.0155  0.0021 -0.0458
  299loPI   C2B 4782   8.135  12.285   9.677  0.0327  0.0835 -0.0366
  299loPI   C3B 4783   8.106  12.505   9.311  0.0006 -0.0097  0.1276
  299loPI   C4B 4784   8.226  12.559   8.917  0.0964  0.0033  0.1168
  300loPI    C1 4785  11.995  14.145  11.377  0.3112 -0.1839 -0.0072
  300loPI    C2 4786  12.218  14.130  11.709 -0.1126 -0.0800  0.2902
  300loPI    C3 4787  11.823  14.191  11.735 -0.1441 -0.0073 -0.2401
  300loPI   PO4 4788  12.079  14.317  11.251 -0.1359  0.1198  0.0057
  300loPI   GL1 4789  12.163  14.048  10.879  0.1762  0.3643  0.0176
  300loPI   GL2 4790  12.373  13.823  10.841 -0.0163 -0.1513  0.5263
  300loPI   C1A 4791  12.019  14.159  10.526  0.1851 -0.1366 -0.0136
  300loPI   C2A 4792  12.050  14.105  10.080  0.0903  0.0374 -0.2500
  300loPI   C3A 4793  12.073  14.019   9.598  0.0163 -0.1457 -0.2265
  300loPI   C4A 4794  12.216  13.993   9.186 -0.2026  0.3041 -0.0998
  300loPI   C5A 4795  12.396  14.086   8.742 -0.2704 -0.0142 -0.2279
  300loPI   C6A 4796  12.624  14.202   8.272  0.1750 -0.3752 -0.2003
  300loPI   C1B 4797  12.363  13.755  10.340 -0.1728 -0.4624  0.0484
  300loPI   C2B 4798  12.313  13.717   9.901 -0.0187  0.1058  0.3062
  300loPI   C3B 4799  12.407  13.628   9.491 -0.0443  0.2689  0.0659
  300loPI   C4B 4800  12.415  13.571   9.049 -0.0450  0.0169  0.0193
  301loPI    C1 4801   8.172   9.950  11.546 -0.0472 -0.1914  0.1491
  301loPI    C2 4802   7.898   9.809  11.801 -0.1555  0.0276  0.1564
  301loPI    C3 4803   8.174  10.069  11.928 -0.2311  0.1640  0.0435
  301loPI   PO4 4804   8.129   9.860  11.372 -0.1038  0.0128 -0.0368
  301loPI   GL1 4805   8.081  10.029  10.922  0.2532  0.0264 -0.1313
  301loPI   GL2 4806   8.102  10.349  10.852  0.1443 -0.2251  0.0939
  301loPI   C1A 4807   7.834  10.018  10.533 -0.1232  0.5384  0.0761
  301loPI   C2A 4808   7.778  10.056  10.155 -0.0611  0.0153  0.2434
  301loPI   C3A 4809   7.891  10.024   9.734 -0.2834  0.3626  0.2034
  301loPI   C4A 4810   7.872  10.035   9.275  0.0742  0.0019  0.0267
  301loPI   C5A 4811   7.676   9.985   8.790  0.2891 -0.0358  0.3081
  301loPI   C6A 4812   7.358  10.112   8.521 -0.1350 -0.0164 -0.0354
  301loPI   C1B 4813   8.191  10.308  10.372  0.0280 -0.1289 -0.0986
  301loPI   C2B 4814   8.214  10.351   9.880  0.0048 -0.0820 -0.1689
  301loPI   C3B 4815   8.320  10.270   9.462  0.1153  0.0563  0.1551
  301loPI   C4B 4816   8.332  10.279   9.097 -0.1079 -0.2578 -0.2040
  302loPI    C1 4817  13.407  11.795  11.583  0.0530 -0.0591  0.1763
  302loPI    C2 4818  13.770  11.693  11.716  0.1769  0.0987 -0.0336
  302loPI    C3 4819  13.548  11.955  11.921  0.1549 -0.0426  0.1262
  302loPI   PO4 4820  13.479  11.847  11.331  0.3815  0.1675 -0.0633
  302loPI   GL1 4821  13.448  12.065  10.964 -0.1000 -0.0408 -0.1023
  302loPI   GL2 4822  13.390  11.767  10.850  0.3764  0.0374 -0.1844
  302loPI   C1A 4823  13.514  12.238  10.570 -0.0011 -0.1256  0.1085
  302loPI   C2A 4824  13.497  12.206  10.159 -0.1507 -0.2289 -0.2342
  302loPI   C3A 4825  13.513  12.269   9.736  0.1239 -0.0202 -0.0544
  302loPI   C4A 4826  13.526  12.247   9.338 -0.0372 -0.0273  0.1384
  302loPI   C5A 4827  13.620  12.083   8.874  0.1454  0.0312 -0.0810
  302loPI   C6A 4828  13.562  11.979   8.495 -0.0960 -0.1300  0.1211
  302loPI   C1B 4829  13.607  11.668  10.562  0.2544  0.2684 -0.0441
  302loPI   C2B 4830  13.617  11.681  10.267 -0.2680  0.4020 -0.1745
  302loPI   C3B 4831  13.552  11.675   9.818  0.0102  0.1764 -0.1109
  302loPI   C4B 4832  13.568  11.707   9.412  0.1586  0.0677 -0.2250
  303loPI    C1 4833  14.576  17.206  11.620  0.0694  0.4413 -0.1695
  303loPI    C2 4834  14.912  17.116  11.818 -0.0053  0.1404 -0.1740
  303loPI    C3 4835  14.643  17.364  11.981 -0.0444 -0.0677  0.0840
  303loPI   PO4 4836  14.671  17.233  11.368  0.2645  0.0502 -0.0615
  303loPI   GL1 4837  14.571  16.989  11.028 -0.2749 -0.3490 -0.0624
  303loPI   GL2 4838  14.401  16.799  10.877  0.0218  0.2484 -0.1363
  303loPI   C1A 4839  14.774  17.299  10.654 -0.0932  0.0265 -0.2293
  303loPI   C2A 4840  14.753  17.303  10.198 -0.1358 -0.1675  0.0071
  303loPI   C3A 4841  14.696  17.406   9.842 -0.1433 -0.1215 -0.0213
  303loPI   C4A 4842  14.716  17.315   9.431  0.2309  0.0485  0.3396
  303loPI   C5A 4843  14.545  17.424   9.056 -0.2723  0.3146 -0.1620
  303loPI   C6A 4844  14.496  17.847   8.833 -0.4891 -0.1290 -0.2981
  303loPI   C1B 4845  14.510  16.821  10.464  0.0486  0.1516  0.3543
  303loPI   C2B 4846  14.459  16.924  10.069 -0.0394  0.0633  0.0828
  303loPI   C3B 4847  14.427  16.914   9.560  0.0415 -0.2089 -0.0576
  303loPI   C4B 4848  14.412  16.852   9.154  0.1657 -0.2817 -0.0380
  304loPI    C1 4849  13.581  15.512  11.746  0.2505 -0.2297 -0.1382
  304loPI    C2 4850  13.376  15.320  12.031 -0.0709  0.0201 -0.1941
  304loPI    C3 4851  13.713  15.515  12.124 -0.0323 -0.1179 -0.0376
  304loPI   PO4 4852  13.539  15.313  11.525 -0.1099  0.1270 -0.3809
  304loPI   GL1 4853  13.593  15.357  11.031 -0.2961 -0.0769 -0.0326
  304loPI   GL2 4854  13.787  15.589  10.828 -0.0951 -0.0010 -0.1368
  304loPI   C1A 4855  13.312  15.461  10.700 -0.3509 -0.0733  0.2375
  304loPI   C2A 4856  13.348  15.581  10.290 -0.3376 -0.1136 -0.1360
  304loPI   C3A 4857  13.342  15.464   9.877  0.2952  0.1727 -0.2229
  304loPI   C4A 4858  13.264  15.459   9.529  0.0737  0.0472  0.2007
  304loPI   C5A 4859  13.317  15.523   9.115 -0.2834  0.1537 -0.0404
  304loPI   C6A 4860  13.498  15.743   8.672 -0.0108 -0.3166 -0.3186
  304loPI   C1B 4861  13.802  15.532  10.467 -0.1861  0.2744 -0.0470
  304loPI   C2B 4862  13.850  15.523  10.018  0.1484  0.1979 -0.0141
  304loPI   C3B 4863  13.761  15.521   9.585 -0.0622  0.0997 -0.0983
  304loPI   C4B 4864  13.807  15.520   9.106  0.5654  0.0170 -0.3177
  305loPI    C1 4865   3.952   9.545  11.773  0.0873  0.4163  0.0192
  305loPI    C2 4866   3.757   9.665  12.101  0.0998  0.1736  0.1181
  305loPI    C3 4867   4.157   9.666  12.094  0.1020 -0.0012  0.1742
  305loPI   PO4 4868   3.725   9.540  11.633  0.0117  0.1862  0.0525
  305loPI   GL1 4869   3.724   9.529  11.117  0.0733 -0.1626 -0.1031
  305loPI   GL2 4870   3.666   9.210  11.222 -0.0589 -0.0710  0.2048
  305loPI   C1A 4871   3.430   9.638  10.754  0.1750 -0.2619 -0.1288
  305loPI   C2A 4872   3.376   9.589  10.369  0.0991  0.1257  0.1024
  305loPI   C3A 4873   3.389   9.627   9.895  0.1684  0.0231  0.0103
  305loPI   C4A 4874   3.270   9.687   9.468 -0.2138  0.1299 -0.0411
  305loPI   C5A 4875   3.241   9.638   8.973  0.0979  0.0540  0.0999
  305loPI   C6A 4876   3.157   9.881   8.591 -0.2273  0.2187 -0.0183
  305loPI   C1B 4877   3.484   9.093  10.786 -0.0430 -0.0816 -0.0380
  305loPI   C2B 4878   3.485   9.122  10.365 -0.3297 -0.2260  0.1916
  305loPI   C3B 4879   3.437   9.140   9.872 -0.0293  0.0737 -0.1499
  305loPI   C4B 4880   3.296   9.151   9.537  0.1453  0.2026  0.3729
  306loPI    C1 4881   0.858  15.966  11.632  0.0850 -0.0540  0.0432
  306loPI    C2 4882   0.951  15.942  12.021 -0.1297  0.0022  0.0995
  306loPI    C3 4883   0.617  15.770  11.884  0.0066 -0.1215 -0.0835
  306loPI   PO4 4884   1.063  16.039  11.518 -0.0092 -0.1466  0.1333
  306loPI   GL1 4885   1.079  15.982  11.075  0.2055  0.0388  0.1269
  306loPI   GL2 4886   1.391  16.069  11.105 -0.2420 -0.0824  0.0726
  306loPI   C1A 4887   1.004  16.055  10.722 -0.1576 -0.2353  0.1275
  306loPI   C2A 4888   0.905  16.123  10.193  0.2787  0.2767  0.1047
  306loPI   C3A 4889   0.860  16.112   9.769  0.3115  0.1498 -0.0597
  306loPI   C4A 4890   0.941  16.136   9.280 -0.0262 -0.2992  0.2313
  306loPI   C5A 4891   0.957  16.238   8.810  0.1763  0.0754 -0.1527
  306loPI   C6A 4892   0.770  16.251   8.394  0.0753 -0.2548  0.2990
  306loPI   C1B 4893   1.478  16.146  10.623 -0.1587  0.2648  0.0699
  306loPI   C2B 4894   1.461  16.120  10.174 -0.3277 -0.3471 -0.4385
  306loPI   C3B 4895   1.408  16.108   9.733  0.0527 -0.0005  0.2965
  306loPI   C4B 4896   1.467  16.153   9.238 -0.0175  0.0137 -0.0206
  307loPI    C1 4897   2.894   0.288  11.503 -0.2270  0.1698  0.1469
  307loPI    C2 4898   3.049   0.478  11.819  0.1403 -0.1659  0.1751
  307loPI    C3 4899   3.058   0.078  11.801  0.3124 -0.1471 -0.3510
  307loPI   PO4 4900   2.946   0.433  11.275 -0.1809  0.1336  0.1001
  307loPI   GL1 4901   3.045   0.184  10.884  0.0073 -0.0375 -0.1309
  307loPI   GL2 4902   3.211  -0.088  10.832 -0.3324  0.0528  0.0308
  307loPI   C1A 4903   2.951   0.261  10.425 -0.1602  0.1635 -0.1429
  307loPI   C2A 4904   2.882   0.241  10.066 -0.0430 -0.2482  0.1682
  307loPI   C3A 4905   2.986   0.235   9.596  0.1800  0.0028 -0.2377
  307loPI   C4A 4906   2.984   0.193   9.190  0.4557 -0.1381  0.1520
  307loPI   C5A 4907   2.868   0.460   8.808  0.0662  0.0987  0.0412
  307loPI   C6A 4908   2.762   0.588   8.337 -0.4544  0.2162 -0.1033
  307loPI   C1B 4909   3.253  -0.213  10.405  0.0260 -0.0259  0.1312
  307loPI   C2B 4910   3.121  -0.240  10.073  0.0057 -0.0464 -0.2022
  307loPI   C3B 4911   3.247  -0.145   9.643 -0.3222  0.1172 -0.2678
  307loPI   C4B 4912   3.226  -0.253   9.192  0.3292 -0.1635 -0.0046
  308loPI    C1 4913   0.448   8.158  11.594 -0.1593  0.1670  0.0271
  308loPI    C2 4914   0.764   7.991  11.773 -0.0879 -0.0038 -0.2524
  308loPI    C3 4915   0.530   8.244  11.976  0.1810  0.0631 -0.0194
  308loPI   PO4 4916   0.571   8.196  11.380  0.0417  0.0612  0.2302
  308loPI   GL1 4917   0.354   8.264  11.003 -0.2547 -0.1297  0.1045
  308loPI   GL2 4918   0.400   8.671  11.057  0.0376 -0.0583  0.2321
  308loPI   C1A 4919   0.374   8.226  10.530 -0.1156 -0.2759 -0.0383
  308loPI   C2A 4920   0.315   8.224  10.056 -0.1216  0.1865 -0.1309
  308loPI   C3A 4921   0.323   8.253   9.614  0.1967  0.2539  0.0354
  308loPI   C4A 4922   0.259   8.296   9.223 -0.3102 -0.0073  0.1593
  308loPI   C5A 4923   0.281   8.589   8.884 -0.1524 -0.0066  0.2315
  308loPI   C6A 4924   0.183   8.713   8.502  0.0985  0.1118 -0.0065
  308loPI   C1B 4925   0.295   8.728  10.605 -0.1333 -0.2692 -0.0820
  308loPI   C2B 4926   0.248   8.753  10.122 -0.0842 -0.1377 -0.1646
  308loPI   C3B 4927   0.169   8.804   9.781 -0.1187 -0.1673 -0.2189
  308loPI   C4B 4928   0.246   8.805   9.366 -0.0449  0.1583  0.0267
  309loPI    C1 4929   5.481  13.627  11.346 -0.1077 -0.0421 -0.0324
  309loPI    C2 4930   5.803  13.789  11.521 -0.0212 -0.1336 -0.1055
  309loPI    C3 4931   5.548  13.568  11.736 -0.1701  0.1432  0.0073
  309loPI   PO4 4932   5.661  13.662  11.104 -0.1645  0.0567 -0.0103
  309loPI   GL1 4933   5.767  13.573  10.735  0.0764  0.2700  0.0126
  309loPI   GL2 4934   5.446  13.448  10.639  0.2670 -0.0382  0.2460
  309loPI   C1A 4935   5.763  13.548  10.235  0.0536  0.1734  0.1986
  309loPI   C2A 4936   5.773  13.517   9.809  0.0190  0.2613 -0.0999
  309loPI   C3A 4937   5.663  13.543   9.372  0.1548 -0.0392 -0.1080
  309loPI   C4A 4938   5.670  13.698   8.872 -0.3227 -0.2404 -0.1101
  309loPI   C5A 4939   5.440  13.608   8.552 -0.2166  0.0153  0.0063
  309loPI   C6A 4940   5.387  13.578   8.071  0.1284  0.1171  0.2985
  309loPI   C1B 4941   5.318  13.295  10.261 -0.2004  0.2165 -0.0634
  309loPI   C2B 4942   5.304  13.173   9.875  0.1376 -0.2367  0.1737
  309loPI   C3B 4943   5.319  13.247   9.422 -0.0018 -0.1014  0.2193
  309loPI   C4B 4944   5.227  13.367   9.001 -0.0288  0.0205 -0.0830
  310loPI    C1 4945  14.383  13.516  11.490  0.0489 -0.0774  0.1240
  310loPI    C2 4946  14.373  13.796  11.776 -0.0187  0.1695 -0.1154
  310loPI    C3 4947  14.714  13.601  11.699  0.0218  0.1644  0.0714
  310loPI   PO4 4948  14.296  13.675  11.227 -0.1129  0.0499  0.2683
  310loPI   GL1 4949  14.396  13.654  10.767 -0.1726  0.2681 -0.1160
  310loPI   GL2 4950  14.137  13.809  10.765  0.2270 -0.2298  0.1413
  310loPI   C1A 4951  14.671  13.734  10.455 -0.1015 -0.0613 -0.2275
  310loPI   C2A 4952  14.902  13.470  10.210 -0.0276 -0.0884  0.0920
  310loPI   C3A 4953  14.884  13.111   9.888  0.0825 -0.0786 -0.0126
  310loPI   C4A 4954  14.822  13.076   9.518 -0.2419  0.2040 -0.4611
  310loPI   C5A 4955  14.726  13.006   9.132 -0.1295  0.1094 -0.0800
  310loPI   C6A 4956  14.625  13.022   8.613  0.0354 -0.0485  0.1222
  310loPI   C1B 4957  14.264  13.787  10.267 -0.3161  0.0242  0.0178
  310loPI   C2B 4958  14.498  13.775   9.955  0.1138  0.2025 -0.0235
  310loPI   C3B 4959  14.480  13.851   9.581 -0.3026 -0.1215 -0.0810
  310loPI   C4B 4960  14.736  13.594   9.390 -0.0351 -0.2951 -0.1871
  311loPI    C1 4961   1.471   5.763  11.325 -0.3447 -0.3643 -0.1042
  311loPI    C2 4962   1.347   5.846  11.697 -0.2603 -0.1151 -0.1305
  311loPI    C3 4963   1.732   5.759  11.628 -0.2554 -0.0597 -0.1742
  311loPI   PO4 4964   1.345   5.961  11.145  0.2467  0.0663  0.0758
  311loPI   GL1 4965   1.464   6.162  10.716 -0.0044  0.3822 -0.2365
  311loPI   GL2 4966   1.264   6.378  10.787 -0.1855 -0.1541 -0.0454
  311loPI   C1A 4967   1.487   6.110  10.242 -0.0615  0.1222  0.0877
  311loPI   C2A 4968   1.381   6.206   9.848 -0.1515  0.0112  0.2122
  311loPI   C3A 4969   1.314   6.089   9.527 -0.2587 -0.0859  0.0525
  311loPI   C4A 4970   1.280   6.173   9.098 -0.0694 -0.0672 -0.0462
  311loPI   C5A 4971   1.040   6.511   8.804  0.0375 -0.1411  0.1773
  311loPI   C6A 4972   1.007   6.807   8.439  0.2537  0.0315  0.0426
  311loPI   C1B 4973   1.274   6.694  10.443  0.0952 -0.1082  0.2477
  311loPI   C2B 4974   1.258   6.725  10.056 -0.0305  0.1090 -0.1934
  311loPI   C3B 4975   1.324   6.676   9.670 -0.0884 -0.2149 -0.2977
  311loPI   C4B 4976   1.343   6.694   9.266 -0.2326 -0.1634 -0.0092
  312loPI    C1 4977  17.315   6.557  11.415 -0.1810  0.1330  0.0065
  312loPI    C2 4978  17.014   6.424  11.643 -0.0966  0.1360  0.1204
  312loPI    C3 4979  17.289   6.669  11.798 -0.0383  0.1379  0.0149
  312loPI   PO4 4980  17.204   6.505  11.162  0.1157  0.0525 -0.0631
  312loPI   GL1 4981  17.329   6.236  10.882  0.0905 -0.4172 -0.2361
  312loPI   GL2 4982  17.232   6.493  10.631 -0.1445 -0.0150  0.2121
  312loPI   C1A 4983  17.712   6.410  10.546 -0.0419 -0.1576 -0.0675
  312loPI   C2A 4984  17.720   6.442  10.105 -0.0164 -0.0405 -0.0085
  312loPI   C3A 4985  17.670   6.423   9.658 -0.3271 -0.1058 -0.1186
  312loPI   C4A 4986  17.330   6.224   9.500  0.1495 -0.0103  0.3728
  312loPI   C5A 4987  17.231   6.063   9.078 -0.0926 -0.1733  0.0231
  312loPI   C6A 4988  16.965   5.808   9.023  0.0149 -0.0290 -0.0592
  312loPI   C1B 4989  17.259   6.662  10.237 -0.1571  0.1401 -0.0351
  312loPI   C2B 4990  17.296   6.664   9.863 -0.0977 -0.2078  0.0707
  312loPI   C3B 4991  17.142   6.620   9.363 -0.0854 -0.0912 -0.0877
  312loPI   C4B 4992  17.201   6.566   8.925  0.3241 -0.0156  0.0066
  313loPI    C1 4993   9.655   2.751  11.797  0.0729 -0.0665  0.0657
  313loPI    C2 4994   9.466   3.019  12.026 -0.1080  0.0901 -0.2595
  313loPI    C3 4995   9.410   2.628  12.088  0.0076  0.1256  0.0935
  313loPI   PO4 4996   9.547   2.770  11.596  0.2224 -0.1059  0.2783
  313loPI   GL1 4997   9.686   2.642  11.166  0.1349 -0.1384 -0.2414
  313loPI   GL2 4998   9.880   2.426  11.007 -0.1024  0.2354 -0.0823
  313loPI   C1A 4999   9.310   2.589  10.832  0.0062 -0.0352 -0.2731
  313loPI   C2A 5000   9.287   2.798  10.511 -0.1951  0.1436 -0.1715
  313loPI   C3A 5001   9.265   2.680   9.976 -0.1548  0.2097  0.0747
  313loPI   C4A 5002   9.283   2.715   9.562 -0.4518  0.0128  0.1030
  313loPI   C5A 5003   9.308   2.722   9.138 -0.2187  0.1167 -0.0161
  313loPI   C6A 5004   9.366   2.577   8.742 -0.2575  0.2398  0.0898
  313loPI   C1B 5005  10.017   2.254  10.625  0.3309 -0.0372 -0.0094
  313loPI   C2B 5006   9.971   2.360  10.289 -0.1027  0.0866  0.2447
  313loPI   C3B 5007  10.071   2.292   9.935 -0.1117 -0.2488 -0.3386
  313loPI   C4B 5008   9.947   2.321   9.440 -0.2751  0.0107 -0.0415
  314loPI    C1 5009   7.335  10.196  11.415  0.1586 -0.1971  0.0997
  314loPI    C2 5010   7.329   9.959  11.737 -0.0731 -0.0366  0.2162
  314loPI    C3 5011   7.307  10.356  11.781  0.0409 -0.0062  0.0086
  314loPI   PO4 5012   7.248  10.110  11.255 -0.3146  0.0411 -0.0662
  314loPI   GL1 5013   7.190  10.212  10.865 -0.0189 -0.0121 -0.1713
  314loPI   GL2 5014   7.382  10.245  10.657  0.0332 -0.0060  0.0697
  314loPI   C1A 5015   6.922  10.477  10.590  0.0850 -0.0465 -0.0127
  314loPI   C2A 5016   6.920  10.467  10.157 -0.2572 -0.0106 -0.1420
  314loPI   C3A 5017   6.938  10.528   9.744  0.2456 -0.2025  0.1248
  314loPI   C4A 5018   6.871  10.568   9.385 -0.0720  0.1498  0.0837
  314loPI   C5A 5019   6.948  10.823   8.903 -0.1919  0.4409  0.0888
  314loPI   C6A 5020   7.133  11.148   8.714  0.4334 -0.0952  0.0275
  314loPI   C1B 5021   7.318  10.267  10.297 -0.0461 -0.2625 -0.0683
  314loPI   C2B 5022   7.355  10.202   9.842 -0.0581 -0.0842 -0.0281
  314loPI   C3B 5023   7.347  10.326   9.422 -0.1580  0.1371 -0.1250
  314loPI   C4B 5024   7.250  10.345   9.005 -0.1170 -0.2796 -0.1301
  315loPI    C1 5025  16.744  14.939  11.315  0.1484  0.0693 -0.0249
  315loPI    C2 5026  17.100  14.877  11.485  0.0528  0.1372  0.2037
  315loPI    C3 5027  16.782  14.960  11.712 -0.1590 -0.1510  0.0196
  315loPI   PO4 5028  16.857  14.752  11.037  0.1501  0.0399 -0.2155
  315loPI   GL1 5029  17.015  14.547  10.731 -0.2194  0.2230  0.1226
  315loPI   GL2 5030  17.331  14.551  10.540  0.0738  0.1121 -0.0649
  315loPI   C1A 5031  16.893  14.682  10.303  0.1384  0.3503 -0.2317
  315loPI   C2A 5032  16.859  14.536   9.937  0.2194 -0.2860  0.2156
  315loPI   C3A 5033  16.986  14.605   9.556 -0.0740  0.1199 -0.1173
  315loPI   C4A 5034  16.672  14.680   9.193 -0.1528  0.3568 -0.1157
  315loPI   C5A 5035  16.200  14.770   9.033  0.1803  0.2086  0.2245
  315loPI   C6A 5036  15.949  14.706   9.376 -0.1852 -0.0050 -0.0751
  315loPI   C1B 5037  17.375  14.395  10.030  0.2335  0.1864  0.2092
  315loPI   C2B 5038  17.471  14.522   9.671 -0.1156  0.2997  0.2851
  315loPI   C3B 5039  17.420  14.817   9.390  0.1773 -0.2907  0.0644
  315loPI   C4B 5040  17.572  15.171   9.453  0.2008  0.2178 -0.0294
  316loPI    C1 5041   2.152   2.248  11.637  0.4265  0.1031  0.0420
  316loPI    C2 5042   2.014   2.410  11.976  0.0587 -0.1014 -0.0052
  316loPI    C3 5043   2.210   2.062  11.986  0.0273 -0.1191 -0.0037
  316loPI   PO4 5044   1.925   2.285  11.472 -0.1700 -0.1770  0.1174
  316loPI   GL1 5045   1.746   2.398  11.193  0.3737  0.1045 -0.1763
  316loPI   GL2 5046   1.834   2.127  11.015  0.1321 -0.1088 -0.1201
  316loPI   C1A 5047   1.563   2.541  10.785 -0.0403  0.0167 -0.2089
  316loPI   C2A 5048   1.546   2.524  10.303  0.0374  0.0950 -0.0403
  316loPI   C3A 5049   1.592   2.469   9.835  0.4087  0.2065 -0.0019
  316loPI   C4A 5050   1.602   2.507   9.381  0.1636  0.1242 -0.2762
  316loPI   C5A 5051   1.193   2.629   9.144  0.0694 -0.2261  0.0729
  316loPI   C6A 5052   0.868   2.666   8.878 -0.1025 -0.0799  0.1464
  316loPI   C1B 5053   1.810   2.038  10.477 -0.0002  0.3100 -0.3274
  316loPI   C2B 5054   1.790   1.978  10.085 -0.2261 -0.1185 -0.0246
  316loPI   C3B 5055   1.858   1.997   9.720  0.0879 -0.0461  0.0163
  316loPI   C4B 5056   1.785   2.027   9.363  0.2584  0.3703  0.1125
  317loPI    C1 5057  13.942   5.744  11.537  0.0782  0.0341 -0.0447
  317loPI    C2 5058  14.229   5.899  11.769  0.0553 -0.0648  0.0508
  317loPI    C3 5059  14.207   5.503  11.716  0.0236 -0.0469 -0.0722
  317loPI   PO4 5060  13.973   5.875  11.288  0.3101 -0.1081 -0.0730
  317loPI   GL1 5061  13.972   5.839  10.946  0.1169  0.1307  0.0529
  317loPI   GL2 5062  13.620   6.122  10.909 -0.0377  0.2983  0.1181
  317loPI   C1A 5063  14.012   5.892  10.549  0.3479 -0.2691  0.0936
  317loPI   C2A 5064  14.125   5.912  10.134  0.1022  0.2788 -0.1865
  317loPI   C3A 5065  14.060   5.879   9.671  0.0418  0.1143 -0.1413
  317loPI   C4A 5066  14.140   5.814   9.235 -0.3633 -0.2412  0.3248
  317loPI   C5A 5067  13.824   5.764   8.826 -0.2580  0.0093 -0.5260
  317loPI   C6A 5068  13.402   5.736   8.814 -0.2390  0.0499  0.2252
  317loPI   C1B 5069  13.569   6.240  10.454 -0.3899  0.1396 -0.2329
  317loPI   C2B 5070  13.547   6.140  10.081 -0.1016 -0.0423 -0.1592
  317loPI   C3B 5071  13.575   6.110   9.647  0.0318  0.0687  0.0569
  317loPI   C4B 5072  13.666   5.810   9.311 -0.2825  0.0901  0.2113
  318loPI    C1 5073   8.358  11.559  11.537 -0.2506 -0.0104  0.0317
  318loPI    C2 5074   8.381  11.352  11.879  0.1413  0.1938  0.1338
  318loPI    C3 5075   8.054  11.568  11.797 -0.0125  0.0322  0.3126
  318loPI   PO4 5076   8.388  11.413  11.330  0.1080  0.0397  0.0464
  318loPI   GL1 5077   8.461  11.271  10.898  0.0958  0.3272  0.1717
  318loPI   GL2 5078   8.784  11.252  10.770 -0.0722  0.3295  0.0341
  318loPI   C1A 5079   8.209  11.374  10.602 -0.0547  0.2329  0.0138
  318loPI   C2A 5080   8.197  11.369  10.156  0.0803  0.0134 -0.0321
  318loPI   C3A 5081   8.111  11.313   9.780  0.0334  0.1893 -0.0359
  318loPI   C4A 5082   8.150  11.311   9.293  0.1095  0.0448 -0.1692
  318loPI   C5A 5083   8.023  11.474   8.864 -0.0475 -0.4082  0.0295
  318loPI   C6A 5084   7.818  11.768   8.604  0.1726 -0.1378 -0.1351
  318loPI   C1B 5085   8.666  11.136  10.402  0.0988 -0.1450  0.0194
  318loPI   C2B 5086   8.627  11.125  10.035 -0.1873  0.0385  0.5010
  318loPI   C3B 5087   8.630  11.055   9.612 -0.1249  0.2390  0.0775
  318loPI   C4B 5088   8.662  11.097   9.178  0.0981  0.2241 -0.1544
  319loPI    C1 5089  15.066  13.958  11.387 -0.0898  0.2945 -0.0686
  319loPI    C2 5090  15.114  13.912  11.781 -0.4120  0.3102 -0.0245
  319loPI    C3 5091  15.417  13.834  11.532 -0.2823  0.0580  0.2075
  319loPI   PO4 5092  14.741  13.959  11.344  0.1106 -0.0820 -0.1326
  319loPI   GL1 5093  14.553  14.127  10.911 -0.4029 -0.1450  0.0620
  319loPI   GL2 5094  14.287  14.316  10.947  0.2087 -0.2258 -0.4038
  319loPI   C1A 5095  14.604  14.237  10.421  0.0384 -0.5827 -0.2356
  319loPI   C2A 5096  14.616  14.291  10.053  0.2010 -0.1568  0.0429
  319loPI   C3A 5097  14.715  14.250   9.625  0.0985  0.1365  0.0897
  319loPI   C4A 5098  14.694  14.247   9.095  0.1389 -0.4312 -0.3146
  319loPI   C5A 5099  14.835  14.614   8.779  0.2452 -0.1756 -0.0020
  319loPI   C6A 5100  14.735  15.024   8.962 -0.0874 -0.1442 -0.2123
  319loPI   C1B 5101  14.065  14.238  10.575  0.0611 -0.1659 -0.2077
  319loPI   C2B 5102  14.013  14.221  10.125  0.0835 -0.3635  0.1899
  319loPI   C3B 5103  14.158  14.182   9.723 -0.1567 -0.4544  0.1968
  319loPI   C4B 5104  14.186  14.201   9.316  0.0241 -0.2444  0.1213
  320loPI    C1 5105   6.206  15.980  11.621 -0.0492 -0.0666  0.1677
  320loPI    C2 5106   6.469  16.106  11.896  0.0196  0.1187  0.0191
  320loPI    C3 5107   6.077  16.158  11.956  0.0277  0.0460  0.1384
  320loPI   PO4 5108   6.290  15.993  11.391  0.0824  0.4091  0.0817
  320loPI   GL1 5109   6.297  16.190  11.075 -0.0204 -0.0538  0.3563
  320loPI   GL2 5110   6.113  16.435  10.967  0.4477  0.5170 -0.2121
  320loPI   C1A 5111   6.111  15.891  10.744  0.1911 -0.2520  0.1058
  320loPI   C2A 5112   6.219  15.810  10.261 -0.2551  0.1273  0.1694
  320loPI   C3A 5113   6.430  15.665   9.895  0.2673  0.2509 -0.1119
  320loPI   C4A 5114   6.478  15.650   9.439  0.2415 -0.1171  0.0496
  320loPI   C5A 5115   6.489  15.665   8.998  0.3289  0.0203  0.0250
  320loPI   C6A 5116   6.401  15.887   8.542  0.2486  0.1899 -0.1325
  320loPI   C1B 5117   6.200  16.532  10.493  0.2298 -0.1051 -0.1547
  320loPI   C2B 5118   6.375  16.677  10.082 -0.1120 -0.1113  0.1852
  320loPI   C3B 5119   6.348  16.574   9.726 -0.1436  0.0067 -0.2865
  320loPI   C4B 5120   6.376  16.629   9.204 -0.2267 -0.0071 -0.1306
  321loPI    C1 5121   2.705  11.761  11.323 -0.0487  0.1481  0.0061
  321loPI    C2 5122   2.676  11.412  11.517  0.0060  0.1863  0.0838
  321loPI    C3 5123   2.963  11.672  11.615 -0.0033  0.2319 -0.0083
  321loPI   PO4 5124   2.752  11.742  11.006 -0.0351  0.3070 -0.0376
  321loPI   GL1 5125   2.543  11.927  10.713  0.1507  0.0191 -0.2222
  321loPI   GL2 5126   2.709  12.026  10.565 -0.0905  0.0023  0.4323
  321loPI   C1A 5127   2.353  11.663  10.391  0.0847 -0.1375 -0.0756
  321loPI   C2A 5128   2.315  11.612   9.973  0.1114 -0.0318 -0.1590
  321loPI   C3A 5129   2.149  11.726   9.553  0.2586  0.3729 -0.2163
  321loPI   C4A 5130   2.220  11.746   9.189  0.0487 -0.2593 -0.1659
  321loPI   C5A 5131   2.253  11.877   8.809 -0.1536  0.1388 -0.1379
  321loPI   C6A 5132   2.545  11.790   8.401  0.0371 -0.3454  0.1901
  321loPI   C1B 5133   2.659  11.945  10.127  0.0491 -0.0461 -0.0597
  321loPI   C2B 5134   2.656  11.962   9.799 -0.0560 -0.1235  0.6931
  321loPI   C3B 5135   2.621  12.053   9.344 -0.1651  0.0704  0.3553
  321loPI   C4B 5136   2.684  11.989   8.927  0.1197  0.0486  0.1977
  322loPI    C1 5137   4.237   5.990  11.562  0.1224  0.4414 -0.0607
  322loPI    C2 5138   4.602   6.027  11.721  0.1070  0.1816  0.0400
  322loPI    C3 5139   4.279   6.083  11.949  0.0842  0.1873  0.0063
  322loPI   PO4 5140   4.213   6.142  11.319  0.0279 -0.3624 -0.1088
  322loPI   GL1 5141   4.141   6.275  10.871 -0.2122  0.0644 -0.0324
  322loPI   GL2 5142   4.426   6.211  10.803  0.1756  0.0871  0.1840
  322loPI   C1A 5143   3.987   6.354  10.487  0.1901 -0.0549 -0.1955
  322loPI   C2A 5144   4.052   6.381  10.101  0.0191  0.1665  0.2133
  322loPI   C3A 5145   3.997   6.344   9.616 -0.1678 -0.0227 -0.3386
  322loPI   C4A 5146   4.088   6.420   9.174 -0.1492 -0.4892 -0.0650
  322loPI   C5A 5147   4.340   6.644   8.844  0.0036  0.1465 -0.2440
  322loPI   C6A 5148   4.531   6.405   8.518  0.0343  0.2027  0.2318
  322loPI   C1B 5149   4.459   6.234  10.304 -0.3516  0.1869 -0.0489
  322loPI   C2B 5150   4.455   6.186   9.875 -0.1900 -0.1834 -0.1379
  322loPI   C3B 5151   4.466   6.227   9.424 -0.1579 -0.3516  0.1398
  322loPI   C4B 5152   4.480   6.156   9.027 -0.0144 -0.0674 -0.0503
  323loPI    C1 5153   3.423  15.677  11.550  0.0152 -0.0825 -0.0558
  323loPI    C2 5154   3.325  16.027  11.716  0.1047 -0.0125 -0.1499
  323loPI    C3 5155   3.077  15.716  11.746 -0.0266  0.0902 -0.1613
  323loPI   PO4 5156   3.536  15.784  11.312  0.0204  0.0503  0.0161
  323loPI   GL1 5157   3.569  15.920  10.821  0.1200 -0.1047  0.0025
  323loPI   GL2 5158   3.675  15.743  10.764  0.0088 -0.0504  0.1491
  323loPI   C1A 5159   3.456  16.121  10.373  0.0326  0.3307 -0.0364
  323loPI   C2A 5160   3.560  16.073   9.946 -0.0592  0.2285 -0.0498
  323loPI   C3A 5161   3.549  16.063   9.533 -0.1829 -0.0891 -0.1558
  323loPI   C4A 5162   3.584  16.084   9.062 -0.1338 -0.1629  0.1126
  323loPI   C5A 5163   3.564  15.891   8.624 -0.0476 -0.0335  0.1218
  323loPI   C6A 5164   3.661  15.818   8.242 -0.0831  0.4400  0.1232
  323loPI   C1B 5165   3.690  15.580  10.361  0.0231 -0.1428  0.1077
  323loPI   C2B 5166   3.831  15.554   9.895 -0.1196  0.1632  0.0421
  323loPI   C3B 5167   3.876  15.681   9.495 -0.0196 -0.0692 -0.0044
  323loPI   C4B 5168   3.907  15.711   9.019 -0.1151  0.0061  0.1891
  324loPI    C1 5169  16.264  13.401  11.776  0.2006 -0.1456  0.0001
  324loPI    C2 5170  16.018  13.489  12.078  0.1615 -0.3513  0.0296
  324loPI    C3 5171  16.198  13.783  11.875 -0.0086 -0.2037  0.0894
  324loPI   PO4 5172  16.154  13.292  11.559  0.0688 -0.0332 -0.3288
  324loPI   GL1 5173  16.159  13.248  11.048 -0.0172  0.1887  0.0430
  324loPI   GL2 5174  16.213  13.518  10.962 -0.2500 -0.0429  0.0303
  324loPI   C1A 5175  16.060  13.103  10.724 -0.3084  0.0319 -0.0311
  324loPI   C2A 5176  16.174  12.931  10.263  0.2194  0.1548  0.1583
  324loPI   C3A 5177  16.224  13.009   9.929 -0.1671  0.0371  0.0033
  324loPI   C4A 5178  16.232  12.855   9.583  0.1416 -0.3916 -0.2775
  324loPI   C5A 5179  16.231  12.916   9.145  0.1102 -0.1903 -0.0091
  324loPI   C6A 5180  16.367  13.120   8.689 -0.2294  0.0466 -0.0352
  324loPI   C1B 5181  16.124  13.472  10.458  0.2215 -0.1018  0.1235
  324loPI   C2B 5182  16.137  13.496   9.938 -0.2866 -0.1179 -0.3021
  324loPI   C3B 5183  16.175  13.462   9.524 -0.0385  0.1460 -0.3372
  324loPI   C4B 5184  16.193  13.386   9.112  0.0595  0.2668  0.2455
  325loPI    C1 5185   8.430  16.643  11.290  0.0842  0.0646 -0.1234
  325loPI    C2 5186   8.576  16.314  11.115  0.0554  0.1243 -0.2613
  325loPI    C3 5187   8.703  16.420  11.479 -0.1945 -0.2332 -0.0638
  325loPI   PO4 5188   8.365  16.794  11.022 -0.0271  0.1974 -0.0952
  325loPI   GL1 5189   8.524  16.695  10.746  0.0042  0.1432  0.3817
  325loPI   GL2 5190   8.448  16.391  10.642 -0.3204  0.1757 -0.0391
  325loPI   C1A 5191   8.319  16.747  10.313 -0.1644 -0.5337  0.0904
  325loPI   C2A 5192   8.387  16.775   9.872 -0.0926 -0.0960  0.0192
  325loPI   C3A 5193   8.416  16.740   9.479  0.0031  0.2798  0.0646
  325loPI   C4A 5194   8.429  16.714   9.045  0.2639 -0.1032  0.0760
  325loPI   C5A 5195   8.542  16.943   8.653  0.2143  0.0819 -0.1289
  325loPI   C6A 5196   8.670  16.808   8.233  0.0605 -0.4151 -0.1075
  325loPI   C1B 5197   8.669  16.338  10.217 -0.0555 -0.1062 -0.4305
  325loPI   C2B 5198   8.696  16.359   9.792 -0.1349  0.0992 -0.0271
  325loPI   C3B 5199   8.589  16.239   9.322  0.0462 -0.1526  0.0222
  325loPI   C4B 5200   8.666  16.237   8.883  0.1202 -0.0036 -0.0384
  326loPI    C1 5201   2.299  13.155  11.556  0.2120  0.0931 -0.0401
  326loPI    C2 5202   2.338  13.521  11.713 -0.1636  0.0952  0.0597
  326loPI    C3 5203   2.276  13.206  11.952 -0.0558 -0.0034 -0.0406
  326loPI   PO4 5204   2.430  13.179  11.359 -0.1656 -0.2098  0.0119
  326loPI   GL1 5205   2.413  13.300  10.941 -0.0882  0.3098  0.1818
  326loPI   GL2 5206   2.347  13.538  10.739 -0.0690  0.2131  0.4186
  326loPI   C1A 5207   2.501  13.021  10.624  0.2887 -0.1464  0.2424
  326loPI   C2A 5208   2.546  13.057  10.165  0.0229 -0.0750  0.0137
  326loPI   C3A 5209   2.567  12.999   9.780  0.0650  0.1336  0.3022
  326loPI   C4A 5210   2.607  12.970   9.324  0.4009 -0.0764 -0.1945
  326loPI   C5A 5211   2.543  13.035   8.826 -0.0592 -0.1121 -0.1040
  326loPI   C6A 5212   2.225  12.918   8.501  0.0232 -0.1631  0.2240
  326loPI   C1B 5213   2.502  13.532  10.356  0.2167  0.1435 -0.1303
  326loPI   C2B 5214   2.524  13.469   9.947 -0.3245 -0.0826  0.3004
  326loPI   C3B 5215   2.615  13.508   9.491 -0.3274 -0.1510 -0.1483
  326loPI   C4B 5216   3.095  13.285   9.261 -0.0573 -0.2459  0.1413
  327loPI    C1 5217   6.988   3.218  11.568  0.0189  0.0332  0.0567
  327loPI    C2 5218   6.973   2.874  11.771  0.0347  0.0697  0.1202
  327loPI    C3 5219   6.797   3.202  11.919 -0.2429  0.0174 -0.0841
  327loPI   PO4 5220   6.958   3.300  11.368  0.0756  0.2226  0.0458
  327loPI   GL1 5221   7.088   3.256  10.992  0.2977 -0.3843 -0.4011
  327loPI   GL2 5222   7.153   3.606  10.908 -0.3791 -0.0106 -0.0194
  327loPI   C1A 5223   6.930   3.118  10.661 -0.2802  0.1292 -0.4912
  327loPI   C2A 5224   7.007   3.082  10.345 -0.1275  0.0940  0.2814
  327loPI   C3A 5225   7.035   3.103   9.929 -0.1641  0.2221  0.1784
  327loPI   C4A 5226   7.068   3.015   9.485  0.2137 -0.1398  0.0664
  327loPI   C5A 5227   7.133   3.003   9.055 -0.1137  0.1085 -0.3289
  327loPI   C6A 5228   7.440   3.100   8.809  0.0566  0.0539 -0.0363
  327loPI   C1B 5229   7.204   3.517  10.519 -0.0308 -0.0962 -0.1595
  327loPI   C2B 5230   7.201   3.559  10.036  0.2819  0.2875  0.0043
  327loPI   C3B 5231   7.267   3.500   9.600 -0.0700 -0.0613  0.0083
  327loPI   C4B 5232   7.349   3.408   9.228  0.1848 -0.0281  0.1676
  328loPI    C1 5233   8.301  13.971  11.279 -0.0982  0.0833  0.2134
  328loPI    C2 5234   8.405  14.142  11.626  0.2090  0.0338  0.1491
  328loPI    C3 5235   8.501  13.761  11.554 -0.0230 -0.0144  0.0851
  328loPI   PO4 5236   8.399  14.126  11.083  0.0078 -0.1063  0.0157
  328loPI   GL1 5237   8.391  14.291  10.704  0.0939 -0.1729 -0.4358
  328loPI   GL2 5238   8.512  14.068  10.574 -0.0733  0.0536 -0.0071
  328loPI   C1A 5239   8.272  14.438  10.193 -0.0819 -0.1022 -0.2683
  328loPI   C2A 5240   8.264  14.456   9.742 -0.0209  0.2032 -0.0863
  328loPI   C3A 5241   8.160  14.464   9.344  0.1809  0.2876 -0.1260
  328loPI   C4A 5242   7.769  14.382   9.222  0.0919 -0.0574  0.2944
  328loPI   C5A 5243   7.644  14.383   8.740 -0.2140  0.2199 -0.2277
  328loPI   C6A 5244   7.761  14.191   8.399  0.1528 -0.2186 -0.0871
  328loPI   C1B 5245   8.532  13.993  10.095  0.1689  0.1829 -0.1024
  328loPI   C2B 5246   8.536  14.025   9.620  0.1912 -0.0705  0.0694
  328loPI   C3B 5247   8.460  13.794   9.305  0.1213 -0.1222 -0.0928
  328loPI   C4B 5248   8.492  13.734   8.872  0.0119  0.0306  0.1363
  329loPI    C1 5249  10.726  11.825  11.353 -0.3372  0.1955  0.1421
  329loPI    C2 5250  10.567  11.461  11.397 -0.3752  0.2186  0.1963
  329loPI    C3 5251  10.822  11.602  11.671  0.2087 -0.0569 -0.1837
  329loPI   PO4 5252  10.556  11.877  11.113  0.1082  0.2811 -0.0093
  329loPI   GL1 5253  10.440  12.096  10.842  0.2025 -0.0144  0.1455
  329loPI   GL2 5254  10.492  12.331  10.776 -0.0311 -0.5461 -0.0296
  329loPI   C1A 5255  10.429  11.821  10.406 -0.0350  0.1950 -0.2495
  329loPI   C2A 5256  10.458  11.743  10.008 -0.0341 -0.0360  0.1059
  329loPI   C3A 5257  10.353  11.596   9.661  0.1942  0.1378 -0.2798
  329loPI   C4A 5258  10.294  11.728   9.167  0.1177  0.0237  0.0223
  329loPI   C5A 5259  10.112  11.804   8.813  0.0436 -0.2675  0.0149
  329loPI   C6A 5260  10.061  11.875   8.361  0.2991  0.4661 -0.3005
  329loPI   C1B 5261  10.413  12.295  10.330  0.1726 -0.1437  0.2116
  329loPI   C2B 5262  10.354  12.180   9.941 -0.0595 -0.1674 -0.1050
  329loPI   C3B 5263  10.322  12.179   9.479  0.2118  0.1075  0.0589
  329loPI   C4B 5264  10.265  12.264   9.019 -0.1844 -0.0150  0.2022
  330loPI    C1 5265  13.031   3.074  11.509 -0.1585 -0.0637 -0.1340
  330loPI    C2 5266  13.247   2.919  11.807 -0.1139 -0.1468 -0.2088
  330loPI    C3 5267  12.882   3.066  11.880  0.0231  0.1250 -0.0553
  330loPI   PO4 5268  13.176   3.039  11.301 -0.1129  0.0833 -0.0307
  330loPI   GL1 5269  13.144   2.814  11.034 -0.0908  0.1989  0.1671
  330loPI   GL2 5270  12.751   2.963  11.077  0.0759  0.1469 -0.1972
  330loPI   C1A 5271  13.313   2.770  10.640 -0.3757  0.1965  0.1820
  330loPI   C2A 5272  13.330   2.859  10.195 -0.0574 -0.0553 -0.0916
  330loPI   C3A 5273  13.414   2.715   9.820 -0.0884 -0.4657 -0.1686
  330loPI   C4A 5274  13.454   2.641   9.366  0.3393  0.2719  0.0697
  330loPI   C5A 5275  13.291   2.714   9.099 -0.2587 -0.0768  0.1169
  330loPI   C6A 5276  13.134   3.000   8.703 -0.3633 -0.2825 -0.0210
  330loPI   C1B 5277  12.743   2.796  10.760  0.2958  0.1617  0.1181
  330loPI   C2B 5278  12.866   2.766  10.357 -0.0198  0.0785  0.0587
  330loPI   C3B 5279  12.861   2.786   9.907 -0.2703 -0.0504  0.4152
  330loPI   C4B 5280  12.921   2.670   9.472 -0.1972 -0.0898  0.0475
  331loPI    C1 5281  16.886   5.431  11.462 -0.0546 -0.1076  0.0028
  331loPI    C2 5282  16.523   5.429  11.631  0.0112  0.0062  0.1482
  331loPI    C3 5283  16.848   5.365  11.855  0.0780 -0.1502  0.0089
  331loPI   PO4 5284  16.802   5.681  11.274 -0.4030  0.0471  0.0494
  331loPI   GL1 5285  16.839   5.526  10.827  0.0599 -0.0611 -0.1413
  331loPI   GL2 5286  16.951   5.872  10.806  0.1908 -0.2927 -0.1795
  331loPI   C1A 5287  16.878   5.527  10.370  0.0020 -0.1037 -0.0613
  331loPI   C2A 5288  16.916   5.747  10.005  0.2591  0.2059  0.1256
  331loPI   C3A 5289  16.976   5.898   9.545 -0.0163 -0.1931 -0.0788
  331loPI   C4A 5290  16.815   6.263   9.291 -0.0096  0.1400 -0.1165
  331loPI   C5A 5291  16.752   6.682   9.048  0.1964 -0.0809  0.0556
  331loPI   C6A 5292  16.841   6.943   8.700 -0.0332 -0.0606 -0.0988
  331loPI   C1B 5293  16.984   6.084  10.404 -0.2925  0.2070 -0.0970
  331loPI   C2B 5294  16.821   6.463  10.340 -0.1808  0.2365  0.1650
  331loPI   C3B 5295  16.831   6.758  10.001  0.1699 -0.0899  0.1457
  331loPI   C4B 5296  16.745   6.748   9.612  0.3376  0.2594 -0.1856
  332loPI    C1 5297   9.615  11.677  11.349 -0.1708  0.0062  0.0186
  332loPI    C2 5298   9.741  12.002  11.153 -0.3368 -0.0293 -0.1500
  332loPI    C3 5299   9.589  12.037  11.521 -0.1772  0.0589 -0.0916
  332loPI   PO4 5300   9.779  11.461  11.105  0.0969 -0.0049 -0.1357
  332loPI   GL1 5301   9.792  11.215  10.834 -0.0969  0.1501 -0.1455
  332loPI   GL2 5302   9.672  10.979  10.817 -0.2925  0.0646 -0.0563
  332loPI   C1A 5303   9.573  11.188  10.389 -0.1112  0.2402  0.0778
  332loPI   C2A 5304   9.553  11.125  10.025  0.1705 -0.0685 -0.0376
  332loPI   C3A 5305   9.508  11.090   9.521  0.0289 -0.0503 -0.0205
  332loPI   C4A 5306   9.530  11.113   9.032 -0.4192  0.2576  0.1540
  332loPI   C5A 5307   9.866  11.041   8.721 -0.1801  0.1244  0.0181
  332loPI   C6A 5308  10.136  10.915   8.334  0.0039 -0.3287 -0.0602
  332loPI   C1B 5309   9.719  10.719  10.491 -0.0548  0.0101  0.2825
  332loPI   C2B 5310   9.622  10.652  10.148  0.0175  0.1389  0.3003
  332loPI   C3B 5311   9.489  10.685   9.777  0.1278 -0.0509  0.1968
  332loPI   C4B 5312   9.510  10.599   9.378  0.1175  0.1513 -0.2610
  333loPI    C1 5313  15.515   6.820  11.700  0.2380  0.0483 -0.0266
  333loPI    C2 5314  15.885   6.966  11.747  0.0903  0.3921  0.1008
  333loPI    C3 5315  15.629   6.965  12.055 -0.0252  0.1804  0.0062
  333loPI   PO4 5316  15.539   6.668  11.474  0.0029  0.3635 -0.1898
  333loPI   GL1 5317  15.489   6.573  11.027 -0.3773 -0.2604  0.0497
  333loPI   GL2 5318  15.477   6.261  10.908 -0.1723 -0.0482  0.0356
  333loPI   C1A 5319  15.503   6.624  10.600 -0.1452  0.2359  0.1297
  333loPI   C2A 5320  15.432   6.839  10.206  0.1612  0.2384  0.2289
  333loPI   C3A 5321  15.508   6.772   9.726 -0.1193 -0.0541  0.1737
  333loPI   C4A 5322  15.409   6.830   9.302  0.0337 -0.2626  0.1004
  333loPI   C5A 5323  15.175   6.859   8.868  0.1468  0.0149 -0.4694
  333loPI   C6A 5324  14.883   7.178   8.815  0.1079 -0.2915 -0.0669
  333loPI   C1B 5325  15.432   6.187  10.434  0.0872 -0.0493  0.4366
  333loPI   C2B 5326  15.415   6.258  10.061  0.2197  0.3452 -0.1657
  333loPI   C3B 5327  15.523   6.281   9.769  0.2539 -0.1527 -0.0948
  333loPI   C4B 5328  15.480   6.139   9.450 -0.3520  0.1290  0.3547
  334loPI    C1 5329   3.633   1.200  11.887  0.0277  0.0367 -0.0216
  334loPI    C2 5330   3.884   0.951  12.074  0.0714 -0.0551 -0.1998
  334loPI    C3 5331   3.969   1.342  12.051  0.1914 -0.0836 -0.2478
  334loPI   PO4 5332   3.614   0.994  11.635  0.0878  0.3124 -0.0647
  334loPI   GL1 5333   3.497   1.134  11.144  0.1917 -0.3724 -0.0546
  334loPI   GL2 5334   3.873   1.258  11.067  0.0631 -0.1468  0.0216
  334loPI   C1A 5335   3.451   1.094  10.736  0.0063  0.1304 -0.1538
  334loPI   C2A 5336   3.358   1.239  10.390 -0.0810 -0.2703  0.0234
  334loPI   C3A 5337   3.390   1.090   9.902 -0.0649  0.2199  0.2755
  334loPI   C4A 5338   3.442   1.108   9.431  0.1326  0.0031 -0.2556
  334loPI   C5A 5339   3.476   1.325   9.074  0.1414 -0.1102  0.1785
  334loPI   C6A 5340   3.682   1.675   8.900  0.2362 -0.1635 -0.1139
  334loPI   C1B 5341   3.935   1.134  10.610  0.0890 -0.1329  0.2695
  334loPI   C2B 5342   3.881   1.123  10.235  0.0283 -0.1961 -0.3092
  334loPI   C3B 5343   3.916   1.106   9.734  0.2228  0.2196 -0.3307
  334loPI   C4B 5344   3.930   1.084   9.240 -0.0367 -0.1327 -0.1760
  335loPI    C1 5345   7.688  17.548  11.183  0.0718 -0.0310 -0.1121
  335loPI    C2 5346   7.717  17.198  11.375 -0.0369  0.1113  0.1694
  335loPI    C3 5347   7.767  17.541  11.575  0.2978  0.2557 -0.1492
  335loPI   PO4 5348   7.758  17.556  11.002  0.2217  0.3202  0.0029
  335loPI   GL1 5349   7.868  17.662  10.690 -0.1628 -0.1819  0.2945
  335loPI   GL2 5350   8.210  17.709  10.756  0.1082  0.4615 -0.1926
  335loPI   C1A 5351   7.812  17.590  10.291  0.0078 -0.1775  0.2510
  335loPI   C2A 5352   7.821  17.577   9.886  0.0377 -0.4548  0.1061
  335loPI   C3A 5353   7.843  17.563   9.492 -0.1302  0.1700  0.2196
  335loPI   C4A 5354   7.908  17.594   9.074  0.3237  0.1314 -0.0016
  335loPI   C5A 5355   8.009  17.711   8.766 -0.2014  0.4269  0.1138
  335loPI   C6A 5356   8.166  17.668   8.215 -0.0608 -0.0565  0.1701
  335loPI   C1B 5357   8.324  17.634  10.371  0.0299  0.1051 -0.3289
  335loPI   C2B 5358   8.393  17.663   9.950  0.1220 -0.1671 -0.0009
  335loPI   C3B 5359   8.369  17.590   9.469  0.2094  0.0759  0.2542
  335loPI   C4B 5360   8.415  17.669   9.085 -0.1076  0.1966 -0.0067
  336loPI    C1 5361  16.287  15.164  11.527  0.0148  0.1253  0.0088
  336loPI    C2 5362  16.011  15.351  11.749 -0.1085 -0.1098  0.0566
  336loPI    C3 5363  16.291  15.125  11.925 -0.0417 -0.0791 -0.0096
  336loPI   PO4 5364  16.328  15.394  11.290 -0.0006 -0.0458  0.3453
  336loPI   GL1 5365  16.427  15.457  10.957  0.2449  0.0599  0.1539
  336loPI   GL2 5366  16.676  15.276  10.776 -0.0442 -0.3035  0.0963
  336loPI   C1A 5367  16.509  15.614  10.467  0.1671 -0.2563 -0.1111
  336loPI   C2A 5368  16.362  15.621  10.030  0.0731  0.1073 -0.0207
  336loPI   C3A 5369  16.366  15.568   9.609 -0.3614 -0.0192 -0.0800
  336loPI   C4A 5370  16.299  15.587   9.146  0.0505  0.1536  0.4339
  336loPI   C5A 5371  15.889  15.641   8.898 -0.1079 -0.0981 -0.0183
  336loPI   C6A 5372  15.755  15.539   8.536 -0.0203  0.1203  0.0459
  336loPI   C1B 5373  16.653  15.108  10.384  0.0293  0.4337  0.1140
  336loPI   C2B 5374  16.654  15.133   9.917 -0.0707 -0.1228 -0.1262
  336loPI   C3B 5375  16.494  15.004   9.476 -0.1626 -0.1220 -0.1062
  336loPI   C4B 5376  16.518  15.137   8.998  0.2803 -0.1997  0.2438
  337loPI    C1 5377  17.625  10.622  11.387  0.0267 -0.0189 -0.0232
  337loPI    C2 5378  17.515  10.946  11.595  0.1351  0.0019  0.0027
  337loPI    C3 5379  17.888  10.806  11.626  0.1050 -0.0912 -0.0531
  337loPI   PO4 5380  17.596  10.677  11.116 -0.1293  0.1409 -0.0189
  337loPI   GL1 5381  17.714  10.931  10.740  0.2059  0.0861  0.0349
  337loPI   GL2 5382  17.646  11.176  10.663  0.1865  0.5152  0.0593
  337loPI   C1A 5383  17.687  10.715  10.281  0.4741 -0.0437 -0.1040
  337loPI   C2A 5384  17.762  10.766   9.856  0.0216  0.1264 -0.0262
  337loPI   C3A 5385  17.638  10.753   9.416 -0.0199 -0.1769  0.0810
  337loPI   C4A 5386  17.754  10.779   9.082  0.0938  0.1634  0.0844
  337loPI   C5A 5387  17.530  10.981   8.620  0.2914 -0.3139 -0.0482
  337loPI   C6A 5388  17.368  11.454   8.498 -0.1113 -0.0755  0.0802
  337loPI   C1B 5389  17.733  11.291  10.249  0.1424 -0.0375 -0.0113
  337loPI   C2B 5390  17.747  11.271   9.807 -0.1133  0.1605 -0.2333
  337loPI   C3B 5391  17.747  11.285   9.313 -0.1039 -0.0440  0.1098
  337loPI   C4B 5392  17.743  11.417   8.924 -0.3358  0.1667  0.4837
  338loPI    C1 5393  17.007  11.093  11.468  0.4168  0.0844  0.1242
  338loPI    C2 5394  17.101  10.752  11.281  0.2723  0.0468  0.1183
  338loPI    C3 5395  16.834  10.749  11.578 -0.0523  0.2193 -0.1643
  338loPI   PO4 5396  16.896  11.227  11.282 -0.1544 -0.1959  0.1900
  338loPI   GL1 5397  16.930  11.103  10.891 -0.2973 -0.1339  0.3119
  338loPI   GL2 5398  17.158  10.920  10.795  0.4128  0.0485  0.0079
  338loPI   C1A 5399  16.792  11.120  10.505 -0.1707 -0.2339 -0.3035
  338loPI   C2A 5400  16.813  11.114  10.094 -0.3077 -0.1812 -0.3480
  338loPI   C3A 5401  16.791  11.117   9.690  0.0102 -0.0894  0.1231
  338loPI   C4A 5402  16.773  11.184   9.230 -0.1446 -0.2493  0.0643
  338loPI   C5A 5403  16.584  11.277   8.842  0.1514  0.1126 -0.0145
  338loPI   C6A 5404  16.803  11.492   8.443 -0.0462 -0.0924 -0.0011
  338loPI   C1B 5405  17.271  10.959  10.387 -0.0593  0.0605  0.2087
  338loPI   C2B 5406  17.293  10.965   9.929 -0.0235 -0.1635 -0.1896
  338loPI   C3B 5407  17.220  10.992   9.478 -0.1015 -0.1193 -0.0602
  338loPI   C4B 5408  17.206  10.957   9.153  0.0738  0.1540  0.2141
  339loPI    C1 5409  13.513   8.036  11.567 -0.0736  0.1260  0.0669
  339loPI    C2 5410  13.513   7.757  11.854  0.0522 -0.0359 -0.0888
  339loPI    C3 5411  13.595   8.138  11.946  0.0192 -0.0737  0.1016
  339loPI   PO4 5412  13.674   7.874  11.364  0.3126 -0.1919  0.0830
  339loPI   GL1 5413  13.796   7.640  10.957  0.1825 -0.0167 -0.0479
  339loPI   GL2 5414  13.970   7.934  10.802  0.1906 -0.1957 -0.0835
  339loPI   C1A 5415  13.880   7.593  10.492  0.2653 -0.0937 -0.5417
  339loPI   C2A 5416  13.993   7.554  10.084 -0.1328 -0.0112  0.1600
  339loPI   C3A 5417  13.870   7.613   9.738 -0.0876  0.2745  0.0677
  339loPI   C4A 5418  14.013   7.499   9.299  0.0233  0.0351 -0.1850
  339loPI   C5A 5419  14.088   7.577   8.930 -0.1413 -0.3085  0.1600
  339loPI   C6A 5420  14.033   7.201   8.755  0.1117 -0.0185 -0.2025
  339loPI   C1B 5421  13.979   8.056  10.322  0.0337  0.2785 -0.1235
  339loPI   C2B 5422  13.875   8.107   9.959  0.1387 -0.1411  0.0375
  339loPI   C3B 5423  13.936   8.098   9.533  0.0010 -0.0006 -0.0382
  339loPI   C4B 5424  13.911   7.989   9.159 -0.2876  0.2138  0.1111
  340loPI    C1 5425   0.726   0.208  11.701 -0.2041 -0.0081  0.0066
  340loPI    C2 5426   0.359   0.216  11.859 -0.1636 -0.0321  0.1027
  340loPI    C3 5427   0.653   0.019  12.046 -0.0968  0.0044  0.0367
  340loPI   PO4 5428   0.722   0.354  11.480 -0.0480  0.2610 -0.0409
  340loPI   GL1 5429   0.888   0.237  11.065  0.1125  0.1478 -0.0708
  340loPI   GL2 5430   0.966   0.039  11.022  0.1170 -0.2770 -0.1274
  340loPI   C1A 5431   0.474   0.196  10.887 -0.2423  0.2222  0.0410
  340loPI   C2A 5432   0.353   0.110  10.499  0.1420 -0.0080 -0.2354
  340loPI   C3A 5433   0.365   0.143  10.036  0.0704  0.1731 -0.1105
  340loPI   C4A 5434   0.365   0.220   9.560  0.0108  0.4780  0.0463
  340loPI   C5A 5435   0.354   0.232   9.153  0.2363 -0.2000 -0.0643
  340loPI   C6A 5436   0.596   0.405   8.853 -0.0729 -0.2633 -0.1115
  340loPI   C1B 5437   0.932   0.182  10.599 -0.2478 -0.2278  0.0151
  340loPI   C2B 5438   0.900   0.182  10.128 -0.0800  0.0468  0.1403
  340loPI   C3B 5439   0.869   0.212   9.637  0.3575 -0.3623 -0.0689
  340loPI   C4B 5440   0.911   0.164   9.154  0.1366  0.1320 -0.0570
  341loPI    C1 5441   7.763   2.645  11.613 -0.1248  0.0012 -0.0174
  341loPI    C2 5442   7.375   2.547  11.620 -0.1083 -0.0667 -0.0477
  341loPI    C3 5443   7.633   2.359  11.860 -0.0707 -0.1227 -0.1317
  341loPI   PO4 5444   7.808   2.718  11.376  0.1123 -0.2127  0.2551
  341loPI   GL1 5445   7.813   2.687  10.921  0.0140 -0.1582 -0.1021
  341loPI   GL2 5446   7.908   2.477  10.928 -0.1585 -0.0740 -0.2739
  341loPI   C1A 5447   7.824   2.771  10.399 -0.0550 -0.2306  0.1749
  341loPI   C2A 5448   7.731   2.754   9.961  0.1703 -0.0217 -0.0607
  341loPI   C3A 5449   7.745   2.596   9.536 -0.0133  0.0278  0.0534
  341loPI   C4A 5450   7.702   2.595   9.105 -0.0866 -0.1249  0.1330
  341loPI   C5A 5451   7.767   2.579   8.669 -0.0325  0.2836 -0.0628
  341loPI   C6A 5452   7.801   2.893   8.442  0.1099  0.1628 -0.2043
  341loPI   C1B 5453   7.967   2.274  10.513  0.0022  0.1231 -0.0190
  341loPI   C2B 5454   8.024   2.152  10.139 -0.1822 -0.1312  0.0406
  341loPI   C3B 5455   7.971   2.153   9.628 -0.2395  0.3529 -0.1474
  341loPI   C4B 5456   8.082   2.256   9.179 -0.0377  0.1961 -0.0432
  342loPI    C1 5457   6.153   7.908  11.637 -0.1599  0.0938 -0.0180
  342loPI    C2 5458   6.189   7.533  11.772 -0.0859  0.0259 -0.2231
  342loPI    C3 5459   5.941   7.788  11.954  0.0954 -0.0295  0.1088
  342loPI   PO4 5460   6.140   7.951  11.331  0.1765  0.1316  0.0436
  342loPI   GL1 5461   6.081   7.877  10.868  0.0191 -0.0010  0.2054
  342loPI   GL2 5462   6.320   7.681  10.685  0.0610 -0.1356 -0.1907
  342loPI   C1A 5463   5.803   7.971  10.487 -0.3142 -0.0105  0.2547
  342loPI   C2A 5464   5.641   8.028  10.099  0.1255  0.1647  0.1283
  342loPI   C3A 5465   5.688   8.066   9.630  0.1297  0.1453 -0.0635
  342loPI   C4A 5466   5.711   8.139   9.225 -0.0079 -0.1628  0.1047
  342loPI   C5A 5467   5.691   8.061   8.861 -0.1227 -0.0526  0.0985
  342loPI   C6A 5468   6.004   7.743   8.620  0.0420  0.4240 -0.0636
  342loPI   C1B 5469   6.245   7.798  10.369 -0.3269 -0.2590  0.0468
  342loPI   C2B 5470   6.141   7.868   9.925 -0.0657  0.0711  0.0256
  342loPI   C3B 5471   6.104   7.889   9.521 -0.1021  0.0462 -0.2108
  342loPI   C4B 5472   6.142   7.926   9.051  0.2703 -0.2379  0.1056
  343loPI    C1 5473   2.994   5.248  11.615 -0.0569  0.1098  0.1719
  343loPI    C2 5474   2.597   5.207  11.642 -0.0724  0.1639  0.0291
  343loPI    C3 5475   2.837   4.904  11.745 -0.1641 -0.0229 -0.2905
  343loPI   PO4 5476   3.098   5.273  11.317  0.1035 -0.1365  0.0573
  343loPI   GL1 5477   3.008   5.118  10.829 -0.0435 -0.1157  0.0313
  343loPI   GL2 5478   3.024   5.561  10.915 -0.2821  0.0626  0.2135
  343loPI   C1A 5479   3.253   5.246  10.596  0.1630 -0.1215 -0.2140
  343loPI   C2A 5480   3.257   5.301  10.211 -0.3223 -0.0336  0.2017
  343loPI   C3A 5481   3.166   5.255   9.813 -0.0137 -0.2142 -0.1061
  343loPI   C4A 5482   2.890   5.098   9.474 -0.2121 -0.1330  0.0040
  343loPI   C5A 5483   2.684   5.056   9.125  0.1847  0.3626 -0.0604
  343loPI   C6A 5484   2.837   4.942   8.743 -0.0585 -0.0473  0.3629
  343loPI   C1B 5485   3.154   5.728  10.496  0.0964  0.0462  0.2195
  343loPI   C2B 5486   3.204   5.782  10.019  0.0575 -0.3751  0.1738
  343loPI   C3B 5487   3.155   5.776   9.603 -0.0660 -0.3182  0.1530
  343loPI   C4B 5488   3.190   5.492   9.363  0.2400  0.0572 -0.0877
  344loPI    C1 5489   0.413  12.525  11.321  0.0329  0.1306  0.0268
  344loPI    C2 5490   0.774  12.558  11.491  0.0331  0.1387  0.0249
  344loPI    C3 5491   0.552  12.231  11.554  0.1586  0.0071 -0.2001
  344loPI   PO4 5492   0.365  12.810  11.049  0.1132 -0.0087 -0.1959
  344loPI   GL1 5493   0.539  13.003  10.816 -0.2733  0.0390  0.0492
  344loPI   GL2 5494   0.780  12.905  10.521 -0.1427  0.2056  0.2108
  344loPI   C1A 5495   0.368  13.129  10.345 -0.2796  0.0839 -0.1585
  344loPI   C2A 5496   0.279  13.094   9.924  0.2647  0.0891  0.0998
  344loPI   C3A 5497   0.270  13.171   9.496  0.1524 -0.0832 -0.1010
  344loPI   C4A 5498   0.120  13.299   9.087  0.0695 -0.3692  0.2848
  344loPI   C5A 5499  -0.015  13.328   8.681  0.1143 -0.0064  0.3176
  344loPI   C6A 5500   0.260  13.605   8.357  0.0444 -0.2152 -0.0351
  344loPI   C1B 5501   0.757  12.885  10.140 -0.0283 -0.1472 -0.1035
  344loPI   C2B 5502   0.777  12.881   9.707  0.1477 -0.0683  0.1653
  344loPI   C3B 5503   0.791  13.021   9.262  0.3178 -0.0483 -0.0242
  344loPI   C4B 5504   0.708  12.819   8.787  0.0464 -0.1989  0.1811
  345loPI    C1 5505  14.760  10.620  11.698 -0.4101  0.0189 -0.1782
  345loPI    C2 5506  14.880  10.327  11.943 -0.0046  0.0083 -0.3813
  345loPI    C3 5507  14.850  10.702  12.079 -0.0948 -0.0509 -0.2351
  345loPI   PO4 5508  14.825  10.653  11.476 -0.2223 -0.0038  0.5460
  345loPI   GL1 5509  14.767  10.625  10.942 -0.1168 -0.1725 -0.0924
  345loPI   GL2 5510  14.995  10.532  10.776  0.1253  0.1933 -0.1190
  345loPI   C1A 5511  14.601  10.819  10.592 -0.3232  0.0014 -0.2857
  345loPI   C2A 5512  14.485  10.708  10.150 -0.2540  0.0350 -0.1484
  345loPI   C3A 5513  14.546  10.736   9.691  0.1908 -0.0549  0.2390
  345loPI   C4A 5514  14.505  10.692   9.287 -0.0943  0.0235 -0.1477
  345loPI   C5A 5515  14.584  10.698   8.845 -0.3493  0.0072 -0.4682
  345loPI   C6A 5516  14.240  10.452   8.569  0.2840  0.5124  0.2163
  345loPI   C1B 5517  14.899  10.508  10.331  0.0509  0.1797  0.1626
  345loPI   C2B 5518  15.011  10.544   9.910 -0.0161  0.0406 -0.0772
  345loPI   C3B 5519  15.004  10.417   9.540 -0.3726 -0.0956 -0.1399
  345loPI   C4B 5520  15.016  10.399   9.058  0.1846  0.1399 -0.2720
  346loPI    C1 5521   5.500   9.276  11.439  0.0040  0.2839  0.1196
  346loPI    C2 5522   5.632   8.983  11.677  0.4149  0.2340 -0.1598
  346loPI    C3 5523   5.414   9.281  11.829  0.1673 -0.1042  0.1655
  346loPI   PO4 5524   5.488   9.140  11.212 -0.0588 -0.0078  0.0949
  346loPI   GL1 5525   5.559   8.897  10.852 -0.0302  0.1177  0.2408
  346loPI   GL2 5526   5.363   8.725  10.712 -0.2656 -0.0108 -0.0977
  346loPI   C1A 5527   5.699   9.087  10.502  0.2217 -0.0718 -0.0651
  346loPI   C2A 5528   5.736   9.053  10.092  0.2472  0.0523 -0.0656
  346loPI   C3A 5529   5.643   9.094   9.691  0.1471  0.3041 -0.3296
  346loPI   C4A 5530   5.585   9.280   9.293 -0.0121  0.4329 -0.1563
  346loPI   C5A 5531   5.576   9.160   8.948 -0.1486  0.0409 -0.0191
  346loPI   C6A 5532   5.643   8.941   8.571  0.2440 -0.1936  0.2064
  346loPI   C1B 5533   5.331   8.726  10.189 -0.4372 -0.0040  0.1629
  346loPI   C2B 5534   5.256   8.781   9.731 -0.2327  0.1026  0.0361
  346loPI   C3B 5535   5.138   8.944   9.309 -0.0878 -0.1434  0.1297
  346loPI   C4B 5536   5.164   8.883   8.927  0.3441 -0.0991  0.2215
  347loPI    C1 5537   7.847   0.259  11.884 -0.0571 -0.3473  0.0747
  347loPI    C2 5538   7.512   0.458  11.974  0.0917 -0.0856  0.0619
  347loPI    C3 5539   7.524   0.060  12.010 -0.1825 -0.0861  0.1739
  347loPI   PO4 5540   7.916   0.364  11.659 -0.3029  0.0072 -0.0846
  347loPI   GL1 5541   7.805   0.392  11.134  0.1588 -0.0622 -0.2221
  347loPI   GL2 5542   8.052   0.502  10.994 -0.2403 -0.0176 -0.1005
  347loPI   C1A 5543   7.588   0.438  10.797  0.0342 -0.1629 -0.1351
  347loPI   C2A 5544   7.511   0.387  10.325 -0.1772 -0.0433 -0.0980
  347loPI   C3A 5545   7.548   0.352   9.951  0.2901 -0.4070  0.0282
  347loPI   C4A 5546   7.612   0.401   9.504 -0.0208  0.1742 -0.0399
  347loPI   C5A 5547   7.585   0.426   9.041 -0.0777  0.0112  0.0065
  347loPI   C6A 5548   7.557   0.629   8.674 -0.1827  0.0608 -0.0460
  347loPI   C1B 5549   8.055   0.439  10.509 -0.1320  0.0877  0.2044
  347loPI   C2B 5550   8.095   0.340  10.157  0.0507 -0.0228 -0.0141
  347loPI   C3B 5551   8.106   0.352   9.779  0.0425  0.0042  0.1027
  347loPI   C4B 5552   8.068   0.331   9.269 -0.0050 -0.1823 -0.2335
  348loPI    C1 5553   7.507  12.833  11.154 -0.0118  0.1743 -0.1052
  348loPI    C2 5554   7.868  12.774  11.316 -0.0538  0.1605 -0.0161
  348loPI    C3 5555   7.697  13.136  11.334 -0.0880  0.1420  0.0311
  348loPI   PO4 5556   7.474  12.818  10.947 -0.1451 -0.3295 -0.0812
  348loPI   GL1 5557   7.515  12.508  10.538 -0.2272  0.0995  0.0637
  348loPI   GL2 5558   7.151  12.347  10.560 -0.0784 -0.2763  0.0494
  348loPI   C1A 5559   7.716  12.621  10.050 -0.3281 -0.0784 -0.1220
  348loPI   C2A 5560   7.594  12.709   9.655  0.2044  0.3896  0.0435
  348loPI   C3A 5561   7.633  12.720   9.318 -0.0487  0.0960 -0.1754
  348loPI   C4A 5562   7.817  12.846   8.904 -0.2570  0.0646  0.0507
  348loPI   C5A 5563   8.068  12.837   8.497 -0.0253 -0.1075 -0.1017
  348loPI   C6A 5564   7.978  12.529   8.153 -0.0331  0.1916  0.1444
  348loPI   C1B 5565   7.204  12.292  10.159  0.2077 -0.2442 -0.0409
  348loPI   C2B 5566   7.219  12.334   9.747 -0.2253  0.1376 -0.0372
  348loPI   C3B 5567   7.108  12.446   9.259  0.1208  0.3365 -0.0476
  348loPI   C4B 5568   7.401  12.539   8.902 -0.2658  0.1626  0.1223
  349loPI    C1 5569   3.768  13.697  11.479 -0.3653  0.0304 -0.1120
  349loPI    C2 5570   3.638  13.902  11.797  0.1182  0.2819 -0.0673
  349loPI    C3 5571   3.616  13.502  11.794  0.0413  0.2805  0.2508
  349loPI   PO4 5572   3.663  13.798  11.226  0.2165  0.0245 -0.1035
  349loPI   GL1 5573   3.357  13.724  10.903 -0.1280 -0.1350  0.3410
  349loPI   GL2 5574   3.234  14.057  10.779  0.0848  0.4697 -0.0659
  349loPI   C1A 5575   3.278  13.621  10.480  0.2627 -0.2902  0.0549
  349loPI   C2A 5576   3.481  13.700  10.054  0.0503  0.0793  0.0990
  349loPI   C3A 5577   3.722  13.868   9.730  0.0818 -0.1303 -0.2302
  349loPI   C4A 5578   3.762  13.787   9.305 -0.1537  0.3035  0.0957
  349loPI   C5A 5579   3.813  13.885   8.887  0.0453  0.3509 -0.1015
  349loPI   C6A 5580   3.605  13.956   8.538  0.1501  0.0136 -0.1222
  349loPI   C1B 5581   3.294  14.130  10.312  0.1710 -0.1344 -0.0794
  349loPI   C2B 5582   3.356  14.278   9.907 -0.1625 -0.1659 -0.0737
  349loPI   C3B 5583   3.499  14.391   9.558  0.2137  0.1270  0.3104
  349loPI   C4B 5584   3.620  14.284   9.131  0.1191  0.1333  0.3589
  350loPI    C1 5585  17.330  11.501  11.419 -0.1635  0.0457 -0.0905
  350loPI    C2 5586  17.014  11.600  11.643 -0.1914  0.0438 -0.1289
  350loPI    C3 5587  17.339  11.442  11.814 -0.2184  0.0288 -0.0916
  350loPI   PO4 5588  17.288  11.607  11.217  0.4497 -0.1955 -0.0730
  350loPI   GL1 5589  17.300  11.584  10.846 -0.1847 -0.0588 -0.2066
  350loPI   GL2 5590  17.411  11.923  10.841 -0.3351  0.3621  0.0178
  350loPI   C1A 5591  17.237  11.419  10.513  0.1879  0.1062 -0.2282
  350loPI   C2A 5592  17.272  11.429  10.104 -0.1753 -0.0721 -0.1699
  350loPI   C3A 5593  17.261  11.436   9.693  0.0629  0.1029 -0.0409
  350loPI   C4A 5594  17.306  11.496   9.263  0.2494  0.0912 -0.2912
  350loPI   C5A 5595  17.138  11.359   8.930 -0.0163  0.0649 -0.1399
  350loPI   C6A 5596  16.981  11.110   8.578 -0.1738  0.3396  0.0270
  350loPI   C1B 5597  17.152  11.961  10.527  0.0271  0.0204  0.2758
  350loPI   C2B 5598  17.162  11.999  10.141  0.1068  0.3819 -0.0900
  350loPI   C3B 5599  17.289  12.047   9.696  0.3093  0.0235 -0.1057
  350loPI   C4B 5600  17.261  12.003   9.236 -0.0506 -0.2121  0.1661
  351loPI    C1 5601  11.374   0.466  11.586 -0.1111 -0.1902  0.2420
  351loPI    C2 5602  11.582   0.629  11.886 -0.0532 -0.1160  0.1617
  351loPI    C3 5603  11.526   0.834  11.547  0.0215 -0.2635  0.0594
  351loPI   PO4 5604  11.551   0.255  11.457 -0.1726  0.1743  0.2148
  351loPI   GL1 5605  11.599   0.046  11.055 -0.2565 -0.0444  0.4096
  351loPI   GL2 5606  11.877   0.155  11.105  0.1652  0.2152 -0.4199
  351loPI   C1A 5607  11.380   0.105  10.663 -0.2277 -0.0045  0.2254
  351loPI   C2A 5608  11.431   0.093  10.188  0.2785  0.2155  0.1367
  351loPI   C3A 5609  11.367   0.062   9.622 -0.1003  0.1503  0.1165
  351loPI   C4A 5610  11.272   0.131   9.176 -0.2320 -0.3491 -0.2094
  351loPI   C5A 5611  11.360   0.386   8.892  0.0204  0.0933  0.1624
  351loPI   C6A 5612  11.410   0.638   8.575 -0.1064 -0.2793 -0.0166
  351loPI   C1B 5613  11.897   0.061  10.674  0.2095 -0.4276 -0.0278
  351loPI   C2B 5614  11.961   0.061  10.243  0.3819  0.1518  0.1227
  351loPI   C3B 5615  11.846   0.030   9.852  0.4551 -0.1599 -0.2113
  351loPI   C4B 5616  11.884   0.032   9.416  0.0849 -0.1026  0.0965
  352loPI    C1 5617   6.713   1.580  11.584 -0.1235 -0.0157 -0.0831
  352loPI    C2 5618   6.480   1.766  11.851  0.1953 -0.0188  0.2030
  352loPI    C3 5619   6.703   1.453  11.963  0.0877 -0.2262 -0.1458
  352loPI   PO4 5620   6.603   1.577  11.356  0.0656  0.0096  0.0902
  352loPI   GL1 5621   6.694   1.602  10.883  0.1249  0.0942  0.1313
  352loPI   GL2 5622   6.444   1.314  10.958 -0.2891 -0.0500  0.0522
  352loPI   C1A 5623   6.724   1.542  10.428  0.1529  0.0295 -0.3426
  352loPI   C2A 5624   6.759   1.586   9.960 -0.1495 -0.2140  0.0622
  352loPI   C3A 5625   6.814   1.701   9.551  0.0275  0.0066 -0.0084
  352loPI   C4A 5626   6.730   1.690   9.157  0.2011  0.3532  0.1062
  352loPI   C5A 5627   6.525   1.923   8.924 -0.0633  0.0411  0.0569
  352loPI   C6A 5628   6.155   1.996   8.588  0.0364 -0.1054  0.0808
  352loPI   C1B 5629   6.502   1.101  10.668  0.2257  0.2151  0.0303
  352loPI   C2B 5630   6.438   1.207  10.223 -0.4700 -0.0015  0.0015
  352loPI   C3B 5631   6.496   1.136   9.801  0.1256 -0.0811  0.3138
  352loPI   C4B 5632   6.537   1.230   9.378  0.4247  0.0874  0.4899
  353loPI    C1 5633   8.906  10.506  11.400 -0.2483  0.1398  0.0831
  353loPI    C2 5634   9.084  10.840  11.530  0.3115 -0.1014 -0.0311
  353loPI    C3 5635   9.032  10.531  11.779 -0.2052  0.0601  0.0743
  353loPI   PO4 5636   8.985  10.359  11.186  0.1409 -0.6273  0.1795
  353loPI   GL1 5637   8.920  10.135  10.889  0.0677 -0.0452 -0.0353
  353loPI   GL2 5638   8.611  10.257  10.843 -0.1088 -0.1359 -0.1212
  353loPI   C1A 5639   8.861   9.778  10.661 -0.1085 -0.1236  0.0049
  353loPI   C2A 5640   8.803   9.694  10.243  0.1488 -0.0419 -0.1898
  353loPI   C3A 5641   8.837   9.606   9.774 -0.0550  0.0849  0.1828
  353loPI   C4A 5642   8.826   9.602   9.321 -0.0333  0.1807  0.1543
  353loPI   C5A 5643   8.663   9.611   8.916 -0.2178 -0.2754 -0.0699
  353loPI   C6A 5644   8.709   9.597   8.536  0.0846  0.3585  0.3160
  353loPI   C1B 5645   8.783  10.138  10.356  0.3002 -0.4568 -0.5669
  353loPI   C2B 5646   8.821  10.100   9.889  0.0332 -0.1354 -0.1848
  353loPI   C3B 5647   8.774  10.065   9.365  0.3388  0.1023 -0.0858
  353loPI   C4B 5648   8.763  10.111   8.860  0.3125  0.3185  0.1891
  354loPI    C1 5649   1.966  16.564  11.563  0.3686 -0.0206 -0.0241
  354loPI    C2 5650   2.146  16.895  11.699  0.2802  0.0381 -0.0489
  354loPI    C3 5651   2.008  16.622  11.957 -0.0100  0.2143 -0.0129
  354loPI   PO4 5652   1.946  16.603  11.303  0.3673 -0.0968  0.0385
  354loPI   GL1 5653   1.659  16.485  10.966  0.0300  0.0280 -0.3442
  354loPI   GL2 5654   1.386  16.588  10.879 -0.0321 -0.0025  0.0746
  354loPI   C1A 5655   1.766  16.512  10.532  0.0912 -0.2278 -0.0187
  354loPI   C2A 5656   1.737  16.588  10.074  0.2733  0.3780 -0.2339
  354loPI   C3A 5657   1.704  16.595   9.555  0.0407 -0.1886  0.0485
  354loPI   C4A 5658   1.732  16.627   9.075  0.2477  0.1111 -0.4950
  354loPI   C5A 5659   1.903  16.886   8.660  0.2709  0.3189 -0.0597
  354loPI   C6A 5660   2.137  16.796   8.323  0.1982 -0.2453  0.2081
  354loPI   C1B 5661   1.467  16.933  10.485 -0.3038  0.0829  0.0484
  354loPI   C2B 5662   1.388  16.968  10.064 -0.0693 -0.1570 -0.1153
  354loPI   C3B 5663   1.400  17.007   9.647  0.0129 -0.2814  0.1444
  354loPI   C4B 5664   1.500  17.047   9.241 -0.2338  0.0784  0.2931
  355loPI    C1 5665  13.913   1.847  11.892  0.0301 -0.2761 -0.1653
  355loPI    C2 5666  13.898   2.133  12.172 -0.0029 -0.2666 -0.1767
  355loPI    C3 5667  13.993   1.758  12.274 -0.1148 -0.2843 -0.1363
  355loPI   PO4 5668  14.101   1.905  11.712 -0.3518  0.2319  0.1580
  355loPI   GL1 5669  14.017   1.880  11.338 -0.0157  0.1310  0.0905
  355loPI   GL2 5670  14.163   2.217  11.151  0.1353 -0.0252 -0.2596
  355loPI   C1A 5671  13.910   1.965  10.840  0.0291  0.3325  0.0879
  355loPI   C2A 5672  13.855   1.840  10.369  0.2042 -0.0723 -0.1073
  355loPI   C3A 5673  13.948   1.892   9.916  0.1038 -0.1991  0.1911
  355loPI   C4A 5674  13.968   1.789   9.468  0.2374 -0.2357 -0.0538
  355loPI   C5A 5675  13.845   1.744   9.082 -0.3217 -0.2208 -0.2816
  355loPI   C6A 5676  13.889   1.574   8.788  0.1564  0.0480 -0.1077
  355loPI   C1B 5677  14.166   2.418  10.753  0.1853  0.2563 -0.0102
  355loPI   C2B 5678  14.035   2.309  10.293 -0.1939  0.0234 -0.2202
  355loPI   C3B 5679  14.197   2.365   9.855  0.3803  0.0896  0.1064
  355loPI   C4B 5680  14.218   2.201   9.343 -0.1556 -0.0428 -0.5840
  356loPI    C1 5681  12.271  17.664  12.003  0.0676  0.1421 -0.0515
  356loPI    C2 5682  11.933  17.878  12.001  0.2227  0.3903 -0.0976
  356loPI    C3 5683  12.150  17.849  12.336  0.0467  0.0519 -0.0087
  356loPI   PO4 5684  12.397  17.702  11.802 -0.1302 -0.0144  0.2725
  356loPI   GL1 5685  12.329  17.825  11.312 -0.1521  0.1503 -0.1566
  356loPI   GL2 5686  12.275  18.166  11.131 -0.2086  0.2045  0.0216
  356loPI   C1A 5687  12.443  17.759  10.828 -0.1539 -0.1677 -0.0718
  356loPI   C2A 5688  12.473  17.700  10.393 -0.0344  0.1013  0.1796
  356loPI   C3A 5689  12.343  17.708   9.904  0.1565 -0.2767  0.2795
  356loPI   C4A 5690  12.454  17.747   9.493  0.1331 -0.1479  0.0241
  356loPI   C5A 5691  12.365  17.742   9.024 -0.1874 -0.3892 -0.2614
  356loPI   C6A 5692  12.259  17.799   8.621 -0.2113  0.1800  0.0830
  356loPI   C1B 5693  12.190  18.188  10.699  0.2883  0.0217 -0.1244
  356loPI   C2B 5694  12.175  18.155  10.291  0.1061  0.0060 -0.1762
  356loPI   C3B 5695  12.130  18.193   9.818  0.0564  0.1542  0.1399
  356loPI   C4B 5696  12.154  18.126   9.394  0.0615 -0.3031 -0.0733
  357loPI    C1 5697   1.273  11.596  11.214 -0.0848 -0.1824  0.0377
  357loPI    C2 5698   1.500  11.919  11.275 -0.0010 -0.1536 -0.3915
  357loPI    C3 5699   1.353  11.715  11.587  0.0730  0.2053 -0.1154
  357loPI   PO4 5700   1.116  11.664  11.072 -0.0371  0.1332 -0.1036
  357loPI   GL1 5701   0.957  11.514  10.687  0.1998 -0.2166 -0.0883
  357loPI   GL2 5702   0.872  11.874  10.674 -0.0901  0.0257  0.1478
  357loPI   C1A 5703   0.881  11.344  10.267  0.0555  0.0230 -0.0797
  357loPI   C2A 5704   0.891  11.276   9.890 -0.1158  0.0506 -0.2654
  357loPI   C3A 5705   0.953  11.381   9.419  0.2032 -0.2436  0.0569
  357loPI   C4A 5706   0.965  11.392   8.986 -0.2601  0.0384  0.1217
  357loPI   C5A 5707   0.924  11.548   8.501  0.2940  0.0215 -0.0240
  357loPI   C6A 5708   1.133  11.786   8.132  0.0125 -0.1665  0.1029
  357loPI   C1B 5709   0.920  11.843  10.271 -0.0020  0.1155  0.3168
  357loPI   C2B 5710   0.869  11.858   9.852  0.1272  0.1134 -0.0685
  357loPI   C3B 5711   0.925  11.926   9.427 -0.1370  0.0709 -0.0724
  357loPI   C4B 5712   0.983  11.936   8.978 -0.0549  0.2401 -0.0825
  358loPI    C1 5713  13.138   8.859  11.423  0.0215 -0.0310  0.1240
  358loPI    C2 5714  12.838   8.821  11.684 -0.0311  0.1050  0.0839
  358loPI    C3 5715  13.093   9.127  11.716 -0.0307  0.1157 -0.0165
  358loPI   PO4 5716  13.028   8.822  11.201 -0.0342  0.0271 -0.1200
  358loPI   GL1 5717  12.817   8.728  10.777 -0.1160 -0.0514 -0.1033
  358loPI   GL2 5718  12.892   9.054  10.763  0.0836  0.2022 -0.0151
  358loPI   C1A 5719  12.888   8.623  10.401  0.1488 -0.1355 -0.0409
  358loPI   C2A 5720  12.906   8.539  10.023 -0.3254  0.0940 -0.3927
  358loPI   C3A 5721  12.971   8.478   9.722 -0.0521 -0.0456  0.1849
  358loPI   C4A 5722  12.932   8.511   9.235 -0.2889  0.2979  0.0081
  358loPI   C5A 5723  13.049   8.325   8.827 -0.0433 -0.0964  0.1127
  358loPI   C6A 5724  13.046   8.345   8.348  0.1622  0.0703  0.2358
  358loPI   C1B 5725  12.809   9.123  10.333 -0.0653 -0.1373 -0.1044
  358loPI   C2B 5726  12.857   9.021   9.915  0.4403  0.3221  0.2886
  358loPI   C3B 5727  12.875   8.966   9.451 -0.1012 -0.0027  0.3361
  358loPI   C4B 5728  12.907   8.883   8.964 -0.1970 -0.3040 -0.1475
  359loPI    C1 5729   8.344   5.906  11.241 -0.0503 -0.1408 -0.0196
  359loPI    C2 5730   8.528   5.836  11.589  0.1354  0.3237 -0.0172
  359loPI    C3 5731   8.193   6.054  11.580  0.1169  0.2915 -0.1268
  359loPI   PO4 5732   8.430   5.746  11.062 -0.0706  0.0388  0.0239
  359loPI   GL1 5733   8.634   5.802  10.715  0.0117 -0.2640 -0.0483
  359loPI   GL2 5734   9.004   5.801  10.729 -0.3056  0.1192  0.1485
  359loPI   C1A 5735   8.713   5.796  10.223  0.2081  0.1197  0.1949
  359loPI   C2A 5736   8.639   5.558   9.825  0.2676 -0.0741 -0.2695
  359loPI   C3A 5737   8.525   5.696   9.386 -0.1417  0.0579 -0.1337
  359loPI   C4A 5738   8.579   5.746   9.002  0.0444 -0.2632  0.2534
  359loPI   C5A 5739   8.569   6.000   8.695  0.0840 -0.0920  0.0990
  359loPI   C6A 5740   8.398   6.073   8.322  0.0606 -0.2684 -0.0829
  359loPI   C1B 5741   9.218   6.058  10.435 -0.0310 -0.1357 -0.2911
  359loPI   C2B 5742   9.273   6.242  10.047 -0.0037  0.0111  0.1790
  359loPI   C3B 5743   9.477   6.408   9.681  0.0286 -0.0289  0.3871
  359loPI   C4B 5744   9.524   6.215   9.276  0.3156 -0.1337  0.2394
  360loPI    C1 5745   6.261  14.463  11.364 -0.1055  0.1234  0.1772
  360loPI    C2 5746   6.520  14.269  11.599 -0.1848 -0.0412  0.1304
  360loPI    C3 5747   6.530  14.668  11.578  0.3761 -0.0627 -0.2289
  360loPI   PO4 5748   6.226  14.351  11.085  0.3154  0.3161  0.0319
  360loPI   GL1 5749   6.329  14.154  10.612  0.3487  0.3060  0.2088
  360loPI   GL2 5750   6.694  14.272  10.616  0.4055  0.2313 -0.1687
  360loPI   C1A 5751   6.238  13.903  10.351 -0.0330 -0.1294  0.0009
  360loPI   C2A 5752   6.130  13.837   9.992  0.2718 -0.6106 -0.0353
  360loPI   C3A 5753   6.170  13.905   9.514 -0.0850  0.0056 -0.1836
  360loPI   C4A 5754   6.152  13.866   9.049 -0.3764 -0.3655  0.1082
  360loPI   C5A 5755   6.242  14.001   8.633 -0.2006 -0.0724  0.0462
  360loPI   C6A 5756   6.206  14.471   8.332  0.0609  0.1694 -0.0328
  360loPI   C1B 5757   6.720  14.121  10.285 -0.1601 -0.0087  0.0315
  360loPI   C2B 5758   6.663  14.081   9.835  0.0447  0.2125 -0.3668
  360loPI   C3B 5759   6.675  14.323   9.471  0.0560  0.2718  0.0766
  360loPI   C4B 5760   6.650  14.237   8.991 -0.0626 -0.0076 -0.2852
  361loPI    C1 5761  11.866  17.149  11.787  0.0690 -0.2118  0.0923
  361loPI    C2 5762  12.210  17.078  11.979  0.0300  0.1828  0.3180
  361loPI    C3 5763  11.930  17.308  12.148 -0.1706  0.2153 -0.0465
  361loPI   PO4 5764  11.930  17.015  11.514 -0.2921 -0.0822 -0.0753
  361loPI   GL1 5765  11.979  17.112  11.202  0.1028  0.1065 -0.1671
  361loPI   GL2 5766  12.178  17.350  11.047  0.1396 -0.0138  0.0707
  361loPI   C1A 5767  11.721  17.238  10.808 -0.4418  0.2706  0.1269
  361loPI   C2A 5768  11.675  17.273  10.414 -0.3682 -0.2207 -0.1549
  361loPI   C3A 5769  11.586  17.270   9.913  0.1601 -0.1258 -0.0841
  361loPI   C4A 5770  11.663  17.261   9.488 -0.0867 -0.1841  0.2246
  361loPI   C5A 5771  11.732  17.080   9.098 -0.1333  0.6799 -0.0188
  361loPI   C6A 5772  11.744  16.642   8.776 -0.2757 -0.0575 -0.0836
  361loPI   C1B 5773  12.179  17.222  10.615  0.0402  0.0152  0.1724
  361loPI   C2B 5774  12.156  17.244  10.096  0.0920 -0.0287  0.1258
  361loPI   C3B 5775  12.109  17.296   9.649 -0.0662  0.3228  0.0701
  361loPI   C4B 5776  12.127  17.317   9.238 -0.2111 -0.0352 -0.2094
  362loPI    C1 5777  10.867  16.226  11.841  0.1110  0.0549  0.1870
  362loPI    C2 5778  10.576  16.197  12.113  0.1232  0.1136  0.2063
  362loPI    C3 5779  10.955  16.121  12.217  0.0866 -0.1906  0.1259
  362loPI   PO4 5780  10.792  16.259  11.588  0.2405  0.0251 -0.1287
  362loPI   GL1 5781  10.896  16.070  11.183  0.0056  0.2152 -0.1295
  362loPI   GL2 5782  10.975  15.842  11.086  0.0374 -0.0873 -0.3151
  362loPI   C1A 5783  11.213  16.362  10.969 -0.0824 -0.2745 -0.0627
  362loPI   C2A 5784  11.234  16.426  10.418 -0.1050 -0.2833 -0.1182
  362loPI   C3A 5785  11.218  16.333  10.020  0.2198 -0.0027 -0.2143
  362loPI   C4A 5786  11.194  16.375   9.539  0.0241  0.1145  0.1365
  362loPI   C5A 5787  11.471  16.352   9.082 -0.0315  0.1296  0.3054
  362loPI   C6A 5788  11.800  16.123   9.037 -0.2089 -0.0502 -0.0890
  362loPI   C1B 5789  10.992  16.007  10.675 -0.3588 -0.3621 -0.3594
  362loPI   C2B 5790  11.018  15.892  10.166  0.1215  0.0084 -0.0450
  362loPI   C3B 5791  10.962  15.934   9.729 -0.1443  0.2695 -0.2181
  362loPI   C4B 5792  10.987  15.834   9.242  0.0009  0.0602  0.0229
  363loPI    C1 5793   5.400   4.001  11.680 -0.0761  0.2990 -0.1688
  363loPI    C2 5794   5.579   4.010  12.037  0.2337  0.0156 -0.3112
  363loPI    C3 5795   5.283   3.750  11.969 -0.1359  0.3767 -0.1253
  363loPI   PO4 5796   5.589   4.013  11.517  0.1473  0.1375 -0.2739
  363loPI   GL1 5797   5.564   3.800  11.176  0.4485 -0.0637  0.1177
  363loPI   GL2 5798   5.285   3.923  11.027 -0.1279 -0.1953  0.2699
  363loPI   C1A 5799   5.750   3.984  10.854 -0.1476  0.0624  0.1293
  363loPI   C2A 5800   5.884   3.915  10.479  0.0247 -0.1486  0.0250
  363loPI   C3A 5801   5.955   3.831  10.005  0.2402 -0.0752 -0.0969
  363loPI   C4A 5802   5.966   3.828   9.597 -0.1310  0.2896 -0.3522
  363loPI   C5A 5803   5.980   3.943   9.089  0.0548 -0.0120  0.0089
  363loPI   C6A 5804   6.100   3.814   8.671  0.2581 -0.0617  0.2158
  363loPI   C1B 5805   5.334   3.951  10.587 -0.0989 -0.2384  0.2024
  363loPI   C2B 5806   5.463   3.858  10.138  0.0972 -0.0056 -0.0461
  363loPI   C3B 5807   5.483   3.926   9.686  0.0497  0.0007 -0.0991
  363loPI   C4B 5808   5.418   3.911   9.250 -0.2484 -0.1992 -0.0510
  364loPI    C1 5809  13.786   5.247  11.497  0.0533 -0.0288 -0.0368
  364loPI    C2 5810  13.766   4.882  11.335  0.2511 -0.0639  0.0143
  364loPI    C3 5811  13.710   4.929  11.728  0.1348 -0.0262 -0.0062
  364loPI   PO4 5812  13.692   5.396  11.279  0.0897 -0.0730 -0.0802
  364loPI   GL1 5813  13.580   5.250  10.892 -0.3586  0.2072 -0.2208
  364loPI   GL2 5814  13.432   5.001  10.949  0.1709  0.1162  0.4288
  364loPI   C1A 5815  13.529   5.212  10.479 -0.0008 -0.0354  0.0505
  364loPI   C2A 5816  13.383   5.254  10.133 -0.1536 -0.2969 -0.0624
  364loPI   C3A 5817  13.510   5.143   9.684  0.2381  0.1908  0.1068
  364loPI   C4A 5818  13.485   4.994   9.263 -0.2090  0.0464  0.0237
  364loPI   C5A 5819  13.515   4.785   8.918  0.3557  0.1166 -0.1180
  364loPI   C6A 5820  13.496   4.875   8.519 -0.0851 -0.1598 -0.0293
  364loPI   C1B 5821  13.227   4.811  10.484  0.0209  0.2206 -0.1731
  364loPI   C2B 5822  13.234   4.757   9.959 -0.0192  0.1238  0.1543
  364loPI   C3B 5823  13.350   4.630   9.595  0.0117 -0.0747 -0.1368
  364loPI   C4B 5824  13.264   4.555   9.240 -0.1500  0.1396 -0.1537
  365loPI    C1 5825   4.175   9.051  11.672  0.0273  0.0683  0.0517
  365loPI    C2 5826   4.402   9.374  11.735  0.2489 -0.0660 -0.0449
  365loPI    C3 5827   4.385   9.085  12.011 -0.2886  0.2192  0.2362
  365loPI   PO4 5828   4.137   9.079  11.332  0.2057 -0.1427  0.0114
  365loPI   GL1 5829   4.280   9.221  10.998 -0.0144  0.1062  0.0326
  365loPI   GL2 5830   4.050   9.347  10.873  0.0827  0.2633  0.0059
  365loPI   C1A 5831   4.374   9.238  10.496  0.0179 -0.0342  0.1693
  365loPI   C2A 5832   4.274   9.315  10.014  0.0651 -0.2428 -0.1100
  365loPI   C3A 5833   4.220   9.231   9.648  0.3283  0.0861 -0.2213
  365loPI   C4A 5834   4.220   9.300   9.173 -0.1278  0.1533  0.1338
  365loPI   C5A 5835   4.048   9.295   8.809 -0.0645  0.2488 -0.0229
  365loPI   C6A 5836   3.969   8.886   8.634 -0.1600 -0.2787  0.1867
  365loPI   C1B 5837   3.839   9.491  10.509 -0.1204  0.2005 -0.0567
  365loPI   C2B 5838   3.803   9.455  10.141 -0.0312 -0.0427  0.0633
  365loPI   C3B 5839   3.797   9.488   9.692  0.2275  0.2616 -0.2352
  365loPI   C4B 5840   3.646   9.460   9.258 -0.2474 -0.1599  0.0040
  366loPI    C1 5841  15.708  15.763  11.930 -0.0916  0.2247 -0.0709
  366loPI    C2 5842  15.392  15.611  12.122 -0.0833  0.0278 -0.2101
  366loPI    C3 5843  15.560  15.950  12.251 -0.2421  0.0403 -0.0310
  366loPI   PO4 5844  15.657  15.816  11.652  0.1371 -0.1790 -0.0125
  366loPI   GL1 5845  15.551  15.867  11.203  0.1490 -0.4090 -0.1172
  366loPI   GL2 5846  15.960  15.897  11.063 -0.2469  0.2629 -0.1030
  366loPI   C1A 5847  15.672  16.114  10.769 -0.2620  0.1480  0.3366
  366loPI   C2A 5848  15.572  16.073  10.381  0.0290  0.1154  0.2259
  366loPI   C3A 5849  15.600  16.047  10.007 -0.2065  0.3974  0.0371
  366loPI   C4A 5850  15.593  16.037   9.594  0.3135  0.0221  0.1129
  366loPI   C5A 5851  15.502  16.064   9.215  0.0292  0.1471  0.2485
  366loPI   C6A 5852  15.250  16.260   8.912 -0.2140  0.0997  0.1447
  366loPI   C1B 5853  15.894  15.623  10.727  0.0242 -0.1320  0.0894
  366loPI   C2B 5854  15.825  15.634  10.283 -0.3206 -0.0321 -0.0624
  366loPI   C3B 5855  15.904  15.604   9.865  0.0885  0.0803 -0.0591
  366loPI   C4B 5856  15.853  15.624   9.478  0.2007 -0.2273  0.0469
  367loPI    C1 5857  11.812   3.622  11.862  0.2513 -0.0882  0.0230
  367loPI    C2 5858  11.564   3.406  12.090 -0.2068  0.2391 -0.1488
  367loPI    C3 5859  11.918   3.523  12.234 -0.2483 -0.0348  0.1875
  367loPI   PO4 5860  11.809   3.430  11.608  0.0019  0.0627  0.0430
  367loPI   GL1 5861  11.870   3.424  11.163 -0.0206  0.1234  0.0655
  367loPI   GL2 5862  11.911   3.722  10.932  0.3080  0.0977  0.3447
  367loPI   C1A 5863  12.059   3.204  10.879 -0.0473 -0.0840  0.3467
  367loPI   C2A 5864  12.016   3.226  10.542  0.1216  0.2624  0.3003
  367loPI   C3A 5865  12.089   3.185  10.119  0.0402  0.0362 -0.0515
  367loPI   C4A 5866  12.026   3.198   9.708  0.3211  0.0611 -0.0041
  367loPI   C5A 5867  12.094   3.139   9.231  0.1673  0.1641  0.1674
  367loPI   C6A 5868  11.980   3.470   8.940  0.2645  0.2432  0.0593
  367loPI   C1B 5869  11.744   3.598  10.669 -0.3036 -0.1467  0.1135
  367loPI   C2B 5870  11.783   3.611  10.209  0.1630 -0.3784  0.1542
  367loPI   C3B 5871  11.820   3.714   9.832  0.2548 -0.0489  0.0397
  367loPI   C4B 5872  11.805   3.659   9.433 -0.3048  0.2027  0.2736
  368loPI    C1 5873   1.537  10.925  11.338  0.1327 -0.2241  0.2457
  368loPI    C2 5874   1.380  11.192  11.592  0.0067 -0.0222 -0.0393
  368loPI    C3 5875   1.158  10.887  11.461 -0.0686  0.1157 -0.2379
  368loPI   PO4 5876   1.622  11.020  11.178  0.0304 -0.0664  0.0277
  368loPI   GL1 5877   1.801  11.000  10.863 -0.1518 -0.1850 -0.1841
  368loPI   GL2 5878   2.015  11.263  10.877  0.0986  0.2234  0.0069
  368loPI   C1A 5879   1.855  10.880  10.484 -0.0696  0.0958 -0.0486
  368loPI   C2A 5880   1.824  10.876   9.963 -0.1411  0.1044 -0.0924
  368loPI   C3A 5881   1.803  10.950   9.536  0.4323  0.0080  0.1048
  368loPI   C4A 5882   1.792  11.017   9.131  0.2924 -0.0025  0.0105
  368loPI   C5A 5883   1.888  10.717   8.924 -0.1663 -0.0315  0.2357
  368loPI   C6A 5884   1.771  10.634   8.496  0.2862  0.1654  0.0171
  368loPI   C1B 5885   1.815  11.318  10.345  0.1304  0.0467 -0.1483
  368loPI   C2B 5886   1.775  11.359   9.922 -0.2229  0.0416  0.1744
  368loPI   C3B 5887   1.811  11.432   9.471  0.0703  0.1174  0.1787
  368loPI   C4B 5888   1.907  11.434   8.919  0.0331 -0.0030  0.1396
  369loPI    C1 5889   3.910  15.966  11.550 -0.1386  0.0244 -0.1576
  369loPI    C2 5890   4.261  15.775  11.528 -0.1281  0.0336 -0.0720
  369loPI    C3 5891   4.085  15.830  11.883 -0.2659 -0.0601 -0.1249
  369loPI   PO4 5892   4.025  16.162  11.229 -0.1777  0.2178 -0.1122
  369loPI   GL1 5893   4.105  16.011  10.822 -0.0724 -0.0350  0.0143
  369loPI   GL2 5894   3.897  16.246  10.636 -0.3397  0.2819  0.1146
  369loPI   C1A 5895   4.387  15.971  10.519  0.0327 -0.3061 -0.1955
  369loPI   C2A 5896   4.466  16.078  10.087 -0.0460 -0.0095  0.2721
  369loPI   C3A 5897   4.580  16.041   9.683 -0.1588 -0.0705 -0.2008
  369loPI   C4A 5898   4.604  16.047   9.282  0.1142 -0.0068 -0.1548
  369loPI   C5A 5899   4.559  16.223   8.897  0.2726 -0.0615  0.0362
  369loPI   C6A 5900   4.774  16.437   8.533  0.1610  0.0803 -0.3215
  369loPI   C1B 5901   3.976  16.001  10.258 -0.1015  0.1565  0.0939
  369loPI   C2B 5902   4.071  16.031   9.782 -0.1021 -0.0733  0.0999
  369loPI   C3B 5903   4.079  16.117   9.265  0.0741  0.4014  0.2244
  369loPI   C4B 5904   4.080  16.092   8.775 -0.0833 -0.6139 -0.3386
  370loPI    C1 5905   2.343  15.493  11.499 -0.0112 -0.0554 -0.0912
  370loPI    C2 5906   2.697  15.460  11.682 -0.0821 -0.0255  0.0528
  370loPI    C3 5907   2.359  15.401  11.888 -0.1675  0.1750 -0.0282
  370loPI   PO4 5908   2.473  15.302  11.226  0.2510 -0.0014 -0.2534
  370loPI   GL1 5909   2.810  15.181  10.955  0.2049 -0.0052  0.0742
  370loPI   GL2 5910   2.746  15.521  10.930 -0.0550 -0.1887  0.0842
  370loPI   C1A 5911   2.971  15.153  10.557 -0.2745  0.1176 -0.0491
  370loPI   C2A 5912   2.951  15.231  10.167  0.1951  0.1493  0.0442
  370loPI   C3A 5913   2.986  15.288   9.720  0.1052 -0.0085  0.1272
  370loPI   C4A 5914   3.158  15.226   9.246  0.1324 -0.0319  0.2219
  370loPI   C5A 5915   3.249  15.200   8.793  0.1355 -0.1273 -0.0510
  370loPI   C6A 5916   3.144  14.897   8.419  0.2643  0.1279 -0.0302
  370loPI   C1B 5917   2.675  15.582  10.515  0.0414 -0.1356 -0.1148
  370loPI   C2B 5918   2.705  15.629  10.025 -0.1039  0.0000 -0.0431
  370loPI   C3B 5919   2.685  15.699   9.578 -0.0800  0.3628 -0.0190
  370loPI   C4B 5920   2.850  15.628   9.086 -0.1369  0.0967  0.2132
  371loPI    C1 5921   7.888  10.433  11.272 -0.0472 -0.1097 -0.0513
  371loPI    C2 5922   8.093  10.472  11.613 -0.0974 -0.1629 -0.0147
  371loPI    C3 5923   7.768  10.240  11.601 -0.1377 -0.1033 -0.0804
  371loPI   PO4 5924   7.903  10.698  11.178 -0.1545 -0.2239 -0.3441
  371loPI   GL1 5925   7.768  10.852  10.772 -0.0466 -0.1515 -0.0882
  371loPI   GL2 5926   7.782  11.145  10.711 -0.0612 -0.0031  0.2425
  371loPI   C1A 5927   7.762  10.537  10.529 -0.2516 -0.3119 -0.5686
  371loPI   C2A 5928   7.800  10.544  10.161  0.2222  0.1233 -0.0019
  371loPI   C3A 5929   7.757  10.546   9.710  0.3478 -0.0848  0.0443
  371loPI   C4A 5930   7.797  10.603   9.303  0.0334 -0.0957 -0.1814
  371loPI   C5A 5931   7.880  10.477   8.852 -0.4001 -0.0865 -0.0940
  371loPI   C6A 5932   7.908  10.425   8.468 -0.1775  0.3374 -0.0198
  371loPI   C1B 5933   7.736  11.029  10.298 -0.2425 -0.0735 -0.0895
  371loPI   C2B 5934   7.758  11.011   9.932  0.2887  0.0169 -0.0171
  371loPI   C3B 5935   7.718  11.111   9.442 -0.0390 -0.3134 -0.1067
  371loPI   C4B 5936   7.709  11.044   9.079  0.0382  0.2246  0.1028
  372loPI    C1 5937  12.013   9.752  11.628 -0.0301  0.1094  0.0335
  372loPI    C2 5938  12.001   9.353  11.644  0.2808  0.0959  0.0051
  372loPI    C3 5939  11.919   9.568  11.971  0.0526  0.0122  0.0048
  372loPI   PO4 5940  11.984   9.753  11.325 -0.0196  0.2227  0.0621
  372loPI   GL1 5941  11.696   9.724  10.976  0.1855  0.0266  0.2839
  372loPI   GL2 5942  11.549   9.465  10.841 -0.1562  0.0860  0.2833
  372loPI   C1A 5943  11.489   9.842  10.464 -0.4291 -0.0999 -0.0004
  372loPI   C2A 5944  11.503   9.781  10.051  0.0912 -0.2349  0.2796
  372loPI   C3A 5945  11.525   9.649   9.594 -0.0537  0.2494 -0.1615
  372loPI   C4A 5946  11.498   9.709   9.135  0.0083 -0.1104 -0.3378
  372loPI   C5A 5947  11.432   9.960   8.832 -0.2422 -0.7142  0.0030
  372loPI   C6A 5948  11.594  10.349   8.617 -0.0573 -0.0777  0.3645
  372loPI   C1B 5949  11.525   9.339  10.369  0.1683  0.0938 -0.3265
  372loPI   C2B 5950  11.583   9.326   9.962  0.0023  0.0659  0.0162
  372loPI   C3B 5951  11.466   9.113   9.536  0.0431 -0.0866  0.3671
  372loPI   C4B 5952  11.373   9.147   9.094  0.0791 -0.0516  0.2896
  373loPI    C1 5953   9.272  16.204  11.627  0.1085 -0.1131 -0.0829
  373loPI    C2 5954   9.064  16.420  11.891 -0.2232 -0.2814 -0.2002
  373loPI    C3 5955   9.250  16.086  12.009  0.0228 -0.1076 -0.0861
  373loPI   PO4 5956   9.482  16.318  11.536  0.0980  0.1200  0.0369
  373loPI   GL1 5957   9.484  16.394  11.115  0.1877 -0.1378 -0.0684
  373loPI   GL2 5958   9.548  16.698  11.093 -0.2352 -0.2179 -0.0702
  373loPI   C1A 5959   9.628  16.304  10.756  0.0375  0.0701  0.2973
  373loPI   C2A 5960   9.704  16.355  10.365  0.2099 -0.2725 -0.0298
  373loPI   C3A 5961   9.695  16.314   9.975 -0.2330 -0.2929 -0.0089
  373loPI   C4A 5962   9.685  16.282   9.561  0.2369  0.3052  0.1251
  373loPI   C5A 5963   9.696  16.292   9.178  0.0153  0.0267  0.1341
  373loPI   C6A 5964   9.635  16.382   8.787  0.0833 -0.0550  0.4982
  373loPI   C1B 5965   9.440  16.764  10.678 -0.0294  0.0737 -0.0365
  373loPI   C2B 5966   9.391  16.828  10.154  0.1473  0.0555  0.1748
  373loPI   C3B 5967   9.470  16.743   9.766  0.2055 -0.0230 -0.3004
  373loPI   C4B 5968   9.387  16.714   9.308 -0.0266  0.1363 -0.3107
  374loPI    C1 5969   7.299   1.420  11.793 -0.1243  0.1721 -0.0265
  374loPI    C2 5970   7.422   1.053  11.894 -0.0278  0.2386  0.1008
  374loPI    C3 5971   7.179   1.257  12.138 -0.1402  0.2312 -0.0039
  374loPI   PO4 5972   7.203   1.452  11.594 -0.2547  0.1026 -0.2999
  374loPI   GL1 5973   7.088   1.763  11.253  0.0781  0.1105 -0.0942
  374loPI   GL2 5974   7.128   1.422  11.136  0.1252  0.0865  0.1154
  374loPI   C1A 5975   7.132   1.794  10.792  0.1016 -0.3021 -0.0504
  374loPI   C2A 5976   7.144   1.779  10.333 -0.2161 -0.0763  0.1035
  374loPI   C3A 5977   7.281   1.728  10.076  0.0222 -0.2428 -0.0401
  374loPI   C4A 5978   7.365   1.735   9.655 -0.0635  0.2078  0.2021
  374loPI   C5A 5979   7.308   1.654   9.213 -0.2701 -0.1128 -0.1608
  374loPI   C6A 5980   7.489   1.577   8.797 -0.3931  0.1184  0.0899
  374loPI   C1B 5981   7.093   1.270  10.712  0.0477 -0.1449 -0.2144
  374loPI   C2B 5982   7.060   1.227  10.283  0.0639  0.1648 -0.0198
  374loPI   C3B 5983   7.087   1.143   9.850  0.2449 -0.1091 -0.0464
  374loPI   C4B 5984   6.984   1.254   9.582  0.0151 -0.1418  0.2185
  375loPI    C1 5985  12.704   3.616  11.697  0.4045  0.1025 -0.2743
  375loPI    C2 5986  12.880   3.616  12.057  0.0770  0.0672 -0.1109
  375loPI    C3 5987  12.743   3.958  11.901 -0.1553  0.0204 -0.0132
  375loPI   PO4 5988  12.849   3.586  11.544 -0.0370 -0.0226  0.2509
  375loPI   GL1 5989  12.880   3.480  11.131 -0.0164  0.0811  0.2502
  375loPI   GL2 5990  13.126   3.332  10.938  0.0603  0.2488 -0.2518
  375loPI   C1A 5991  12.647   3.336  10.749  0.0436  0.1068  0.4253
  375loPI   C2A 5992  12.525   3.196  10.320  0.1770  0.0454 -0.0041
  375loPI   C3A 5993  12.608   3.254   9.859 -0.0832 -0.1158 -0.1094
  375loPI   C4A 5994  12.699   3.136   9.491  0.0235  0.0457  0.0213
  375loPI   C5A 5995  12.599   3.009   9.154  0.0170  0.4241  0.0747
  375loPI   C6A 5996  12.419   3.075   8.778  0.2509 -0.0010 -0.3055
  375loPI   C1B 5997  13.112   3.298  10.548 -0.0585  0.1481  0.4852
  375loPI   C2B 5998  13.008   3.284  10.134  0.1155 -0.0666  0.2229
  375loPI   C3B 5999  13.138   3.166   9.708 -0.3778 -0.1613 -0.1906
  375loPI   C4B 6000  13.100   3.169   9.227 -0.0319 -0.4098 -0.0781
  376loPI    C1 6001  17.625  14.454  11.160 -0.3565 -0.6573 -0.0582
  376loPI    C2 6002  17.982  14.301  11.255 -0.0229  0.1645  0.0968
  376loPI    C3 6003  17.705  14.353  11.539  0.0105  0.2121  0.1208
  376loPI   PO4 6004  17.615  14.408  10.935  0.2378  0.3262 -0.0976
  376loPI   GL1 6005  17.622  14.098  10.729  0.2346 -0.1239 -0.1714
  376loPI   GL2 6006  17.535  13.800  10.749  0.3131 -0.0036  0.4620
  376loPI   C1A 6007  17.765  14.173  10.318 -0.1263  0.2306  0.1506
  376loPI   C2A 6008  17.837  14.149   9.820 -0.1271 -0.1984 -0.2260
  376loPI   C3A 6009  17.797  14.281   9.397  0.4804  0.0359 -0.2793
  376loPI   C4A 6010  18.084  14.419   9.113 -0.1547  0.1348  0.0751
  376loPI   C5A 6011  18.262  14.425   8.681 -0.3147 -0.2014 -0.0910
  376loPI   C6A 6012  18.460  14.254   8.273  0.0957 -0.0698  0.1673
  376loPI   C1B 6013  17.397  13.824  10.298 -0.2162 -0.1734 -0.1478
  376loPI   C2B 6014  17.417  13.895   9.894  0.0954  0.0176  0.2473
  376loPI   C3B 6015  17.335  14.065   9.517 -0.0907 -0.1070  0.1006
  376loPI   C4B 6016  17.203  14.364   9.175 -0.0600 -0.1034 -0.2028
  377loPI    C1 6017   0.779   5.332  11.662  0.2963  0.1408 -0.3033
  377loPI    C2 6018   0.615   5.688  11.585 -0.1777  0.0234  0.1052
  377loPI    C3 6019   0.925   5.661  11.837  0.0169  0.1677 -0.1137
  377loPI   PO4 6020   0.795   5.188  11.466 -0.3631 -0.1688 -0.2133
  377loPI   GL1 6021   0.839   5.172  11.082 -0.1025  0.2725  0.0614
  377loPI   GL2 6022   0.547   5.103  10.954  0.0797  0.0584 -0.1984
  377loPI   C1A 6023   0.963   5.180  10.655  0.1062 -0.1989 -0.1935
  377loPI   C2A 6024   1.023   5.150  10.250 -0.0778  0.1774  0.1357
  377loPI   C3A 6025   0.945   5.305   9.847 -0.1363 -0.0236 -0.0014
  377loPI   C4A 6026   0.843   5.436   9.409  0.0829  0.0563 -0.1982
  377loPI   C5A 6027   0.834   5.106   9.030  0.1082  0.1924  0.1805
  377loPI   C6A 6028   0.678   4.855   8.705 -0.0672 -0.0317 -0.2035
  377loPI   C1B 6029   0.508   5.115  10.467 -0.0069  0.2044  0.1212
  377loPI   C2B 6030   0.517   5.205  10.120  0.0728  0.1304 -0.1389
  377loPI   C3B 6031   0.411   5.293   9.701 -0.1138 -0.3907 -0.1303
  377loPI   C4B 6032   0.414   5.024   9.310  0.1457  0.0040 -0.0171
  378loPI    C1 6033  14.916   9.054  11.718 -0.0863 -0.2639 -0.1868
  378loPI    C2 6034  14.739   8.889  12.037 -0.3399  0.0440 -0.1627
  378loPI    C3 6035  15.109   8.777  11.933 -0.1298  0.1596  0.4239
  378loPI   PO4 6036  14.763   9.084  11.535  0.1858  0.0023  0.0088
  378loPI   GL1 6037  14.835   9.144  11.071 -0.0633  0.0005 -0.0203
  378loPI   GL2 6038  14.908   9.489  11.104  0.1971  0.0836  0.1202
  378loPI   C1A 6039  14.700   9.187  10.578 -0.1302 -0.1243  0.0016
  378loPI   C2A 6040  14.739   9.206  10.104  0.3269 -0.2474  0.2821
  378loPI   C3A 6041  14.669   9.095   9.746 -0.1624 -0.2920 -0.1013
  378loPI   C4A 6042  14.722   9.151   9.309  0.1131  0.1545  0.1701
  378loPI   C5A 6043  14.708   8.966   8.904  0.2250  0.1459 -0.3495
  378loPI   C6A 6044  14.762   8.958   8.555 -0.0382  0.1908 -0.1532
  378loPI   C1B 6045  15.089   9.484  10.555  0.0180  0.1290 -0.1190
  378loPI   C2B 6046  15.129   9.480  10.038 -0.0866 -0.0273  0.0784
  378loPI   C3B 6047  15.070   9.363   9.648 -0.0584  0.1199  0.2864
  378loPI   C4B 6048  15.163   9.485   9.325 -0.0200  0.1310 -0.1514
  379loPI    C1 6049   2.576  14.837  11.231  0.1385 -0.2641 -0.0615
  379loPI    C2 6050   2.405  14.948  11.575 -0.2016 -0.0359 -0.2976
  379loPI    C3 6051   2.795  15.012  11.516 -0.1502 -0.0345  0.0245
  379loPI   PO4 6052   2.450  14.597  11.245  0.0427  0.0310 -0.1401
  379loPI   GL1 6053   2.175  14.383  10.998 -0.4008  0.0075 -0.3457
  379loPI   GL2 6054   2.205  14.026  10.802  0.0460 -0.1123  0.4430
  379loPI   C1A 6055   2.282  14.478  10.537 -0.0170 -0.1291  0.2838
  379loPI   C2A 6056   2.388  14.499  10.088 -0.0168 -0.1573  0.1235
  379loPI   C3A 6057   2.399  14.586   9.752  0.2457  0.1763  0.0932
  379loPI   C4A 6058   2.517  14.469   9.303 -0.0058  0.0473 -0.0079
  379loPI   C5A 6059   2.526  14.363   8.890 -0.4666  0.3169  0.0849
  379loPI   C6A 6060   2.396  14.264   8.484  0.0902 -0.0570 -0.0903
  379loPI   C1B 6061   2.381  14.035  10.360 -0.1650 -0.1392  0.1868
  379loPI   C2B 6062   2.502  13.977   9.989  0.2733  0.2800 -0.1720
  379loPI   C3B 6063   2.526  14.026   9.632  0.3094  0.0403 -0.1785
  379loPI   C4B 6064   2.656  13.954   9.245 -0.0195  0.0538  0.1662
  380loPI    C1 6065   8.171   7.895  11.696  0.1136  0.1598 -0.0359
  380loPI    C2 6066   7.810   7.768  11.811  0.1278  0.0134 -0.1507
  380loPI    C3 6067   8.104   7.802  12.079 -0.0263  0.3331 -0.0167
  380loPI   PO4 6068   8.119   7.895  11.381 -0.0908  0.1562 -0.3573
  380loPI   GL1 6069   8.031   7.710  10.987  0.1529  0.0600  0.1104
  380loPI   GL2 6070   7.777   8.080  10.911  0.2390 -0.0095 -0.1721
  380loPI   C1A 6071   8.106   7.545  10.594 -0.2096 -0.0990  0.0346
  380loPI   C2A 6072   8.033   7.489  10.190 -0.1134  0.0401 -0.0743
  380loPI   C3A 6073   7.946   7.471   9.722 -0.1880 -0.2257  0.2841
  380loPI   C4A 6074   7.892   7.478   9.237  0.3106 -0.1878 -0.2200
  380loPI   C5A 6075   7.592   7.445   8.867 -0.0814 -0.3137 -0.0250
  380loPI   C6A 6076   7.472   7.275   8.380 -0.2033 -0.3290  0.0428
  380loPI   C1B 6077   7.548   8.196  10.541 -0.2366  0.2908  0.0586
  380loPI   C2B 6078   7.549   8.261  10.109  0.0781  0.0076 -0.1168
  380loPI   C3B 6079   7.432   8.223   9.599  0.1153 -0.0638  0.1784
  380loPI   C4B 6080   7.301   8.334   9.157 -0.1684  0.1787 -0.0691
  381loPI    C1 6081  16.693   0.258  11.857 -0.0124 -0.1196  0.2197
  381loPI    C2 6082  16.324   0.353  11.978  0.0091  0.1605  0.0721
  381loPI    C3 6083  16.558   0.129  12.211 -0.2314  0.0312  0.1934
  381loPI   PO4 6084  16.655   0.203  11.533  0.2486 -0.1326  0.1349
  381loPI   GL1 6085  16.450   0.154  11.180  0.0311  0.0735 -0.0430
  381loPI   GL2 6086  16.080   0.181  11.053 -0.0590  0.1729 -0.0114
  381loPI   C1A 6087  16.603   0.141  10.772 -0.3419  0.0925  0.0965
  381loPI   C2A 6088  16.554   0.217  10.347  0.5679 -0.1002 -0.5582
  381loPI   C3A 6089  16.550   0.070   9.886  0.3066 -0.0342  0.3808
  381loPI   C4A 6090  16.486   0.117   9.474  0.0118 -0.0981 -0.3442
  381loPI   C5A 6091  16.581   0.069   9.090  0.0698 -0.0870 -0.0631
  381loPI   C6A 6092  16.814   0.464   8.870 -0.1414 -0.3174  0.5131
  381loPI   C1B 6093  16.027   0.149  10.621  0.0099  0.1108  0.0679
  381loPI   C2B 6094  16.041   0.132  10.175 -0.1130 -0.2234  0.3289
  381loPI   C3B 6095  15.990   0.146   9.723  0.1730  0.0609  0.3958
  381loPI   C4B 6096  15.974   0.082   9.288 -0.2205  0.0588  0.1626
  382loPI    C1 6097  10.852  10.503  11.707  0.1525 -0.0202  0.2107
  382loPI    C2 6098  10.668  10.612  12.045 -0.0264 -0.0128  0.1119
  382loPI    C3 6099  10.983  10.820  11.914  0.0826 -0.0525  0.3055
  382loPI   PO4 6100  10.707  10.477  11.509  0.0474  0.0793  0.1693
  382loPI   GL1 6101  10.633  10.404  11.056 -0.0321  0.0694  0.0062
  382loPI   GL2 6102  10.659  10.142  10.955  0.1835  0.2075  0.2136
  382loPI   C1A 6103  10.599  10.734  10.780 -0.1203 -0.3413 -0.2764
  382loPI   C2A 6104  10.582  10.791  10.361  0.2984 -0.2305  0.1330
  382loPI   C3A 6105  10.588  10.741  10.009 -0.0732  0.1396  0.2786
  382loPI   C4A 6106  10.440  10.685   9.591  0.2022  0.1231  0.0798
  382loPI   C5A 6107  10.374  10.752   9.135 -0.0768 -0.1647 -0.0087
  382loPI   C6A 6108  10.435  10.769   8.755  0.0361  0.2763 -0.2486
  382loPI   C1B 6109  10.700  10.190  10.595 -0.0605 -0.2126  0.1406
  382loPI   C2B 6110  10.614  10.265  10.205 -0.0613 -0.0363 -0.2503
  382loPI   C3B 6111  10.551  10.196   9.804  0.0086  0.1170  0.2264
  382loPI   C4B 6112  10.510  10.169   9.395 -0.0908  0.0867 -0.2584
  383loPI    C1 6113   9.013   1.463  11.512 -0.0617  0.0887 -0.1562
  383loPI    C2 6114   8.776   1.196  11.692  0.0774 -0.0461 -0.1714
  383loPI    C3 6115   9.019   1.427  11.910  0.0132  0.0147 -0.1639
  383loPI   PO4 6116   9.073   1.366  11.307 -0.2936 -0.2969 -0.0027
  383loPI   GL1 6117   8.858   1.406  10.972 -0.2018 -0.1653 -0.2026
  383loPI   GL2 6118   8.530   1.498  10.884  0.1099  0.2511 -0.0425
  383loPI   C1A 6119   9.011   1.371  10.617  0.0152 -0.0120  0.0241
  383loPI   C2A 6120   8.965   1.329  10.248  0.2203 -0.0863 -0.0041
  383loPI   C3A 6121   9.017   1.377   9.878  0.2713 -0.1570 -0.1901
  383loPI   C4A 6122   9.015   1.399   9.398 -0.1794 -0.1132 -0.0951
  383loPI   C5A 6123   9.063   1.170   8.996 -0.2593 -0.0372 -0.0582
  383loPI   C6A 6124   9.217   0.960   8.600 -0.0694 -0.1580  0.1085
  383loPI   C1B 6125   8.512   1.391  10.521 -0.1402  0.0457  0.2081
  383loPI   C2B 6126   8.504   1.287  10.079  0.2344 -0.0140  0.0525
  383loPI   C3B 6127   8.550   1.278   9.701  0.0831  0.1472 -0.0803
  383loPI   C4B 6128   8.562   1.230   9.236 -0.1273 -0.0853  0.1678
  384loPI    C1 6129  13.691   2.255  11.726  0.2019  0.0354  0.0189
  384loPI    C2 6130  13.743   2.637  11.834  0.1393 -0.0235  0.2618
  384loPI    C3 6131  13.426   2.432  11.968  0.0331 -0.0858 -0.0749
  384loPI   PO4 6132  13.730   2.223  11.489  0.0261  0.1504 -0.1621
  384loPI   GL1 6133  13.508   2.104  11.171 -0.0877  0.2119 -0.2400
  384loPI   GL2 6134  13.526   2.425  11.011  0.3015  0.0194 -0.2316
  384loPI   C1A 6135  13.378   1.977  10.847  0.1548 -0.2888  0.1323
  384loPI   C2A 6136  13.283   1.836  10.392  0.3110  0.0527  0.0253
  384loPI   C3A 6137  13.445   1.838   9.909 -0.1853 -0.1692 -0.1401
  384loPI   C4A 6138  13.458   1.745   9.437  0.2674  0.0550 -0.1639
  384loPI   C5A 6139  13.269   1.618   9.034  0.0268  0.0523  0.2187
  384loPI   C6A 6140  13.297   1.377   8.765  0.0523  0.2963  0.1201
  384loPI   C1B 6141  13.611   2.334  10.586  0.3460  0.0579 -0.0156
  384loPI   C2B 6142  13.577   2.280  10.191 -0.1584 -0.3153  0.0828
  384loPI   C3B 6143  13.692   2.243   9.714  0.1010  0.0797 -0.1223
  384loPI   C4B 6144  13.589   2.185   9.251  0.0028 -0.1224  0.1331
  385loPI    C1 6145   1.611   4.834  11.525 -0.3112  0.0033 -0.2402
  385loPI    C2 6146   1.538   4.541  11.788 -0.1287 -0.0668 -0.2662
  385loPI    C3 6147   1.543   4.923  11.909  0.0335 -0.1044 -0.1509
  385loPI   PO4 6148   1.788   4.716  11.384 -0.0508 -0.0778 -0.0508
  385loPI   GL1 6149   1.873   4.458  11.011  0.2698 -0.1069  0.0585
  385loPI   GL2 6150   2.067   4.403  10.911 -0.2430 -0.1225 -0.1292
  385loPI   C1A 6151   1.598   4.305  10.707 -0.1278 -0.3422  0.0285
  385loPI   C2A 6152   1.569   4.219  10.196  0.2866  0.2575  0.0449
  385loPI   C3A 6153   1.524   4.167   9.780  0.0360 -0.3345 -0.1138
  385loPI   C4A 6154   1.627   4.148   9.316  0.0998 -0.0039  0.1930
  385loPI   C5A 6155   1.461   4.412   9.011 -0.0078  0.0161  0.1244
  385loPI   C6A 6156   1.399   4.741   8.773 -0.3662 -0.1884  0.1974
  385loPI   C1B 6157   2.081   4.318  10.433  0.1297 -0.3924 -0.1848
  385loPI   C2B 6158   2.038   4.279  10.009  0.4059  0.2097  0.1718
  385loPI   C3B 6159   2.051   4.209   9.562  0.0052  0.1246 -0.1178
  385loPI   C4B 6160   2.019   4.227   9.026  0.2122 -0.2297 -0.4703
  386loPI    C1 6161   5.031   3.264  11.924 -0.0329  0.0217  0.1894
  386loPI    C2 6162   4.918   2.915  12.084 -0.0511 -0.0019  0.1255
  386loPI    C3 6163   4.759   3.258  12.217 -0.1294 -0.0280  0.0996
  386loPI   PO4 6164   5.007   3.195  11.693  0.0943 -0.0568 -0.0864
  386loPI   GL1 6165   5.280   3.026  11.359  0.1244  0.2218 -0.1264
  386loPI   GL2 6166   5.287   3.289  11.170 -0.1422 -0.0888 -0.0922
  386loPI   C1A 6167   5.486   2.958  10.882 -0.1012 -0.0482 -0.0609
  386loPI   C2A 6168   5.471   3.022  10.420 -0.1145  0.1039 -0.2789
  386loPI   C3A 6169   5.456   2.963  10.022 -0.0222 -0.0519  0.1250
  386loPI   C4A 6170   5.547   2.874   9.559 -0.0365  0.1483  0.0963
  386loPI   C5A 6171   5.538   2.965   9.120  0.1238 -0.0798 -0.3383
  386loPI   C6A 6172   5.353   3.209   8.842 -0.6100  0.0308 -0.4627
  386loPI   C1B 6173   5.234   3.509  10.745  0.0375 -0.0046  0.1552
  386loPI   C2B 6174   5.208   3.420  10.344  0.0448 -0.2864 -0.0398
  386loPI   C3B 6175   5.180   3.473   9.929  0.4599 -0.0222 -0.2842
  386loPI   C4B 6176   5.287   3.497   9.502 -0.1027  0.3549  0.0168
  387loPI    C1 6177  11.953   3.101  11.932 -0.0316 -0.0276  0.0547
  387loPI    C2 6178  11.783   2.844  12.187 -0.0486 -0.1588 -0.0875
  387loPI    C3 6179  12.094   3.066  12.305 -0.0876 -0.1823  0.0622
  387loPI   PO4 6180  12.039   2.988  11.687 -0.4841  0.0053  0.1030
  387loPI   GL1 6181  11.956   2.873  11.276 -0.2128  0.1724 -0.0118
  387loPI   GL2 6182  11.753   2.922  11.190  0.0020  0.0513 -0.3710
  387loPI   C1A 6183  12.281   2.783  10.937 -0.2160 -0.1488 -0.0928
  387loPI   C2A 6184  12.303   2.796  10.463  0.2670  0.1647 -0.0135
  387loPI   C3A 6185  12.352   2.750  10.004  0.0762  0.3107 -0.3033
  387loPI   C4A 6186  12.433   2.718   9.618 -0.1225 -0.1925  0.2804
  387loPI   C5A 6187  12.303   2.596   9.171 -0.1497  0.2735 -0.0484
  387loPI   C6A 6188  12.172   2.258   8.820  0.1712 -0.0409 -0.2370
  387loPI   C1B 6189  11.786   2.769  10.781  0.1262  0.0137 -0.1011
  387loPI   C2B 6190  11.835   2.806  10.326  0.0547 -0.0537 -0.0646
  387loPI   C3B 6191  11.810   2.726   9.874  0.0006 -0.1224 -0.0773
  387loPI   C4B 6192  11.929   2.714   9.482  0.1574  0.0470  0.0926
  388loPI    C1 6193   4.269   0.171  11.618 -0.1177 -0.1485 -0.0668
  388loPI    C2 6194   3.924   0.250  11.805 -0.1431 -0.0633 -0.1489
  388loPI    C3 6195   4.246   0.141  12.017 -0.1344  0.1651 -0.0420
  388loPI   PO4 6196   4.259   0.304  11.414  0.3059 -0.0340  0.2346
  388loPI   GL1 6197   3.991   0.257  10.980 -0.0418 -0.0467  0.2033
  388loPI   GL2 6198   3.644   0.143  10.898 -0.0881 -0.2482  0.0253
  388loPI   C1A 6199   3.967   0.222  10.528  0.1004 -0.2683  0.3017
  388loPI   C2A 6200   3.980   0.253  10.088  0.2854  0.0081 -0.2685
  388loPI   C3A 6201   4.022   0.261   9.647 -0.0698 -0.1664 -0.0668
  388loPI   C4A 6202   4.066   0.206   9.165 -0.0682 -0.1096  0.0670
  388loPI   C5A 6203   4.049   0.263   8.773  0.0763 -0.3742 -0.0414
  388loPI   C6A 6204   3.789   0.554   8.555 -0.1799  0.1310 -0.0743
  388loPI   C1B 6205   3.479   0.232  10.571 -0.0093  0.0816  0.1408
  388loPI   C2B 6206   3.438   0.247  10.164 -0.1048 -0.0677 -0.0226
  388loPI   C3B 6207   3.507   0.231   9.817 -0.0106  0.0190  0.0937
  388loPI   C4B 6208   3.574   0.191   9.395  0.0114  0.2655 -0.0448
  389loPI    C1 6209  16.275  14.048  11.118 -0.0855 -0.0035 -0.0148
  389loPI    C2 6210  16.298  13.730  11.359  0.1907  0.0065 -0.0251
  389loPI    C3 6211  16.415  14.089  11.491 -0.2197  0.1280  0.0224
  389loPI   PO4 6212  16.038  13.966  10.960 -0.2000  0.0590 -0.3758
  389loPI   GL1 6213  15.848  13.974  10.587  0.0601  0.0145  0.0947
  389loPI   GL2 6214  15.777  14.257  10.597 -0.0340  0.1046 -0.0801
  389loPI   C1A 6215  15.794  13.823  10.183 -0.1973  0.1100  0.0932
  389loPI   C2A 6216  15.564  13.894   9.717  0.0498 -0.1174 -0.0596
  389loPI   C3A 6217  15.384  13.858   9.265 -0.1646 -0.0945 -0.1625
  389loPI   C4A 6218  15.003  13.915   9.104 -0.1363 -0.0482 -0.0029
  389loPI   C5A 6219  14.811  13.973   8.717 -0.1579 -0.1956  0.2627
  389loPI   C6A 6220  14.977  13.764   8.421  0.2422 -0.0055 -0.0923
  389loPI   C1B 6221  15.730  14.310  10.215  0.1265 -0.0397 -0.1270
  389loPI   C2B 6222  15.777  14.374   9.694 -0.1521  0.1965  0.0234
  389loPI   C3B 6223  15.668  14.293   9.254  0.0525 -0.0740 -0.2246
  389loPI   C4B 6224  15.646  14.099   8.864  0.2644 -0.1424 -0.0513
  390loPI    C1 6225   9.925  15.591  11.465  0.1616 -0.2678  0.0679
  390loPI    C2 6226   9.967  15.587  11.863  0.0839 -0.2216  0.0770
  390loPI    C3 6227   9.679  15.807  11.695 -0.1125 -0.5181  0.0160
  390loPI   PO4 6228  10.115  15.625  11.364  0.1132 -0.2298  0.1842
  390loPI   GL1 6229  10.289  15.671  10.914  0.2589  0.0697 -0.1258
  390loPI   GL2 6230  10.515  15.959  10.855 -0.4257  0.1008  0.2213
  390loPI   C1A 6231  10.227  15.517  10.485 -0.1579  0.1001 -0.3153
  390loPI   C2A 6232  10.225  15.442  10.071 -0.1886 -0.2296  0.1534
  390loPI   C3A 6233  10.247  15.423   9.647 -0.1233  0.1366 -0.0253
  390loPI   C4A 6234  10.197  15.336   9.261  0.0269 -0.1586 -0.0402
  390loPI   C5A 6235  10.258  15.563   8.839 -0.4474  0.0527 -0.0014
  390loPI   C6A 6236  10.431  15.489   8.423 -0.1086  0.1722  0.1599
  390loPI   C1B 6237  10.472  16.009  10.444  0.0402 -0.0068  0.0238
  390loPI   C2B 6238  10.513  15.896  10.032  0.0097  0.0047  0.2584
  390loPI   C3B 6239  10.437  15.884   9.606 -0.3418  0.0954 -0.2093
  390loPI   C4B 6240  10.505  15.875   9.154 -0.0052 -0.1767 -0.3209
  391loPI    C1 6241   0.282  17.020  11.554 -0.2632 -0.2077 -0.0026
  391loPI    C2 6242   0.390  17.342  11.764  0.2382 -0.2100 -0.2416
  391loPI    C3 6243   0.251  17.018  11.953 -0.2741  0.1367  0.0012
  391loPI   PO4 6244   0.315  17.158  11.348  0.0020  0.1061 -0.0565
  391loPI   GL1 6245   0.278  17.383  10.991  0.0628  0.0210 -0.0961
  391loPI   GL2 6246   0.608  17.307  10.956 -0.0843  0.0873 -0.1055
  391loPI   C1A 6247   0.175  17.335  10.571 -0.1475  0.2230  0.2126
  391loPI   C2A 6248   0.102  17.432  10.208  0.1465  0.0002 -0.0191
  391loPI   C3A 6249   0.107  17.467   9.787 -0.0546  0.0258 -0.0788
  391loPI   C4A 6250   0.102  17.371   9.435 -0.3733 -0.2268  0.1803
  391loPI   C5A 6251   0.080  17.443   9.017 -0.1913 -0.0892  0.3087
  391loPI   C6A 6252   0.056  17.722   8.611  0.0748 -0.0170 -0.1579
  391loPI   C1B 6253   0.670  17.408  10.552  0.0610 -0.0760  0.0842
  391loPI   C2B 6254   0.641  17.424  10.173  0.3051  0.2018  0.0541
  391loPI   C3B 6255   0.572  17.385   9.757  0.2924 -0.1740 -0.0686
  391loPI   C4B 6256   0.595  17.416   9.339 -0.1134  0.3464  0.2166
  392loPI    C1 6257   2.376   7.160  11.403  0.0445 -0.1152 -0.0520
  392loPI    C2 6258   2.532   6.900  11.664 -0.0234 -0.2681 -0.1625
  392loPI    C3 6259   2.136   6.954  11.648 -0.0207 -0.2707 -0.2437
  392loPI   PO4 6260   2.384   7.422  11.447 -0.0985  0.0247 -0.0009
  392loPI   GL1 6261   2.517   7.633  11.066 -0.0004  0.0534 -0.3393
  392loPI   GL2 6262   2.383   7.986  11.062 -0.2844  0.0568  0.2161
  392loPI   C1A 6263   2.762   7.557  10.567  0.0021  0.2529 -0.0510
  392loPI   C2A 6264   2.617   7.587  10.190 -0.1438  0.2583 -0.1037
  392loPI   C3A 6265   2.534   7.629   9.818 -0.1249 -0.3063 -0.0764
  392loPI   C4A 6266   2.552   7.645   9.467 -0.0540 -0.1029  0.0144
  392loPI   C5A 6267   2.432   7.548   9.057 -0.0014  0.2280 -0.1043
  392loPI   C6A 6268   2.150   7.725   8.849  0.3947 -0.3717  0.0308
  392loPI   C1B 6269   2.285   7.776  10.631 -0.1336  0.0816  0.1957
  392loPI   C2B 6270   2.139   7.797  10.223  0.0248 -0.1347 -0.1664
  392loPI   C3B 6271   2.132   7.916   9.802 -0.0054 -0.0513 -0.4473
  392loPI   C4B 6272   2.115   7.790   9.324  0.2357  0.1124 -0.1950
  393loPI    C1 6273  14.906  16.362  11.737 -0.0789  0.2572 -0.0983
  393loPI    C2 6274  14.734  16.474  12.080 -0.1832  0.2345 -0.1431
  393loPI    C3 6275  15.053  16.672  11.943  0.0002  0.1010  0.0834
  393loPI   PO4 6276  14.703  16.273  11.604 -0.0205  0.0310 -0.0770
  393loPI   GL1 6277  14.653  16.234  11.199  0.0095  0.0694  0.1361
  393loPI   GL2 6278  14.612  16.414  11.078 -0.3186 -0.1483  0.1511
  393loPI   C1A 6279  14.492  15.974  10.809  0.3464  0.0106 -0.1070
  393loPI   C2A 6280  14.505  16.033  10.404  0.0698 -0.0672 -0.0808
  393loPI   C3A 6281  14.533  15.952   9.901 -0.1142  0.0488  0.2273
  393loPI   C4A 6282  14.518  16.045   9.476 -0.1924 -0.0553 -0.0063
  393loPI   C5A 6283  14.478  15.961   8.987 -0.3061  0.3355  0.2488
  393loPI   C6A 6284  14.327  16.171   8.615 -0.1573  0.0831  0.2056
  393loPI   C1B 6285  14.770  16.397  10.661 -0.2686 -0.0507 -0.0728
  393loPI   C2B 6286  14.774  16.408  10.281 -0.4212 -0.1741  0.0039
  393loPI   C3B 6287  14.724  16.494   9.805 -0.0954  0.3136  0.3937
  393loPI   C4B 6288  14.647  16.491   9.332  0.1644  0.3286  0.0431
  394loPI    C1 6289   3.523  11.545  11.649 -0.0110 -0.0793  0.0153
  394loPI    C2 6290   3.433  11.906  11.796 -0.1361 -0.1194  0.0387
  394loPI    C3 6291   3.766  11.718  11.916  0.1813  0.1912 -0.3257
  394loPI   PO4 6292   3.605  11.719  11.299  0.0165 -0.2656  0.0328
  394loPI   GL1 6293   3.441  11.579  10.939 -0.2993  0.0514 -0.1456
  394loPI   GL2 6294   3.214  11.828  10.794 -0.3461 -0.0494 -0.4235
  394loPI   C1A 6295   3.541  11.605  10.532 -0.0146 -0.3419 -0.0065
  394loPI   C2A 6296   3.736  11.527  10.121 -0.0207  0.1285  0.2298
  394loPI   C3A 6297   3.591  11.487   9.770  0.1046  0.0556 -0.0753
  394loPI   C4A 6298   3.560  11.517   9.385  0.0877  0.1002 -0.2137
  394loPI   C5A 6299   3.604  11.606   8.920  0.1386  0.1270  0.0035
  394loPI   C6A 6300   3.460  11.807   8.489  0.1799 -0.1020 -0.2210
  394loPI   C1B 6301   3.080  11.781  10.380  0.2364 -0.0936 -0.0231
  394loPI   C2B 6302   3.134  11.699  10.010  0.3174  0.0910  0.0233
  394loPI   C3B 6303   3.078  11.798   9.551 -0.0960 -0.0348  0.0197
  394loPI   C4B 6304   3.153  11.852   9.100  0.1199  0.0306 -0.0780
  395loPI    C1 6305   5.539  12.344  11.683 -0.2541 -0.3189 -0.2181
  395loPI    C2 6306   5.469  12.183  12.042  0.2512  0.0829  0.0754
  395loPI    C3 6307   5.188  12.406  11.865  0.0612  0.0260  0.2996
  395loPI   PO4 6308   5.557  12.225  11.490 -0.1510 -0.2149  0.2501
  395loPI   GL1 6309   5.760  12.194  11.046  0.0199  0.0151 -0.0227
  395loPI   GL2 6310   6.116  12.258  10.877 -0.0147  0.1533 -0.2445
  395loPI   C1A 6311   5.798  12.074  10.560 -0.0935 -0.2979  0.0933
  395loPI   C2A 6312   5.840  11.942  10.150 -0.0750  0.2516  0.3287
  395loPI   C3A 6313   5.964  12.001   9.728 -0.0231  0.5685 -0.1554
  395loPI   C4A 6314   5.822  12.033   9.328 -0.0736 -0.2273 -0.0518
  395loPI   C5A 6315   5.807  12.226   8.899 -0.1498 -0.0135 -0.0181
  395loPI   C6A 6316   5.990  12.388   8.574 -0.1824 -0.0725  0.0240
  395loPI   C1B 6317   6.237  12.279  10.511 -0.4213 -0.2366 -0.1198
  395loPI   C2B 6318   6.310  12.231  10.114 -0.2060 -0.6519 -0.0174
  395loPI   C3B 6319   6.361  12.346   9.701  0.0660  0.1474  0.2041
  395loPI   C4B 6320   6.181  12.391   9.267  0.0618 -0.0682 -0.0128
  396loPI    C1 6321  13.660   3.280  11.682  0.0942  0.1225 -0.1995
  396loPI    C2 6322  13.291   3.393  11.791  0.1465 -0.0736  0.2031
  396loPI    C3 6323  13.587   3.663  11.773  0.0177  0.0582  0.0159
  396loPI   PO4 6324  13.627   3.132  11.440 -0.0519 -0.1362 -0.0152
  396loPI   GL1 6325  13.591   3.169  11.031  0.2083  0.0416 -0.0789
  396loPI   GL2 6326  13.587   3.434  10.819  0.0437 -0.0088 -0.0309
  396loPI   C1A 6327  13.732   2.891  10.801 -0.1531  0.4682 -0.1741
  396loPI   C2A 6328  13.821   2.815  10.383 -0.1727  0.1533  0.0626
  396loPI   C3A 6329  13.870   2.709  10.046  0.2846  0.1694 -0.1330
  396loPI   C4A 6330  13.916   2.692   9.585 -0.1737  0.1359 -0.1424
  396loPI   C5A 6331  13.940   2.699   9.111 -0.0548 -0.0744 -0.0148
  396loPI   C6A 6332  13.602   2.482   8.828 -0.1965  0.1439  0.2824
  396loPI   C1B 6333  13.639   3.294  10.440 -0.0516 -0.1020 -0.0119
  396loPI   C2B 6334  13.661   3.165   9.990  0.3346 -0.0704  0.1071
  396loPI   C3B 6335  13.631   3.088   9.482  0.2114  0.1615 -0.1468
  396loPI   C4B 6336  13.856   3.302   9.158  0.0401  0.0313  0.1936
  397loPI    C1 6337  10.106   3.338  11.460 -0.0541 -0.0448  0.1929
  397loPI    C2 6338   9.791   3.578  11.518 -0.0681  0.0059 -0.0802
  397loPI    C3 6339   9.794   3.211  11.676 -0.1366  0.1100  0.1668
  397loPI   PO4 6340  10.130   3.339  11.161  0.2465  0.1535  0.1352
  397loPI   GL1 6341  10.116   2.995  10.844  0.3344  0.4918 -0.1118
  397loPI   GL2 6342   9.732   2.905  10.669  0.1504 -0.0245  0.1541
  397loPI   C1A 6343  10.040   3.242  10.445 -0.1292  0.0949  0.0445
  397loPI   C2A 6344  10.037   3.276  10.074  0.2484 -0.0853  0.3726
  397loPI   C3A 6345  10.100   3.215   9.662  0.0440  0.1278 -0.1098
  397loPI   C4A 6346  10.001   3.181   9.161 -0.1027  0.4994  0.1933
  397loPI   C5A 6347   9.705   3.119   8.829  0.5289 -0.0121 -0.0345
  397loPI   C6A 6348   9.429   3.028   8.463  0.1418 -0.1768 -0.0302
  397loPI   C1B 6349   9.756   2.835  10.258  0.3172 -0.2435 -0.0527
  397loPI   C2B 6350   9.838   2.788   9.913 -0.1233 -0.0191  0.1602
  397loPI   C3B 6351   9.797   2.779   9.470 -0.1729 -0.2058 -0.1224
  397loPI   C4B 6352   9.759   2.698   9.070 -0.3315  0.3476  0.0500
  398loPI    C1 6353   5.351  13.178  11.432 -0.1321  0.0483 -0.1056
  398loPI    C2 6354   5.276  12.816  11.584  0.1682 -0.0015 -0.0696
  398loPI    C3 6355   5.378  13.117  11.826  0.0349  0.0785 -0.1117
  398loPI   PO4 6356   5.276  13.030  11.148 -0.2466  0.4567 -0.1372
  398loPI   GL1 6357   5.552  12.674  10.833 -0.3930 -0.1965  0.3898
  398loPI   GL2 6358   5.382  12.908  10.640  0.0686  0.0212 -0.2534
  398loPI   C1A 6359   5.753  12.641  10.486  0.1395  0.3883  0.0797
  398loPI   C2A 6360   5.900  12.568  10.078 -0.2795  0.0094  0.1256
  398loPI   C3A 6361   5.794  12.483   9.711  0.0431 -0.2565  0.1455
  398loPI   C4A 6362   5.730  12.601   9.268 -0.0421 -0.0701 -0.0158
  398loPI   C5A 6363   5.808  12.737   8.900 -0.0675  0.2024 -0.2047
  398loPI   C6A 6364   5.648  12.773   8.547 -0.0938  0.0787  0.1347
  398loPI   C1B 6365   5.348  12.733  10.169  0.0300  0.1079  0.3057
  398loPI   C2B 6366   5.268  12.687   9.780 -0.1946 -0.0101 -0.0468
  398loPI   C3B 6367   5.296  12.683   9.335 -0.0434 -0.1474 -0.1146
  398loPI   C4B 6368   5.333  12.732   9.006 -0.1107 -0.1526  0.1863
  399loPI    C1 6369   5.202  15.914  11.463 -0.2710  0.0043 -0.1020
  399loPI    C2 6370   5.061  16.280  11.540  0.0274  0.0725  0.1378
  399loPI    C3 6371   5.032  15.992  11.816  0.0459 -0.0082  0.0563
  399loPI   PO4 6372   5.493  15.990  11.310  0.0805  0.0597 -0.2100
  399loPI   GL1 6373   5.654  16.126  10.941 -0.0314 -0.1598 -0.0639
  399loPI   GL2 6374   5.405  16.026  10.702 -0.0571 -0.2226 -0.2409
  399loPI   C1A 6375   5.814  16.178  10.481  0.0305 -0.0605 -0.0253
  399loPI   C2A 6376   6.010  16.247  10.109  0.0288 -0.0383 -0.0699
  399loPI   C3A 6377   6.165  16.103   9.758 -0.0698 -0.1500  0.0336
  399loPI   C4A 6378   6.162  16.055   9.334 -0.0388  0.0430  0.2336
  399loPI   C5A 6379   6.122  16.112   8.919 -0.0071  0.3711 -0.1260
  399loPI   C6A 6380   6.045  16.210   8.528  0.2045 -0.1842 -0.1871
  399loPI   C1B 6381   5.287  16.195  10.419  0.0867 -0.3294  0.0183
  399loPI   C2B 6382   5.504  16.154  10.028  0.5114  0.4392 -0.0574
  399loPI   C3B 6383   5.661  16.029   9.674 -0.1719 -0.0796  0.0046
  399loPI   C4B 6384   5.619  16.160   9.232  0.1706 -0.0865 -0.0699
  400loPI    C1 6385   7.960  14.867  11.600  0.0879  0.1615  0.0713
  400loPI    C2 6386   8.267  14.667  11.759  0.0603  0.0701  0.0111
  400loPI    C3 6387   8.081  14.950  11.972 -0.0233 -0.1013  0.1687
  400loPI   PO4 6388   8.019  14.913  11.369  0.2661  0.0518 -0.1963
  400loPI   GL1 6389   7.741  15.003  10.951 -0.2060  0.0483  0.3114
  400loPI   GL2 6390   7.990  15.296  10.880  0.2565 -0.0087 -0.1811
  400loPI   C1A 6391   7.614  14.927  10.597 -0.1966  0.1588 -0.1598
  400loPI   C2A 6392   7.491  14.708  10.194 -0.3391 -0.0260  0.0738
  400loPI   C3A 6393   7.499  14.903   9.798  0.1299 -0.1941  0.0491
  400loPI   C4A 6394   7.442  14.834   9.425 -0.2031 -0.0662  0.2763
  400loPI   C5A 6395   7.577  14.824   9.034  0.0482  0.1118 -0.2091
  400loPI   C6A 6396   7.643  14.880   8.589  0.1970 -0.1257  0.0469
  400loPI   C1B 6397   8.223  15.451  10.447  0.1023 -0.0465  0.0775
  400loPI   C2B 6398   8.257  15.475   9.997  0.0480 -0.1025  0.0864
  400loPI   C3B 6399   8.025  15.411   9.594 -0.1572 -0.3674  0.1838
  400loPI   C4B 6400   7.657  15.272   9.306  0.0371  0.0535 -0.1854
  401loPI    C1 6401  15.448   9.731  11.490 -0.1813  0.0780  0.0329
  401loPI    C2 6402  15.125   9.506  11.563 -0.0610 -0.1344 -0.0782
  401loPI    C3 6403  15.333   9.661  11.867  0.0267 -0.4228  0.0109
  401loPI   PO4 6404  15.366   9.897  11.254 -0.2473 -0.1883 -0.2482
  401loPI   GL1 6405  15.169   9.919  10.932  0.1178  0.2021  0.3645
  401loPI   GL2 6406  14.953   9.961  10.786  0.1491  0.2185  0.1226
  401loPI   C1A 6407  15.376  10.180  10.638 -0.1002 -0.0375  0.0135
  401loPI   C2A 6408  15.501  10.268  10.245  0.0111  0.2867  0.3172
  401loPI   C3A 6409  15.437  10.262   9.767 -0.0230 -0.1118 -0.1708
  401loPI   C4A 6410  15.415  10.245   9.371  0.3454 -0.0797 -0.1759
  401loPI   C5A 6411  15.404  10.089   8.881  0.2235 -0.0744 -0.0913
  401loPI   C6A 6412  15.594  10.303   8.439  0.1315  0.0765 -0.1404
  401loPI   C1B 6413  15.054   9.941  10.366 -0.1228 -0.3236 -0.2919
  401loPI   C2B 6414  15.049  10.054   9.998  0.1326 -0.1659 -0.1868
  401loPI   C3B 6415  15.079   9.895   9.617 -0.0147  0.1088  0.2135
  401loPI   C4B 6416  15.016   9.925   9.195  0.1010  0.1756 -0.0458
  402loPI    C1 6417   9.850   5.705  11.606 -0.0965  0.1884 -0.2076
  402loPI    C2 6418   9.584   6.001  11.648 -0.0475  0.1845  0.1651
  402loPI    C3 6419   9.572   5.685  11.893 -0.1106 -0.1354 -0.2407
  402loPI   PO4 6420   9.951   5.653  11.347 -0.0954 -0.3459 -0.2247
  402loPI   GL1 6421   9.802   5.688  10.908  0.0961 -0.2266 -0.0327
  402loPI   GL2 6422   9.781   6.014  10.721 -0.3806 -0.0347  0.2784
  402loPI   C1A 6423   9.481   5.595  10.505 -0.1281 -0.1471  0.0299
  402loPI   C2A 6424   9.212   5.496  10.157  0.5752 -0.1112 -0.4800
  402loPI   C3A 6425   9.249   5.344   9.800  0.1479  0.1341  0.1919
  402loPI   C4A 6426   9.085   5.421   9.415  0.2570 -0.3087 -0.1999
  402loPI   C5A 6427   8.745   5.272   9.193  0.0214 -0.1261  0.0987
  402loPI   C6A 6428   8.664   5.225   8.780 -0.0087  0.0696 -0.2324
  402loPI   C1B 6429   9.757   6.026  10.246 -0.1898 -0.1861  0.4995
  402loPI   C2B 6430   9.812   5.918   9.856  0.2925  0.1233 -0.5363
  402loPI   C3B 6431   9.935   5.942   9.451  0.2917 -0.0486 -0.0251
  402loPI   C4B 6432   9.920   6.036   9.030 -0.0122 -0.1649  0.0860
  403loPI    C1 6433   3.275   6.978  11.377 -0.2361 -0.1825 -0.1848
  403loPI    C2 6434   3.044   6.781  11.636  0.1034 -0.1149  0.1789
  403loPI    C3 6435   3.326   7.031  11.770  0.1376  0.0926 -0.2641
  403loPI   PO4 6436   3.390   6.850  11.244  0.1131  0.0312 -0.3416
  403loPI   GL1 6437   3.205   6.729  10.840  0.3706 -0.2720  0.1018
  403loPI   GL2 6438   3.514   6.579  10.756 -0.3891 -0.0897  0.1170
  403loPI   C1A 6439   3.092   6.769  10.396 -0.1897  0.1137 -0.1519
  403loPI   C2A 6440   3.118   6.878   9.904 -0.2425  0.0138  0.1988
  403loPI   C3A 6441   3.095   6.890   9.544 -0.2322  0.1797  0.1684
  403loPI   C4A 6442   3.027   6.898   9.090 -0.4861  0.0197  0.2463
  403loPI   C5A 6443   2.958   7.015   8.674 -0.1135  0.0979  0.2385
  403loPI   C6A 6444   2.608   7.367   8.625 -0.1727 -0.1028  0.1729
  403loPI   C1B 6445   3.566   6.586  10.301 -0.1921  0.0483 -0.3612
  403loPI   C2B 6446   3.619   6.605   9.952  0.0437 -0.1577  0.2222
  403loPI   C3B 6447   3.574   6.712   9.490 -0.2317  0.3021  0.1882
  403loPI   C4B 6448   3.540   6.752   9.042 -0.0854 -0.1783 -0.2595
  404loPI    C1 6449   1.897   7.349  11.496  0.2322  0.0490 -0.1022
  404loPI    C2 6450   1.721   7.206  11.825  0.1004  0.1404 -0.1321
  404loPI    C3 6451   2.032   7.456  11.857  0.2415 -0.0392 -0.0794
  404loPI   PO4 6452   1.674   7.324  11.361  0.0503 -0.2164 -0.0115
  404loPI   GL1 6453   1.706   7.391  10.974 -0.1807  0.0017  0.1155
  404loPI   GL2 6454   2.119   7.354  11.011  0.1115 -0.0126  0.2236
  404loPI   C1A 6455   1.799   7.509  10.532  0.3722  0.0732  0.4529
  404loPI   C2A 6456   1.667   7.565  10.071 -0.4522  0.0675 -0.0302
  404loPI   C3A 6457   1.626   7.549   9.682 -0.0688  0.0553 -0.1524
  404loPI   C4A 6458   1.673   7.599   9.261 -0.0443 -0.1424 -0.0377
  404loPI   C5A 6459   1.651   7.889   8.867 -0.1497  0.1328  0.1285
  404loPI   C6A 6460   1.542   8.258   8.749 -0.2765 -0.0695 -0.1269
  404loPI   C1B 6461   2.235   7.295  10.641 -0.3390  0.1195 -0.0943
  404loPI   C2B 6462   2.204   7.321  10.256  0.2816 -0.1837  0.5742
  404loPI   C3B 6463   2.078   7.258   9.795  0.1030 -0.0962  0.0516
  404loPI   C4B 6464   2.071   7.297   9.320 -0.0185  0.1154  0.0505
  405loPI    C1 6465  13.428   0.342  11.870 -0.1239 -0.0102  0.0459
  405loPI    C2 6466  13.784   0.208  11.994 -0.1115  0.0265  0.0502
  405loPI    C3 6467  13.448   0.066  12.159 -0.0938  0.1048  0.1544
  405loPI   PO4 6468  13.393   0.225  11.602  0.0837 -0.0662  0.2449
  405loPI   GL1 6469  13.324  -0.038  11.263 -0.0521 -0.0016  0.1941
  405loPI   GL2 6470  13.496  -0.246  11.110  0.1492 -0.2769 -0.0461
  405loPI   C1A 6471  12.972   0.006  10.905 -0.2637  0.1448 -0.1213
  405loPI   C2A 6472  13.003   0.094  10.453  0.4606  0.0349 -0.0798
  405loPI   C3A 6473  12.866   0.057  10.055 -0.0160  0.0313 -0.1199
  405loPI   C4A 6474  12.958   0.028   9.554 -0.1529 -0.3492  0.1420
  405loPI   C5A 6475  12.990   0.051   9.133 -0.0018 -0.1391 -0.2385
  405loPI   C6A 6476  13.266  -0.305   8.871  0.1330  0.0452 -0.0042
  405loPI   C1B 6477  13.724  -0.310  10.697 -0.1619  0.2321  0.2167
  405loPI   C2B 6478  13.705  -0.397  10.310  0.1219 -0.2985  0.5014
  405loPI   C3B 6479  13.679  -0.351   9.916 -0.0244 -0.3203  0.0804
  405loPI   C4B 6480  13.619  -0.385   9.477  0.0540  0.1513 -0.1795
  406loPI    C1 6481  10.301   9.749  11.654  0.1279  0.1454  0.2018
  406loPI    C2 6482  10.193   9.373  11.740  0.1710  0.0996  0.0586
  406loPI    C3 6483  10.374   9.598  12.017 -0.0074  0.0722  0.1994
  406loPI   PO4 6484  10.142   9.737  11.378  0.0137  0.1220 -0.0673
  406loPI   GL1 6485  10.214   9.931  10.922  0.1529 -0.0367  0.1905
  406loPI   GL2 6486  10.191   9.653  10.892  0.0676  0.0643 -0.0331
  406loPI   C1A 6487  10.230  10.023  10.485 -0.1778  0.0638  0.4415
  406loPI   C2A 6488  10.224   9.899  10.031  0.2917 -0.0700 -0.0492
  406loPI   C3A 6489  10.134   9.890   9.615  0.1187 -0.1202 -0.0694
  406loPI   C4A 6490  10.136   9.842   9.193  0.0516 -0.0652  0.0046
  406loPI   C5A 6491   9.997   9.896   8.821  0.1496  0.0660 -0.2251
  406loPI   C6A 6492  10.035   9.936   8.275 -0.0162  0.2428 -0.2365
  406loPI   C1B 6493  10.212   9.492  10.546 -0.2143  0.0424 -0.0128
  406loPI   C2B 6494  10.256   9.430  10.163  0.0150  0.1417 -0.1932
  406loPI   C3B 6495  10.180   9.319   9.706  0.0262  0.1445 -0.1142
  406loPI   C4B 6496  10.056   9.332   9.312  0.0690  0.2907  0.0320
  407loPI    C1 6497   7.059  14.629  11.386 -0.2378 -0.0674  0.1629
  407loPI    C2 6498   7.013  14.232  11.398 -0.1536 -0.0738  0.3058
  407loPI    C3 6499   7.274  14.410  11.643  0.1006  0.0286 -0.0320
  407loPI   PO4 6500   7.149  14.680  11.095 -0.2176  0.1492  0.0094
  407loPI   GL1 6501   7.021  14.659  10.681  0.1772  0.0951 -0.0151
  407loPI   GL2 6502   7.100  14.899  10.496 -0.1441  0.0460  0.1982
  407loPI   C1A 6503   7.121  14.405  10.346  0.0915  0.1860  0.2117
  407loPI   C2A 6504   7.069  14.431   9.891 -0.1228  0.0473  0.1839
  407loPI   C3A 6505   7.285  14.355   9.503 -0.0467 -0.0257  0.2048
  407loPI   C4A 6506   7.201  14.426   9.106 -0.1896  0.0416  0.0983
  407loPI   C5A 6507   7.232  14.654   8.709 -0.1316 -0.2935  0.0023
  407loPI   C6A 6508   7.175  14.876   8.452  0.0735 -0.3292 -0.1919
  407loPI   C1B 6509   7.068  14.892  10.112  0.2093  0.2561  0.4526
  407loPI   C2B 6510   7.003  14.881   9.622 -0.3004  0.3981 -0.1627
  407loPI   C3B 6511   6.848  14.746   9.223 -0.0574  0.2077 -0.1043
  407loPI   C4B 6512   6.675  14.678   8.759  0.2614  0.3589  0.2506
  408loPI    C1 6513   1.965  12.469  11.342 -0.0598 -0.1660  0.1923
  408loPI    C2 6514   2.056  12.323  11.703  0.0762 -0.0831  0.1922
  408loPI    C3 6515   2.105  12.712  11.627  0.0843 -0.1071  0.0724
  408loPI   PO4 6516   1.906  12.264  11.182  0.0267 -0.1383  0.1813
  408loPI   GL1 6517   2.145  12.273  10.754  0.2560 -0.1459  0.3352
  408loPI   GL2 6518   2.121  12.563  10.739 -0.2175 -0.3065  0.0056
  408loPI   C1A 6519   2.274  12.183  10.361 -0.1954  0.0386  0.2206
  408loPI   C2A 6520   2.144  12.122  10.030 -0.4661 -0.0065  0.1304
  408loPI   C3A 6521   2.157  12.204   9.549  0.3626  0.1488  0.0709
  408loPI   C4A 6522   2.154  12.260   9.042  0.0156 -0.1497  0.2308
  408loPI   C5A 6523   2.017  12.468   8.658 -0.1306 -0.0601  0.2153
  408loPI   C6A 6524   1.940  12.611   8.168  0.1200 -0.0312 -0.2615
  408loPI   C1B 6525   2.171  12.729  10.334 -0.0444  0.1401 -0.0239
  408loPI   C2B 6526   2.164  12.630   9.897  0.1282  0.2263  0.3557
  408loPI   C3B 6527   2.172  12.748   9.482  0.2262  0.1496  0.0866
  408loPI   C4B 6528   2.160  12.825   9.126 -0.0756  0.1864 -0.3603
  409loPI    C1 6529   0.539   1.828  11.810  0.0731 -0.1259 -0.1038
  409loPI    C2 6530   0.906   1.947  11.913  0.0100 -0.0830  0.0754
  409loPI    C3 6531   0.750   1.616  12.075 -0.1811  0.1146  0.3019
  409loPI   PO4 6532   0.575   1.840  11.413  0.2237  0.3816 -0.3749
  409loPI   GL1 6533   0.433   1.985  11.097  0.0029  0.2229  0.3126
  409loPI   GL2 6534   0.802   1.986  11.019 -0.0271  0.1332 -0.1916
  409loPI   C1A 6535   0.343   1.943  10.622 -0.1371  0.1612  0.0608
  409loPI   C2A 6536   0.261   1.987  10.212 -0.0971  0.3620  0.1316
  409loPI   C3A 6537   0.296   1.876   9.742 -0.0881  0.0483 -0.1982
  409loPI   C4A 6538   0.346   2.008   9.363 -0.1928 -0.2451  0.1858
  409loPI   C5A 6539   0.473   2.313   8.965  0.3144 -0.0554  0.1455
  409loPI   C6A 6540   0.343   2.609   8.618 -0.2092 -0.0680 -0.1992
  409loPI   C1B 6541   0.829   1.973  10.560  0.1789  0.1895 -0.1728
  409loPI   C2B 6542   0.731   1.977  10.091  0.1720 -0.1560  0.0489
  409loPI   C3B 6543   0.861   2.012   9.653 -0.0287 -0.0367 -0.2260
  409loPI   C4B 6544   0.936   2.155   9.190  0.1255  0.1994  0.1290
  410loPI    C1 6545  14.249   6.689  11.517  0.0714 -0.0009 -0.0005
  410loPI    C2 6546  14.057   6.401  11.719 -0.2587  0.0813 -0.1896
  410loPI    C3 6547  14.164   6.739  11.905 -0.0887 -0.0594 -0.0273
  410loPI   PO4 6548  14.137   6.789  11.216  0.0695 -0.3191 -0.0200
  410loPI   GL1 6549  14.093   6.901  10.843 -0.1444 -0.2836 -0.2370
  410loPI   GL2 6550  14.032   7.116  10.641  0.0958 -0.2091  0.2319
  410loPI   C1A 6551  13.636   6.785  10.528  0.0591  0.0429  0.2790
  410loPI   C2A 6552  13.483   6.814  10.202 -0.2164 -0.0359  0.1619
  410loPI   C3A 6553  13.560   6.740   9.840  0.0903  0.1073 -0.1536
  410loPI   C4A 6554  13.570   6.701   9.517  0.0460 -0.1267  0.0172
  410loPI   C5A 6555  13.609   6.664   8.975 -0.2093 -0.1219  0.2519
  410loPI   C6A 6556  13.196   6.626   8.738 -0.0655 -0.2818 -0.0561
  410loPI   C1B 6557  13.977   7.088  10.220  0.0104  0.0510  0.1438
  410loPI   C2B 6558  14.083   6.998   9.817 -0.0105 -0.0052 -0.1345
  410loPI   C3B 6559  13.985   6.966   9.549 -0.2237 -0.1192 -0.2612
  410loPI   C4B 6560  14.181   6.851   9.181  0.1900  0.3195 -0.1998
  411loPI    C1 6561  16.341  14.623  11.419  0.1376  0.2021 -0.0193
  411loPI    C2 6562  16.693  14.477  11.540 -0.0163  0.0563  0.2626
  411loPI    C3 6563  16.428  14.609  11.809 -0.1805  0.1595  0.0531
  411loPI   PO4 6564  16.309  14.525  11.177  0.1770  0.1777  0.1004
  411loPI   GL1 6565  16.219  14.364  10.723 -0.1663 -0.1723 -0.1582
  411loPI   GL2 6566  16.503  14.530  10.614 -0.0941 -0.0826  0.0306
  411loPI   C1A 6567  16.247  14.191  10.368  0.0770 -0.0739 -0.0854
  411loPI   C2A 6568  16.147  14.052   9.908  0.0434  0.1716 -0.0770
  411loPI   C3A 6569  16.028  13.986   9.523  0.0232  0.2329  0.2317
  411loPI   C4A 6570  15.935  13.775   9.146 -0.0389 -0.3638 -0.3425
  411loPI   C5A 6571  15.564  13.533   8.891 -0.1814 -0.0210 -0.3180
  411loPI   C6A 6572  15.293  13.661   8.776 -0.0280 -0.2585 -0.1355
  411loPI   C1B 6573  16.379  14.654  10.295 -0.0408 -0.2660  0.0294
  411loPI   C2B 6574  16.303  14.627   9.871  0.5265  0.0502  0.3898
  411loPI   C3B 6575  16.277  14.405   9.526 -0.1380  0.2177 -0.0169
  411loPI   C4B 6576  16.228  14.256   9.069  0.3466  0.1167 -0.2449
  412loPI    C1 6577   7.051  13.624  11.196  0.2424  0.2370 -0.1619
  412loPI    C2 6578   7.289  13.418  11.442  0.1862 -0.0347 -0.3303
  412loPI    C3 6579   7.161  13.782  11.547  0.3725 -0.0391 -0.0753
  412loPI   PO4 6580   7.162  13.671  10.994  0.1984  0.1898 -0.1469
  412loPI   GL1 6581   7.405  13.962  10.692  0.1330  0.1159  0.0406
  412loPI   GL2 6582   7.415  13.661  10.528 -0.1676 -0.2112 -0.3980
  412loPI   C1A 6583   7.572  14.171  10.474 -0.0060  0.1391 -0.1286
  412loPI   C2A 6584   7.518  14.202  10.002  0.2042 -0.2048  0.1941
  412loPI   C3A 6585   7.736  14.448   9.712  0.0485  0.0554 -0.2571
  412loPI   C4A 6586   7.926  14.834   9.552  0.1029 -0.1007  0.3045
  412loPI   C5A 6587   8.142  15.175   9.207 -0.0484 -0.2266  0.1360
  412loPI   C6A 6588   8.579  15.300   8.929 -0.0146  0.1297 -0.0145
  412loPI   C1B 6589   7.639  13.664  10.250 -0.0425 -0.0226  0.1260
  412loPI   C2B 6590   7.644  13.756   9.785  0.1057 -0.3681  0.0985
  412loPI   C3B 6591   7.567  13.886   9.386  0.1380  0.1898 -0.0725
  412loPI   C4B 6592   7.539  13.853   8.939 -0.0288 -0.0815  0.0731
  413loPI    C1 6593  13.955  10.450  11.478  0.0752 -0.0227  0.1312
  413loPI    C2 6594  13.872  10.793  11.667  0.1515  0.0307  0.0691
  413loPI    C3 6595  13.744  10.445  11.817  0.0475  0.0887  0.1163
  413loPI   PO4 6596  13.861  10.528  11.267 -0.1367  0.2602 -0.1792
  413loPI   GL1 6597  13.696  10.519  10.833  0.1592  0.0014  0.3684
  413loPI   GL2 6598  13.833  10.247  10.845  0.0630 -0.1830 -0.1892
  413loPI   C1A 6599  13.647  10.712  10.489 -0.3932  0.2275 -0.1222
  413loPI   C2A 6600  13.691  10.697  10.070  0.1528 -0.6120 -0.2570
  413loPI   C3A 6601  13.674  10.599   9.714  0.1329  0.2566  0.1514
  413loPI   C4A 6602  13.628  10.659   9.175  0.1882  0.1806 -0.1039
  413loPI   C5A 6603  13.585  10.417   8.748  0.1409  0.0770  0.0258
  413loPI   C6A 6604  13.821  10.103   8.659 -0.1218 -0.2292  0.1468
  413loPI   C1B 6605  13.668  10.170  10.429  0.1847 -0.0201 -0.1917
  413loPI   C2B 6606  13.662  10.108  10.051 -0.4684  0.2829  0.0296
  413loPI   C3B 6607  13.688  10.113   9.673 -0.0595  0.0602 -0.0629
  413loPI   C4B 6608  13.772  10.092   9.239  0.0780  0.0065 -0.0256
  414loPI    C1 6609  10.182   1.443  11.466  0.0264  0.0222  0.2390
  414loPI    C2 6610   9.993   1.441  11.819 -0.0760  0.0498  0.1848
  414loPI    C3 6611  10.323   1.220  11.766 -0.0383  0.0758  0.3096
  414loPI   PO4 6612   9.858   1.387  11.241  0.2073 -0.2352  0.2131
  414loPI   GL1 6613   9.774   1.389  10.789  0.0991  0.0772  0.1105
  414loPI   GL2 6614  10.124   1.326  10.736 -0.0854 -0.1002 -0.3356
  414loPI   C1A 6615   9.496   1.471  10.506  0.0533 -0.0380  0.0066
  414loPI   C2A 6616   9.590   1.393  10.089  0.0023  0.1208 -0.2365
  414loPI   C3A 6617   9.501   1.400   9.618  0.1525  0.1691 -0.1335
  414loPI   C4A 6618   9.565   1.360   9.280 -0.0153 -0.1749  0.2836
  414loPI   C5A 6619   9.577   1.254   8.848  0.0033  0.0930 -0.1690
  414loPI   C6A 6620   9.694   1.267   8.404 -0.1047  0.1123 -0.1241
  414loPI   C1B 6621  10.035   1.428  10.303  0.1242 -0.0081  0.3021
  414loPI   C2B 6622  10.094   1.475   9.933  0.0798 -0.1458 -0.0404
  414loPI   C3B 6623   9.994   1.498   9.511 -0.3518 -0.1743  0.0336
  414loPI   C4B 6624  10.055   1.372   9.257 -0.0374  0.0234  0.2485
  415loPI    C1 6625   9.353  15.426  11.282  0.1796 -0.0525 -0.1318
  415loPI    C2 6626   9.077  15.226  11.492  0.1031 -0.0548 -0.2338
  415loPI    C3 6627   9.435  15.302  11.654  0.1384 -0.2865 -0.1992
  415loPI   PO4 6628   9.248  15.453  11.102 -0.1282 -0.0766  0.1114
  415loPI   GL1 6629   9.208  15.685  10.759  0.1034 -0.0867  0.0376
  415loPI   GL2 6630   9.328  15.933  10.731 -0.0904 -0.0920 -0.3420
  415loPI   C1A 6631   9.165  15.500  10.372  0.2806  0.1831 -0.1932
  415loPI   C2A 6632   9.162  15.417   9.890 -0.4422  0.2226 -0.1624
  415loPI   C3A 6633   9.125  15.404   9.488 -0.1056  0.0540  0.3760
  415loPI   C4A 6634   9.075  15.316   9.056  0.1987  0.0215  0.0042
  415loPI   C5A 6635   8.975  15.564   8.693 -0.0726 -0.1353  0.0459
  415loPI   C6A 6636   9.132  15.647   8.236 -0.1870  0.0863 -0.0605
  415loPI   C1B 6637   9.511  15.878  10.402  0.0384 -0.2061 -0.0462
  415loPI   C2B 6638   9.499  15.883   9.968  0.2207 -0.1493  0.1076
  415loPI   C3B 6639   9.452  15.797   9.473  0.0600 -0.2865 -0.1530
  415loPI   C4B 6640   9.434  15.713   9.013 -0.1097  0.2815  0.0053
  416loPI    C1 6641   4.583   2.265  11.362  0.1107 -0.0221 -0.1225
  416loPI    C2 6642   4.938   2.212  11.539  0.0776 -0.0563 -0.0659
  416loPI    C3 6643   4.859   2.030  11.192  0.0136 -0.2750  0.0613
  416loPI   PO4 6644   4.515   2.486  11.358 -0.2481 -0.1693 -0.2003
  416loPI   GL1 6645   4.412   2.792  10.993 -0.3739  0.1058  0.3310
  416loPI   GL2 6646   4.673   2.530  10.911  0.3184  0.2397 -0.0054
  416loPI   C1A 6647   4.402   2.923  10.608 -0.2997 -0.1838  0.0787
  416loPI   C2A 6648   4.392   2.953  10.167  0.0694  0.1008 -0.1156
  416loPI   C3A 6649   4.437   2.958   9.749 -0.1830  0.0757 -0.3778
  416loPI   C4A 6650   4.433   2.958   9.340 -0.2015 -0.1654  0.0396
  416loPI   C5A 6651   4.549   2.822   8.938  0.0575 -0.1663 -0.1168
  416loPI   C6A 6652   4.420   3.054   8.516  0.0311 -0.0572 -0.0678
  416loPI   C1B 6653   4.741   2.483  10.548 -0.1347 -0.1068 -0.1895
  416loPI   C2B 6654   4.664   2.505  10.206 -0.2684 -0.5265  0.3897
  416loPI   C3B 6655   4.660   2.509   9.808  0.0230 -0.0390  0.4466
  416loPI   C4B 6656   4.857   2.595   9.472 -0.0286 -0.0258 -0.1651
  417loPI    C1 6657  11.733   2.545  11.775  0.0929  0.2150  0.0816
  417loPI    C2 6658  12.007   2.412  12.034  0.0877  0.1472  0.0527
  417loPI    C3 6659  11.618   2.355  12.107  0.0913  0.0030 -0.0387
  417loPI   PO4 6660  11.767   2.448  11.540 -0.0156 -0.3865 -0.0217
  417loPI   GL1 6661  11.766   2.417  11.172  0.0598 -0.2631  0.2507
  417loPI   GL2 6662  12.081   2.299  11.122 -0.0102 -0.0736 -0.1361
  417loPI   C1A 6663  11.515   2.375  10.787 -0.0539  0.2544 -0.2193
  417loPI   C2A 6664  11.579   2.357  10.397  0.2372  0.2717 -0.4343
  417loPI   C3A 6665  11.563   2.287   9.987 -0.0887  0.1726 -0.1996
  417loPI   C4A 6666  11.596   2.259   9.567  0.0268  0.2484 -0.0186
  417loPI   C5A 6667  11.762   2.167   9.084  0.1007  0.1028  0.0341
  417loPI   C6A 6668  11.561   2.334   8.712  0.0476  0.0691  0.4169
  417loPI   C1B 6669  12.022   2.287  10.690  0.1516 -0.1147  0.2202
  417loPI   C2B 6670  12.087   2.346  10.217  0.2299  0.1016  0.2764
  417loPI   C3B 6671  12.072   2.292   9.793 -0.0984  0.1099  0.2676
  417loPI   C4B 6672  12.155   2.204   9.389  0.1087 -0.1637 -0.0658
  418loPI    C1 6673   3.219  14.089  11.245 -0.1093  0.0413  0.1345
  418loPI    C2 6674   3.246  14.178  11.634 -0.1775  0.0363  0.1405
  418loPI    C3 6675   3.255  13.796  11.516 -0.0739  0.0417  0.1302
  418loPI   PO4 6676   3.344  14.375  11.107 -0.1245  0.1240 -0.1109
  418loPI   GL1 6677   3.064  14.588  10.865  0.3972 -0.0932 -0.2906
  418loPI   GL2 6678   2.808  14.702  10.797 -0.1900  0.0342 -0.0213
  418loPI   C1A 6679   3.230  14.604  10.531 -0.4224 -0.1602  0.0562
  418loPI   C2A 6680   3.227  14.722  10.163 -0.0490 -0.0584  0.2519
  418loPI   C3A 6681   3.305  14.840   9.682 -0.2202  0.0614 -0.4830
  418loPI   C4A 6682   3.371  14.785   9.227 -0.0657  0.1680  0.2361
  418loPI   C5A 6683   3.453  14.707   8.858  0.2353 -0.0109 -0.0537
  418loPI   C6A 6684   3.620  14.874   8.550  0.0758  0.0852 -0.0537
  418loPI   C1B 6685   2.711  14.724  10.366 -0.0351 -0.0870 -0.0878
  418loPI   C2B 6686   2.826  14.794   9.894 -0.1420  0.1667  0.0493
  418loPI   C3B 6687   2.790  14.818   9.524  0.4893  0.0148  0.2586
  418loPI   C4B 6688   2.864  14.852   9.091  0.0061 -0.0721  0.1853
  419loPI    C1 6689   8.300   3.488  11.625  0.0142 -0.0001  0.2173
  419loPI    C2 6690   8.655   3.446  11.804  0.1864  0.3844 -0.0219
  419loPI    C3 6691   8.403   3.733  11.925 -0.1966 -0.1002  0.3746
  419loPI   PO4 6692   8.362   3.433  11.412  0.4492 -0.0466 -0.0212
  419loPI   GL1 6693   8.406   3.552  11.074  0.1052 -0.0184 -0.2511
  419loPI   GL2 6694   8.178   3.654  10.881 -0.0378 -0.1216  0.0707
  419loPI   C1A 6695   8.453   3.281  10.686 -0.1321 -0.0605  0.0982
  419loPI   C2A 6696   8.468   3.175  10.296  0.0328 -0.0496 -0.1717
  419loPI   C3A 6697   8.533   3.245   9.850  0.1011 -0.0577 -0.1809
  419loPI   C4A 6698   8.521   3.194   9.444 -0.1987  0.1048 -0.0442
  419loPI   C5A 6699   8.576   3.019   9.002  0.0154 -0.2259  0.1203
  419loPI   C6A 6700   8.613   3.079   8.496  0.1627 -0.0606  0.0700
  419loPI   C1B 6701   8.172   3.652  10.462  0.3324 -0.0218 -0.3516
  419loPI   C2B 6702   8.275   3.636  10.024 -0.1119 -0.0095 -0.0548
  419loPI   C3B 6703   8.251   3.570   9.597 -0.0109  0.0426 -0.2412
  419loPI   C4B 6704   8.242   3.481   9.127  0.4342 -0.1125 -0.2041
  420loPI    C1 6705  15.864   8.326  11.568  0.0358 -0.0442  0.1529
  420loPI    C2 6706  15.559   8.129  11.737 -0.0145 -0.0428  0.0640
  420loPI    C3 6707  15.753   8.412  11.943  0.0258 -0.1500  0.1744
  420loPI   PO4 6708  15.792   8.412  11.355  0.0093  0.0431 -0.2071
  420loPI   GL1 6709  15.803   8.237  10.952 -0.2009 -0.2388 -0.2522
  420loPI   GL2 6710  15.616   8.057  10.726  0.2812 -0.0447 -0.0737
  420loPI   C1A 6711  16.150   8.136  10.738 -0.1194  0.1483  0.0937
  420loPI   C2A 6712  16.235   7.958  10.327  0.0716  0.1447  0.0885
  420loPI   C3A 6713  16.120   7.990   9.857  0.0169 -0.3743 -0.2054
  420loPI   C4A 6714  16.178   7.931   9.417  0.1466 -0.0728 -0.1436
  420loPI   C5A 6715  16.087   7.966   9.123 -0.3817 -0.2341 -0.2182
  420loPI   C6A 6716  15.979   7.866   8.715  0.0444  0.1052 -0.0934
  420loPI   C1B 6717  15.772   8.158  10.367  0.2073  0.2819 -0.3063
  420loPI   C2B 6718  15.672   8.179   9.976  0.2279 -0.2211 -0.0360
  420loPI   C3B 6719  15.724   8.054   9.521 -0.1445  0.0529  0.3617
  420loPI   C4B 6720  15.630   8.188   9.022  0.5194  0.2951  0.0334
  421loPI    C1 6721   4.751   8.941  11.611  0.0996  0.0595  0.1352
  421loPI    C2 6722   5.133   8.825  11.640  0.0409 -0.1289  0.1686
  421loPI    C3 6723   4.968   9.043  11.932  0.2447  0.3211 -0.0422
  421loPI   PO4 6724   4.638   9.023  11.303  0.1785 -0.1219 -0.0152
  421loPI   GL1 6725   4.732   9.052  10.844 -0.1257 -0.1878 -0.1552
  421loPI   GL2 6726   4.753   9.440  10.784 -0.2194  0.0911 -0.0932
  421loPI   C1A 6727   4.445   8.734  10.564  0.2353  0.2839 -0.0149
  421loPI   C2A 6728   4.273   8.640  10.175  0.2025 -0.1019  0.4042
  421loPI   C3A 6729   4.358   8.757   9.747 -0.1816 -0.2195  0.0127
  421loPI   C4A 6730   4.299   8.765   9.426  0.3752 -0.2842 -0.0098
  421loPI   C5A 6731   4.264   8.784   9.006 -0.1436  0.1447 -0.0647
  421loPI   C6A 6732   4.524   8.993   8.843 -0.0133 -0.2158 -0.0123
  421loPI   C1B 6733   4.716   9.581  10.420 -0.2104 -0.0521  0.0774
  421loPI   C2B 6734   4.749   9.567   9.994 -0.2219  0.0972 -0.0108
  421loPI   C3B 6735   4.550   9.562   9.549  0.0470  0.2385  0.0371
  421loPI   C4B 6736   4.535   9.646   9.089  0.2663  0.0414  0.1543
  422loPI    C1 6737   1.374   3.225  11.860 -0.1956 -0.0330 -0.0731
  422loPI    C2 6738   1.277   2.905  12.079 -0.0497 -0.1653 -0.1985
  422loPI    C3 6739   0.992   3.112  11.890 -0.1844 -0.0125  0.1625
  422loPI   PO4 6740   1.569   3.147  11.632 -0.0873 -0.2107 -0.1232
  422loPI   GL1 6741   1.703   3.148  11.287  0.0491  0.0505 -0.0674
  422loPI   GL2 6742   1.648   3.424  11.111  0.0610  0.2331  0.0612
  422loPI   C1A 6743   1.885   2.898  10.978  0.0119 -0.0143 -0.0289
  422loPI   C2A 6744   1.854   2.936  10.533 -0.0007 -0.0171 -0.0018
  422loPI   C3A 6745   1.781   2.885  10.073  0.0718 -0.2689  0.0366
  422loPI   C4A 6746   1.856   2.892   9.604  0.0621 -0.0461  0.0805
  422loPI   C5A 6747   1.896   2.843   9.136  0.1129  0.3227  0.1267
  422loPI   C6A 6748   2.039   2.904   8.699 -0.0756  0.5709 -0.1085
  422loPI   C1B 6749   1.600   3.350  10.710  0.1560  0.1777 -0.1187
  422loPI   C2B 6750   1.597   3.338  10.271 -0.1105 -0.2487 -0.0464
  422loPI   C3B 6751   1.583   3.331   9.822 -0.1652 -0.0026  0.1334
  422loPI   C4B 6752   1.528   3.240   9.405  0.2017  0.1363  0.1289
  423loPI    C1 6753   8.924  15.886  11.312  0.0945 -0.0368  0.0314
  423loPI    C2 6754   9.147  15.724  11.602  0.1366  0.1178  0.0867
  423loPI    C3 6755   8.825  15.941  11.696 -0.0868 -0.1728  0.0048
  423loPI   PO4 6756   9.040  16.117  11.181  0.1483  0.2461 -0.3081
  423loPI   GL1 6757   8.889  16.174  10.776  0.0321  0.2804 -0.0791
  423loPI   GL2 6758   8.713  15.953  10.819  0.0748 -0.0777 -0.1010
  423loPI   C1A 6759   9.149  16.340  10.495  0.1912 -0.2408  0.2157
  423loPI   C2A 6760   9.196  16.369  10.103 -0.0004 -0.3290  0.0138
  423loPI   C3A 6761   9.186  16.331   9.593  0.0719 -0.2054  0.2113
  423loPI   C4A 6762   9.130  16.191   9.186 -0.1447 -0.0542 -0.1535
  423loPI   C5A 6763   9.134  16.073   8.812  0.2706 -0.1901  0.0293
  423loPI   C6A 6764   9.369  15.938   8.592 -0.0176 -0.5360  0.1846
  423loPI   C1B 6765   8.917  15.879  10.340 -0.0417  0.1481 -0.0467
  423loPI   C2B 6766   9.020  15.923   9.914  0.0482  0.0539  0.1731
  423loPI   C3B 6767   8.861  15.850   9.563  0.0660 -0.0514 -0.2630
  423loPI   C4B 6768   8.889  15.782   9.150 -0.0891 -0.0510 -0.2350
  424loPI    C1 6769  13.494  11.299  11.600 -0.0099  0.1387 -0.0617
  424loPI    C2 6770  13.368  11.433  11.955 -0.0169  0.2735 -0.1145
  424loPI    C3 6771  13.494  11.055  11.917  0.1280  0.3020  0.0659
  424loPI   PO4 6772  13.327  11.315  11.384 -0.1620 -0.1340  0.0618
  424loPI   GL1 6773  13.363  11.281  10.927 -0.0321 -0.1169  0.0035
  424loPI   GL2 6774  13.648  11.167  10.774 -0.0576 -0.1723  0.1122
  424loPI   C1A 6775  13.118  11.415  10.565  0.3502  0.0273 -0.2322
  424loPI   C2A 6776  13.197  11.376  10.105 -0.1431 -0.2002 -0.0662
  424loPI   C3A 6777  13.153  11.381   9.666 -0.0896  0.2648  0.1837
  424loPI   C4A 6778  13.071  11.626   9.320  0.0181 -0.0815  0.2762
  424loPI   C5A 6779  12.836  11.648   8.832  0.1627  0.2972 -0.0481
  424loPI   C6A 6780  13.061  11.810   8.558  0.0755 -0.1318  0.1022
  424loPI   C1B 6781  13.607  11.176  10.301 -0.1282 -0.2255  0.0223
  424loPI   C2B 6782  13.616  11.190   9.875 -0.1359 -0.2304 -0.0998
  424loPI   C3B 6783  13.517  11.177   9.427 -0.2045 -0.0986 -0.3131
  424loPI   C4B 6784  13.614  11.148   8.996 -0.0812  0.0817 -0.0326
  425loPI    C1 6785   1.779  13.824  11.157  0.0984 -0.1178 -0.0940
  425loPI    C2 6786   1.517  13.924  11.442  0.1703  0.4125 -0.2034
  425loPI    C3 6787   1.876  13.779  11.542 -0.0749 -0.1137 -0.0491
  425loPI   PO4 6788   1.739  13.927  10.980 -0.0234 -0.1730 -0.0290
  425loPI   GL1 6789   1.570  13.867  10.573 -0.1137  0.1033 -0.1626
  425loPI   GL2 6790   1.817  13.688  10.552  0.0366  0.4566 -0.1665
  425loPI   C1A 6791   1.602  13.932  10.180  0.1122  0.3575  0.0076
  425loPI   C2A 6792   1.609  13.972   9.812 -0.1765  0.2829  0.0234
  425loPI   C3A 6793   1.544  14.083   9.411  0.0874 -0.0496  0.0979
  425loPI   C4A 6794   1.551  14.280   8.955 -0.0462 -0.2379 -0.1852
  425loPI   C5A 6795   1.499  14.383   8.496 -0.0928  0.0963  0.0823
  425loPI   C6A 6796   1.374  14.327   8.172  0.0122  0.1626  0.0590
  425loPI   C1B 6797   2.047  13.720  10.110 -0.0174 -0.1255 -0.2983
  425loPI   C2B 6798   2.116  13.779   9.665 -0.2539 -0.0653  0.1466
  425loPI   C3B 6799   2.159  13.854   9.245  0.0837 -0.1752 -0.0130
  425loPI   C4B 6800   2.234  13.881   8.865 -0.0095 -0.1476 -0.3998
  426loPI    C1 6801  10.797   1.218  11.806  0.0390 -0.2270  0.1293
  426loPI    C2 6802  11.091   1.381  12.024 -0.0567 -0.0760  0.1475
  426loPI    C3 6803  10.748   1.273  12.199 -0.0691 -0.1133  0.1008
  426loPI   PO4 6804  10.764   1.429  11.623 -0.0019 -0.0087  0.1384
  426loPI   GL1 6805  10.767   1.409  11.231 -0.2602  0.1594  0.4354
  426loPI   GL2 6806  11.071   1.456  11.001  0.2349  0.1503 -0.0825
  426loPI   C1A 6807  10.613   1.346  10.775 -0.1830 -0.0418  0.0639
  426loPI   C2A 6808  10.564   1.408  10.309 -0.1167 -0.0477  0.4101
  426loPI   C3A 6809  10.630   1.423   9.916 -0.1994  0.1575  0.1263
  426loPI   C4A 6810  10.516   1.400   9.455  0.2878  0.0587  0.0614
  426loPI   C5A 6811  10.594   1.384   9.029 -0.1534 -0.1943 -0.0285
  426loPI   C6A 6812  10.915   1.397   8.669 -0.1690 -0.0651 -0.1713
  426loPI   C1B 6813  11.172   1.306  10.538  0.0789  0.1394 -0.2952
  426loPI   C2B 6814  11.139   1.438  10.060  0.0306 -0.1608  0.1075
  426loPI   C3B 6815  11.134   1.387   9.581 -0.1428  0.0107 -0.0802
  426loPI   C4B 6816  11.088   1.394   9.123 -0.0872 -0.3199 -0.0735
  427loPI    C1 6817   3.666  15.292  11.315  0.0158  0.1043 -0.0876
  427loPI    C2 6818   3.688  15.091  11.660 -0.3321  0.2271  0.0112
  427loPI    C3 6819   3.881  15.439  11.619 -0.1790  0.1457  0.0323
  427loPI   PO4 6820   3.770  15.183  11.166 -0.0770 -0.2827 -0.0711
  427loPI   GL1 6821   3.907  15.302  10.741 -0.0870 -0.1655  0.1413
  427loPI   GL2 6822   4.103  15.585  10.583  0.0490 -0.0434 -0.0828
  427loPI   C1A 6823   3.921  15.158  10.274 -0.0955 -0.1586 -0.1712
  427loPI   C2A 6824   4.065  15.103   9.841  0.0565 -0.1301 -0.1542
  427loPI   C3A 6825   4.074  15.218   9.476  0.2294  0.2416  0.0387
  427loPI   C4A 6826   4.143  15.259   9.015 -0.2471  0.2971  0.1928
  427loPI   C5A 6827   4.208  15.162   8.701 -0.1681  0.1487 -0.1971
  427loPI   C6A 6828   4.182  14.778   8.509 -0.1431  0.2723  0.0061
  427loPI   C1B 6829   4.279  15.574  10.206 -0.0135  0.1017 -0.0444
  427loPI   C2B 6830   4.312  15.559   9.811 -0.3171 -0.2141  0.1150
  427loPI   C3B 6831   4.315  15.643   9.345 -0.2792  0.1542 -0.0212
  427loPI   C4B 6832   4.426  15.688   8.846  0.0668  0.0719 -0.2315
  428loPI    C1 6833  15.154  13.086  11.386  0.1462  0.1211 -0.1737
  428loPI    C2 6834  15.387  13.021  11.704 -0.0398 -0.0972 -0.0799
  428loPI    C3 6835  15.210  13.376  11.655  0.2121  0.0287 -0.0872
  428loPI   PO4 6836  15.282  12.927  11.225 -0.0749  0.1079 -0.0750
  428loPI   GL1 6837  15.330  12.974  10.813 -0.1973 -0.1268 -0.0816
  428loPI   GL2 6838  15.596  12.747  10.776  0.2243  0.0528 -0.0391
  428loPI   C1A 6839  15.630  13.173  10.494  0.3910 -0.0179  0.1906
  428loPI   C2A 6840  15.757  13.265  10.111  0.0591  0.1137 -0.0061
  428loPI   C3A 6841  15.795  13.211   9.718 -0.0156  0.0298 -0.1931
  428loPI   C4A 6842  15.719  13.202   9.259  0.0049 -0.1353 -0.2845
  428loPI   C5A 6843  15.820  13.092   8.920  0.0824  0.0599  0.0134
  428loPI   C6A 6844  15.884  12.926   8.533  0.1487 -0.1153  0.1236
  428loPI   C1B 6845  15.760  12.689  10.355 -0.2412 -0.0554  0.1315
  428loPI   C2B 6846  15.777  12.580   9.904  0.1119 -0.1690 -0.2279
  428loPI   C3B 6847  15.798  12.650   9.413  0.1397 -0.0823 -0.2361
  428loPI   C4B 6848  15.712  12.598   8.979  0.0845 -0.0693 -0.0157
  429loPI    C1 6849  16.480   4.948  11.746  0.1401  0.2366  0.0494
  429loPI    C2 6850  16.543   4.669  12.026  0.0629  0.1061 -0.0620
  429loPI    C3 6851  16.573   5.056  12.120 -0.1347  0.0674  0.1705
  429loPI   PO4 6852  16.648   4.959  11.562  0.1713 -0.0595 -0.0822
  429loPI   GL1 6853  16.819   4.977  11.168  0.2142 -0.0332  0.2531
  429loPI   GL2 6854  17.027   5.122  10.992 -0.1146 -0.1744 -0.0455
  429loPI   C1A 6855  16.887   4.651  10.842  0.0023 -0.1188 -0.0839
  429loPI   C2A 6856  16.894   4.606  10.477  0.1553 -0.1535 -0.4127
  429loPI   C3A 6857  16.848   4.664  10.130  0.0520  0.1361  0.2260
  429loPI   C4A 6858  16.956   4.514   9.819 -0.2348 -0.3561 -0.2295
  429loPI   C5A 6859  16.796   4.555   9.376 -0.0496 -0.1178 -0.2110
  429loPI   C6A 6860  16.654   4.614   8.990 -0.1791 -0.2105  0.1497
  429loPI   C1B 6861  17.072   5.075  10.587  0.1956  0.2081 -0.0915
  429loPI   C2B 6862  17.107   5.110  10.152 -0.0333  0.4316  0.0580
  429loPI   C3B 6863  17.108   5.034   9.783  0.0369  0.0540  0.1214
  429loPI   C4B 6864  17.062   5.025   9.301 -0.1553  0.0135 -0.0746
  430loPI    C1 6865   2.976  13.054  11.624 -0.1639  0.1283 -0.0724
  430loPI    C2 6866   3.089  13.400  11.788 -0.0306 -0.0648  0.2537
  430loPI    C3 6867   2.792  13.189  11.953 -0.1125 -0.1070  0.0551
  430loPI   PO4 6868   2.941  13.079  11.400 -0.0688  0.0012 -0.1209
  430loPI   GL1 6869   2.821  13.102  11.005 -0.0445 -0.1261 -0.0571
  430loPI   GL2 6870   3.028  13.374  10.995  0.0134  0.1450  0.0962
  430loPI   C1A 6871   3.070  12.853  10.717  0.1722  0.0472 -0.1485
  430loPI   C2A 6872   2.999  12.761  10.350  0.0420 -0.0321 -0.2577
  430loPI   C3A 6873   3.002  12.805   9.954  0.0172  0.1733  0.0833
  430loPI   C4A 6874   3.037  12.771   9.465 -0.0346 -0.1002 -0.1852
  430loPI   C5A 6875   2.966  12.902   9.062  0.1446 -0.1440 -0.0267
  430loPI   C6A 6876   3.005  13.081   8.636  0.4083  0.1869 -0.1649
  430loPI   C1B 6877   2.901  13.292  10.540 -0.1340  0.1324 -0.0524
  430loPI   C2B 6878   2.962  13.282  10.168 -0.2871 -0.1544  0.3246
  430loPI   C3B 6879   2.987  13.278   9.764  0.1830 -0.0083  0.4549
  430loPI   C4B 6880   3.337  13.552   9.602  0.0564 -0.2878 -0.0851
  431loPI    C1 6881   3.752   2.058  11.664  0.0717 -0.0909  0.1812
  431loPI    C2 6882   3.616   1.730  11.849  0.1528 -0.0283  0.3543
  431loPI    C3 6883   3.659   2.072  12.053  0.1311  0.0734  0.1905
  431loPI   PO4 6884   3.681   2.001  11.442 -0.1875 -0.1335  0.3470
  431loPI   GL1 6885   3.740   2.069  11.002  0.1874 -0.2732 -0.3433
  431loPI   GL2 6886   3.871   1.741  11.036  0.3119  0.2652  0.0490
  431loPI   C1A 6887   3.891   2.025  10.604  0.1009  0.0414  0.1209
  431loPI   C2A 6888   3.866   2.039  10.146 -0.0725  0.3020 -0.2516
  431loPI   C3A 6889   3.971   2.078   9.706 -0.2826  0.0663  0.1975
  431loPI   C4A 6890   3.946   1.876   9.268 -0.2830  0.0754  0.0763
  431loPI   C5A 6891   4.134   2.035   8.927 -0.0358 -0.1765  0.1997
  431loPI   C6A 6892   4.268   2.300   8.491 -0.0957  0.1561 -0.6791
  431loPI   C1B 6893   3.564   1.600  10.773  0.0351  0.0598  0.0997
  431loPI   C2B 6894   3.671   1.640  10.339 -0.1236  0.0214 -0.0550
  431loPI   C3B 6895   3.660   1.614   9.969 -0.0482 -0.0375  0.1471
  431loPI   C4B 6896   3.682   1.575   9.582  0.2044  0.2195  0.2519
  432loPI    C1 6897  13.146   5.481  11.487  0.1083 -0.1203 -0.1666
  432loPI    C2 6898  13.303   5.322  11.819 -0.1288 -0.1625 -0.0731
  432loPI    C3 6899  13.322   5.717  11.759 -0.1051 -0.1521  0.0015
  432loPI   PO4 6900  13.183   5.373  11.283  0.1522 -0.0377  0.2068
  432loPI   GL1 6901  13.145   5.562  10.898  0.0285 -0.1047  0.1125
  432loPI   GL2 6902  13.095   5.288  10.695 -0.0926  0.0589  0.0443
  432loPI   C1A 6903  13.538   5.703  10.662  0.1393  0.1573  0.1343
  432loPI   C2A 6904  13.684   5.623  10.257 -0.3683  0.0725  0.0494
  432loPI   C3A 6905  13.668   5.599   9.838 -0.0199  0.1373 -0.0407
  432loPI   C4A 6906  13.303   5.525   9.532 -0.0076 -0.0371 -0.1889
  432loPI   C5A 6907  13.216   5.421   9.154  0.3581 -0.0430 -0.2527
  432loPI   C6A 6908  13.348   5.263   8.731  0.0945  0.0406  0.0324
  432loPI   C1B 6909  12.856   5.491  10.414 -0.3631  0.1971 -0.0937
  432loPI   C2B 6910  12.745   5.658  10.002  0.0741  0.2143  0.0709
  432loPI   C3B 6911  12.753   5.601   9.512  0.3591 -0.1179  0.0157
  432loPI   C4B 6912  12.706   5.356   9.137  0.2048 -0.1356  0.2135
  433loPI    C1 6913   4.011  10.021  11.716 -0.1184  0.0932  0.2743
  433loPI    C2 6914   3.861  10.385  11.787  0.0028  0.2445 -0.2104
  433loPI    C3 6915   4.256  10.336  11.751 -0.0027  0.0370 -0.0083
  433loPI   PO4 6916   3.836   9.983  11.470 -0.0928  0.1542  0.1663
  433loPI   GL1 6917   3.632  10.085  11.045 -0.0114 -0.3126 -0.0461
  433loPI   GL2 6918   4.029   9.958  10.960  0.0119  0.0670  0.1726
  433loPI   C1A 6919   3.386  10.154  10.729 -0.2059 -0.1561 -0.0738
  433loPI   C2A 6920   3.303  10.190  10.311 -0.1255  0.3996 -0.1720
  433loPI   C3A 6921   3.272  10.257   9.900  0.1913  0.1568  0.0112
  433loPI   C4A 6922   3.237  10.275   9.453 -0.1196 -0.1943 -0.0880
  433loPI   C5A 6923   3.224  10.198   9.019 -0.4805 -0.0793 -0.0609
  433loPI   C6A 6924   3.436  10.330   8.691 -0.2919  0.3160  0.0350
  433loPI   C1B 6925   3.827  10.071  10.536 -0.0750  0.0999 -0.2584
  433loPI   C2B 6926   3.730   9.945  10.024  0.1397 -0.0822  0.1020
  433loPI   C3B 6927   3.740  10.068   9.578 -0.0509  0.0479 -0.0372
  433loPI   C4B 6928   3.631   9.983   9.165  0.4382 -0.2065 -0.2281
  434loPI    C1 6929  10.194   6.581  11.309  0.1598  0.1729 -0.1649
  434loPI    C2 6930  10.218   6.952  11.456 -0.0103  0.0148  0.2796
  434loPI    C3 6931  10.419   6.654  11.632 -0.0120 -0.1363  0.0301
  434loPI   PO4 6932  10.299   6.611  11.082  0.3465  0.2035  0.0531
  434loPI   GL1 6933  10.290   6.696  10.655  0.0837  0.0529 -0.0114
  434loPI   GL2 6934  10.329   6.277  10.532  0.1733 -0.3637  0.1194
  434loPI   C1A 6935  10.310   6.699  10.199  0.0975 -0.1173  0.1136
  434loPI   C2A 6936  10.356   6.808   9.791  0.3122 -0.1058  0.0805
  434loPI   C3A 6937  10.400   6.781   9.417 -0.1744 -0.0711  0.0425
  434loPI   C4A 6938  10.249   6.822   8.969 -0.3034  0.0097  0.1239
  434loPI   C5A 6939   9.966   6.943   8.723  0.2442 -0.0683 -0.2715
  434loPI   C6A 6940   9.720   6.963   8.320  0.1213  0.2505  0.0702
  434loPI   C1B 6941  10.251   6.157  10.201 -0.1035  0.1087  0.2552
  434loPI   C2B 6942  10.288   5.992   9.773 -0.1558  0.2145 -0.0685
  434loPI   C3B 6943  10.500   5.866   9.366 -0.0768 -0.1672 -0.0395
  434loPI   C4B 6944  10.470   5.781   8.841 -0.1617 -0.0396 -0.2952
  435loPI    C1 6945   5.817   2.246  11.544 -0.0143  0.3658  0.1169
  435loPI    C2 6946   5.964   2.017  11.837 -0.0675  0.0304 -0.1128
  435loPI    C3 6947   5.803   2.373  11.923 -0.0437 -0.0440  0.2584
  435loPI   PO4 6948   5.853   2.176  11.291 -0.0586  0.3063  0.0498
  435loPI   GL1 6949   5.850   2.172  10.870 -0.0001  0.0803 -0.2212
  435loPI   GL2 6950   5.510   2.078  10.823  0.1567 -0.0552  0.0674
  435loPI   C1A 6951   5.952   2.153  10.470 -0.0145 -0.1829 -0.3534
  435loPI   C2A 6952   6.052   2.135   9.951 -0.0098  0.0235 -0.1443
  435loPI   C3A 6953   6.076   2.025   9.593 -0.0268  0.1117 -0.3662
  435loPI   C4A 6954   6.166   2.108   9.163  0.0958  0.0491 -0.2237
  435loPI   C5A 6955   6.061   2.471   8.898  0.3698  0.0112  0.1054
  435loPI   C6A 6956   5.895   2.578   8.432 -0.2677  0.1542  0.0465
  435loPI   C1B 6957   5.365   2.126  10.425 -0.0292  0.2446 -0.0126
  435loPI   C2B 6958   5.481   2.070  10.032 -0.0292  0.1315  0.0636
  435loPI   C3B 6959   5.580   2.029   9.574  0.2150  0.0919 -0.1113
  435loPI   C4B 6960   5.705   2.076   9.046  0.0644 -0.2843  0.1156
  436loPI    C1 6961  14.209   4.963  11.594 -0.1068  0.2251 -0.0114
  436loPI    C2 6962  14.486   4.839  11.854 -0.0839  0.1938 -0.0507
  436loPI    C3 6963  14.171   5.049  11.983 -0.0173  0.2711 -0.0127
  436loPI   PO4 6964  14.262   5.003  11.422  0.0344  0.2087 -0.1739
  436loPI   GL1 6965  14.153   4.966  11.012  0.0051 -0.1976  0.1441
  436loPI   GL2 6966  14.271   4.654  11.088 -0.1358 -0.0001  0.2805
  436loPI   C1A 6967  13.839   4.812  10.804  0.1516 -0.0375  0.1805
  436loPI   C2A 6968  13.724   4.776  10.378  0.0551  0.0890 -0.0772
  436loPI   C3A 6969  13.751   4.815   9.933 -0.0507  0.1349  0.1936
  436loPI   C4A 6970  13.838   4.705   9.594  0.2912  0.0041  0.0111
  436loPI   C5A 6971  13.965   4.852   9.057  0.1854  0.4466  0.0324
  436loPI   C6A 6972  14.027   4.793   8.675 -0.1037  0.2026 -0.0665
  436loPI   C1B 6973  14.332   4.665  10.618  0.0160 -0.1846  0.0508
  436loPI   C2B 6974  14.233   4.680  10.220  0.2423  0.1603  0.2647
  436loPI   C3B 6975  14.457   4.773   9.822 -0.2380  0.0117 -0.0063
  436loPI   C4B 6976  14.299   4.705   9.414 -0.2947  0.0335 -0.1777
  437loPI    C1 6977   6.083  15.459  11.484  0.1132 -0.3270  0.0053
  437loPI    C2 6978   5.888  15.284  11.786  0.0192  0.1136  0.2083
  437loPI    C3 6979   5.799  15.660  11.682  0.1522  0.0173 -0.2779
  437loPI   PO4 6980   5.962  15.260  11.252  0.0702 -0.0077  0.4418
  437loPI   GL1 6981   5.937  15.330  10.843 -0.0757 -0.0443  0.4641
  437loPI   GL2 6982   6.090  15.052  10.742  0.0783 -0.2163  0.1131
  437loPI   C1A 6983   5.879  15.511  10.491 -0.1493 -0.2096 -0.0571
  437loPI   C2A 6984   5.744  15.711  10.032 -0.1353  0.1076 -0.0978
  437loPI   C3A 6985   5.933  15.625   9.680 -0.1162  0.0872  0.2979
  437loPI   C4A 6986   5.879  15.688   9.136 -0.1649 -0.2112 -0.2095
  437loPI   C5A 6987   6.011  15.664   8.673 -0.0653 -0.2044  0.0775
  437loPI   C6A 6988   6.290  15.436   8.449 -0.1352  0.0233 -0.2478
  437loPI   C1B 6989   5.952  14.926  10.342  0.2578 -0.1283  0.0897
  437loPI   C2B 6990   6.015  14.787   9.911 -0.0661  0.0215  0.1117
  437loPI   C3B 6991   5.909  14.769   9.501  0.0409  0.1316 -0.3733
  437loPI   C4B 6992   5.817  14.678   9.178  0.0368 -0.1700  0.2281
  438loPI    C1 6993   1.162   9.529  11.709 -0.2395  0.1697 -0.0919
  438loPI    C2 6994   1.285   9.553  12.088  0.1940  0.1201 -0.2231
  438loPI    C3 6995   1.002   9.289  11.986 -0.0547  0.2572  0.0926
  438loPI   PO4 6996   1.323   9.519  11.561  0.0488 -0.0825  0.2068
  438loPI   GL1 6997   1.302   9.403  11.154 -0.2174 -0.0139 -0.1333
  438loPI   GL2 6998   1.530   9.553  10.958 -0.3657 -0.2743 -0.0435
  438loPI   C1A 6999   1.155   9.283  10.741 -0.0537 -0.1788 -0.0772
  438loPI   C2A 7000   1.233   9.347  10.298  0.1575  0.0702  0.1634
  438loPI   C3A 7001   1.081   9.293   9.952  0.0184  0.2408  0.0168
  438loPI   C4A 7002   0.993   9.320   9.565 -0.3459  0.0954 -0.1033
  438loPI   C5A 7003   1.006   9.420   9.093 -0.1882  0.1239 -0.3587
  438loPI   C6A 7004   1.402   9.345   8.820  0.2054 -0.1958  0.0205
  438loPI   C1B 7005   1.636   9.620  10.545 -0.0647  0.0127  0.3423
  438loPI   C2B 7006   1.660   9.655  10.149 -0.0585 -0.2615 -0.0803
  438loPI   C3B 7007   1.576   9.648   9.764 -0.1867 -0.1929  0.3038
  438loPI   C4B 7008   1.560   9.599   9.318  0.0572  0.2016 -0.3846
  439loPI    C1 7009  17.457   5.530  11.852 -0.0531  0.3177  0.0441
  439loPI    C2 7010  17.267   5.246  12.060  0.1337 -0.1297 -0.3773
  439loPI    C3 7011  17.212   5.631  12.152 -0.0712 -0.2970  0.2508
  439loPI   PO4 7012  17.326   5.603  11.590  0.1205 -0.0975 -0.0050
  439loPI   GL1 7013  17.257   5.521  11.114 -0.2421 -0.3495  0.0119
  439loPI   GL2 7014  17.568   5.556  11.131  0.1587 -0.0285 -0.3049
  439loPI   C1A 7015  17.309   5.557  10.644  0.1538 -0.1195 -0.2056
  439loPI   C2A 7016  17.334   5.523  10.261 -0.1873  0.1365  0.1891
  439loPI   C3A 7017  17.304   5.591   9.780 -0.1767  0.3188 -0.1714
  439loPI   C4A 7018  17.279   5.512   9.349  0.1003  0.2862  0.1715
  439loPI   C5A 7019  17.458   5.608   8.972 -0.3012 -0.2605 -0.0966
  439loPI   C6A 7020  17.770   5.601   8.606  0.1347 -0.3052  0.3956
  439loPI   C1B 7021  17.635   5.851  10.806 -0.0417 -0.2074  0.1120
  439loPI   C2B 7022  17.543   5.979  10.387 -0.0071 -0.0293 -0.1375
  439loPI   C3B 7023  17.344   6.036  10.052 -0.1884 -0.0836  0.1275
  439loPI   C4B 7024  16.993   6.217   9.896 -0.1110  0.2387 -0.2278
  440loPI    C1 7025   3.068  15.967  11.314 -0.0680 -0.0186 -0.0438
  440loPI    C2 7026   2.695  15.824  11.334 -0.0934  0.0477 -0.0379
  440loPI    C3 7027   2.808  16.122  11.575 -0.0303  0.0141 -0.0257
  440loPI   PO4 7028   3.140  15.992  11.049  0.3223  0.1519 -0.2281
  440loPI   GL1 7029   2.969  16.061  10.663  0.1945  0.0059  0.2449
  440loPI   GL2 7030   2.710  16.050  10.756  0.2350  0.1206 -0.1564
  440loPI   C1A 7031   2.989  16.033  10.238 -0.1104 -0.0364  0.1009
  440loPI   C2A 7032   3.004  16.118   9.840 -0.1370 -0.1936  0.2656
  440loPI   C3A 7033   3.030  16.127   9.382  0.1849 -0.0248  0.1251
  440loPI   C4A 7034   3.038  16.056   8.969 -0.1584 -0.1034 -0.2829
  440loPI   C5A 7035   2.803  15.988   8.548 -0.0052  0.1627  0.0182
  440loPI   C6A 7036   2.645  15.660   8.429 -0.0400  0.0997 -0.1330
  440loPI   C1B 7037   2.505  16.022  10.418 -0.2650 -0.1196  0.1726
  440loPI   C2B 7038   2.485  16.099  10.065  0.2681 -0.0021 -0.0070
  440loPI   C3B 7039   2.408  16.132   9.656 -0.2740  0.1685 -0.0584
  440loPI   C4B 7040   2.552  16.205   9.276  0.2795 -0.1916 -0.1958
  441loPI    C1 7041   0.874  15.530  11.407  0.1445  0.0073  0.0734
  441loPI    C2 7042   1.117  15.215  11.450  0.3652  0.1470 -0.1242
  441loPI    C3 7043   1.144  15.524  11.703  0.3360  0.1268 -0.0963
  441loPI   PO4 7044   0.833  15.554  11.118 -0.2868 -0.0640 -0.1437
  441loPI   GL1 7045   0.909  15.549  10.768  0.3553  0.1897  0.0793
  441loPI   GL2 7046   1.224  15.459  10.817  0.2161 -0.3936 -0.2396
  441loPI   C1A 7047   0.813  15.682  10.358 -0.2654  0.4195  0.0895
  441loPI   C2A 7048   0.623  15.664   9.830  0.1424 -0.1078  0.1450
  441loPI   C3A 7049   0.602  15.671   9.358  0.0516  0.0919  0.0146
  441loPI   C4A 7050   0.681  15.737   8.939 -0.1441  0.1634  0.2387
  441loPI   C5A 7051   0.824  15.803   8.531  0.0039 -0.0745 -0.1680
  441loPI   C6A 7052   0.734  15.847   8.073  0.2153  0.1166 -0.1271
  441loPI   C1B 7053   1.334  15.586  10.360 -0.0097 -0.3452 -0.1500
  441loPI   C2B 7054   1.123  15.737   9.937 -0.0013  0.2266 -0.0585
  441loPI   C3B 7055   1.111  15.648   9.418  0.1853  0.0498 -0.1054
  441loPI   C4B 7056   1.165  15.631   8.913 -0.0571  0.2115 -0.2138
  442loPI    C1 7057   2.874   7.259  11.602  0.1236  0.0861 -0.1055
  442loPI    C2 7058   2.663   7.463  11.873 -0.0399 -0.2292  0.0095
  442loPI    C3 7059   3.056   7.412  11.923 -0.0101 -0.0052  0.0150
  442loPI   PO4 7060   2.838   7.325  11.339 -0.2002  0.0872  0.0504
  442loPI   GL1 7061   3.071   7.459  10.974 -0.2245 -0.0726  0.0070
  442loPI   GL2 7062   3.107   7.220  10.719 -0.2581 -0.3847  0.1316
  442loPI   C1A 7063   3.478   7.600  10.643  0.6775  0.0474 -0.0881
  442loPI   C2A 7064   3.503   7.564  10.190 -0.1334 -0.1962  0.1860
  442loPI   C3A 7065   3.518   7.677   9.688  0.0193  0.1084 -0.1853
  442loPI   C4A 7066   3.438   7.666   9.274 -0.1263  0.1938  0.0434
  442loPI   C5A 7067   3.445   7.733   8.905 -0.1630  0.0005  0.0149
  442loPI   C6A 7068   3.664   7.531   8.564 -0.2052  0.1928 -0.1750
  442loPI   C1B 7069   3.100   7.305  10.273 -0.0071  0.0282 -0.3239
  442loPI   C2B 7070   3.082   7.400   9.767  0.3831 -0.1162 -0.2098
  442loPI   C3B 7071   2.993   7.364   9.393 -0.0087 -0.0319 -0.0589
  442loPI   C4B 7072   2.945   7.474   8.997  0.2243  0.2316  0.0132
  443loPI    C1 7073   8.996   2.034  11.369 -0.1238  0.0113  0.0341
  443loPI    C2 7074   9.287   1.904  11.609 -0.1203  0.0181  0.0336
  443loPI    C3 7075   8.918   1.959  11.754 -0.1780 -0.2157 -0.0197
  443loPI   PO4 7076   8.958   1.889  11.202 -0.0397  0.1867  0.1283
  443loPI   GL1 7077   8.710   1.951  10.877  0.0493 -0.4102 -0.0027
  443loPI   GL2 7078   8.894   2.299  10.824 -0.0653 -0.1117  0.2037
  443loPI   C1A 7079   8.694   1.856  10.500  0.1597 -0.1109 -0.0406
  443loPI   C2A 7080   8.735   1.740  10.028 -0.1135 -0.1376  0.2868
  443loPI   C3A 7081   8.772   1.779   9.638  0.0017 -0.0926  0.1126
  443loPI   C4A 7082   8.746   1.783   9.252  0.0583  0.1148  0.0919
  443loPI   C5A 7083   8.454   1.681   8.831  0.0529 -0.2434  0.2163
  443loPI   C6A 7084   8.610   1.536   8.382  0.0916 -0.3999 -0.2016
  443loPI   C1B 7085   9.048   2.287  10.420  0.0421 -0.0341  0.0577
  443loPI   C2B 7086   9.034   2.223   9.920 -0.0605  0.1321 -0.3851
  443loPI   C3B 7087   8.964   2.231   9.492  0.0648 -0.0076 -0.3160
  443loPI   C4B 7088   9.023   2.137   9.031 -0.1256  0.4249 -0.0136
  444loPI    C1 7089   0.855   7.551  11.545  0.0444  0.1830  0.2073
  444loPI    C2 7090   1.195   7.342  11.563  0.0498  0.1948  0.2433
  444loPI    C3 7091   0.849   7.170  11.667 -0.0114  0.0626 -0.1596
  444loPI   PO4 7092   0.838   7.713  11.373  0.1049  0.1878 -0.0639
  444loPI   GL1 7093   0.690   7.858  10.990  0.0719  0.0035  0.3355
  444loPI   GL2 7094   0.459   7.765  10.781  0.0325  0.2109 -0.0629
  444loPI   C1A 7095   0.828   8.021  10.588 -0.2126 -0.1601 -0.1972
  444loPI   C2A 7096   0.784   8.017  10.147  0.0844  0.2575  0.0175
  444loPI   C3A 7097   0.753   7.994   9.765 -0.0133  0.1268  0.2256
  444loPI   C4A 7098   0.747   8.070   9.363  0.1127 -0.2670  0.1079
  444loPI   C5A 7099   0.674   8.210   8.971 -0.0975 -0.0238 -0.0218
  444loPI   C6A 7100   0.666   8.374   8.471  0.1072 -0.0886  0.0434
  444loPI   C1B 7101   0.388   7.750  10.405  0.2828 -0.1840 -0.0718
  444loPI   C2B 7102   0.369   7.707   9.844  0.1882  0.0793  0.1055
  444loPI   C3B 7103   0.328   7.761   9.395  0.1213 -0.2327 -0.0166
  444loPI   C4B 7104   0.366   7.778   8.997 -0.3823 -0.0449 -0.1767
  445loPI    C1 7105   5.274  11.456  11.399  0.2569  0.1465 -0.2184
  445loPI    C2 7106   5.526  11.158  11.310 -0.1312 -0.2356 -0.0734
  445loPI    C3 7107   5.277  11.124  11.622 -0.2803  0.1853 -0.1396
  445loPI   PO4 7108   5.150  11.531  11.234  0.0117 -0.0285 -0.6539
  445loPI   GL1 7109   5.283  11.678  10.864 -0.3766  0.0479 -0.0231
  445loPI   GL2 7110   4.920  11.454  10.807 -0.2157  0.1253 -0.1498
  445loPI   C1A 7111   5.461  11.675  10.580  0.0605 -0.0015 -0.2822
  445loPI   C2A 7112   5.448  11.636  10.122  0.1341 -0.0534  0.2283
  445loPI   C3A 7113   5.413  11.693   9.767  0.0720 -0.0673  0.0957
  445loPI   C4A 7114   5.433  11.679   9.361  0.1121  0.1045  0.0481
  445loPI   C5A 7115   5.426  11.744   8.910  0.0971  0.1280 -0.0301
  445loPI   C6A 7116   5.290  11.800   8.484  0.1410  0.1514 -0.1743
  445loPI   C1B 7117   5.012  11.515  10.449  0.1812  0.0530 -0.0510
  445loPI   C2B 7118   5.078  11.331  10.026  0.1975 -0.0491  0.1730
  445loPI   C3B 7119   4.962  11.464   9.600 -0.3751 -0.0856 -0.1634
  445loPI   C4B 7120   4.939  11.382   9.131  0.1201 -0.0884 -0.1474
  446loPI    C1 7121  17.559   9.681  11.561 -0.0807  0.1989  0.0053
  446loPI    C2 7122  17.209   9.524  11.674  0.0652  0.0723  0.2910
  446loPI    C3 7123  17.275   9.916  11.717 -0.0831  0.1168  0.1256
  446loPI   PO4 7124  17.552   9.614  11.309  0.2375  0.0004  0.0119
  446loPI   GL1 7125  17.751   9.695  10.877  0.0135 -0.0121  0.1203
  446loPI   GL2 7126  17.417   9.514  10.817  0.2101  0.1174 -0.1202
  446loPI   C1A 7127  17.881   9.732  10.377  0.0694  0.1604  0.0987
  446loPI   C2A 7128  17.848   9.733   9.910  0.2012 -0.2338  0.2582
  446loPI   C3A 7129  17.799   9.828   9.462  0.0827 -0.3039 -0.1937
  446loPI   C4A 7130  17.637   9.878   9.095 -0.0399  0.2050 -0.1192
  446loPI   C5A 7131  17.533  10.216   8.804  0.1886 -0.1345 -0.2320
  446loPI   C6A 7132  17.585  10.489   8.504  0.1011 -0.0256 -0.0766
  446loPI   C1B 7133  17.395   9.492  10.306  0.1445  0.0278  0.3042
  446loPI   C2B 7134  17.387   9.502   9.912 -0.0899  0.5507 -0.1628
  446loPI   C3B 7135  17.358   9.500   9.518 -0.2464  0.1141  0.1928
  446loPI   C4B 7136  17.243   9.415   9.108  0.0163  0.0831 -0.1150
  447loPI    C1 7137  16.199  12.673  11.495  0.1701 -0.2311  0.0415
  447loPI    C2 7138  16.500  12.420  11.570  0.4089  0.0659  0.1056
  447loPI    C3 7139  16.380  12.678  11.851 -0.0438 -0.1837  0.1507
  447loPI   PO4 7140  16.306  12.831  11.280  0.1749 -0.0926  0.1303
  447loPI   GL1 7141  16.537  12.944  10.996 -0.1374  0.0943  0.0685
  447loPI   GL2 7142  16.824  12.800  10.934  0.2219 -0.0434 -0.0984
  447loPI   C1A 7143  16.484  12.825  10.607  0.0879  0.3495  0.2014
  447loPI   C2A 7144  16.605  12.767  10.154 -0.0582  0.0666 -0.1302
  447loPI   C3A 7145  16.701  12.794   9.784 -0.0916  0.1679  0.1164
  447loPI   C4A 7146  16.758  12.758   9.377 -0.1993 -0.3072 -0.1866
  447loPI   C5A 7147  16.778  12.902   9.027 -0.2133 -0.0854 -0.0323
  447loPI   C6A 7148  16.849  13.144   8.521  0.0430  0.5375  0.0219
  447loPI   C1B 7149  16.944  12.933  10.536 -0.1529  0.2699 -0.1052
  447loPI   C2B 7150  17.049  13.096  10.115  0.2214  0.1183 -0.0554
  447loPI   C3B 7151  17.172  13.009   9.663 -0.2101  0.0818 -0.1159
  447loPI   C4B 7152  17.156  13.237   9.252 -0.0125  0.1334 -0.1216
  448loPI    C1 7153   9.856  16.252  11.820  0.2994 -0.0770 -0.1748
  448loPI    C2 7154  10.106  16.064  12.069  0.0269 -0.0326  0.1389
  448loPI    C3 7155   9.710  16.034  12.122 -0.0330  0.0660 -0.2273
  448loPI   PO4 7156   9.966  16.154  11.559 -0.0935 -0.3679  0.4370
  448loPI   GL1 7157   9.996  16.301  11.103 -0.0792  0.0273  0.1014
  448loPI   GL2 7158   9.961  16.013  11.057  0.1224  0.1807  0.1290
  448loPI   C1A 7159  10.122  16.472  10.627  0.1539 -0.0371 -0.2257
  448loPI   C2A 7160  10.193  16.461  10.221 -0.1098  0.1328 -0.0169
  448loPI   C3A 7161  10.182  16.295   9.768 -0.0930 -0.0931 -0.0441
  448loPI   C4A 7162  10.172  16.246   9.370  0.0289 -0.0646  0.0485
  448loPI   C5A 7163  10.491  16.391   9.036 -0.0866 -0.0708  0.1517
  448loPI   C6A 7164  10.625  16.541   8.601  0.1637 -0.0679 -0.0240
  448loPI   C1B 7165   9.961  15.920  10.642 -0.1196  0.0563 -0.0858
  448loPI   C2B 7166  10.016  15.925  10.213  0.1503 -0.3703 -0.1890
  448loPI   C3B 7167   9.962  15.844   9.781  0.1567  0.1550 -0.4706
  448loPI   C4B 7168   9.997  15.812   9.345 -0.1572  0.0777 -0.0311
  449loPI    C1 7169  11.038  17.306  11.667  0.2487 -0.1768 -0.0148
  449loPI    C2 7170  11.126  17.696  11.680  0.0066 -0.1184 -0.0796
  449loPI    C3 7171  11.029  17.502  12.016  0.4477 -0.2021  0.0060
  449loPI   PO4 7172  10.957  17.286  11.428 -0.0624 -0.2157 -0.0001
  449loPI   GL1 7173  11.141  17.375  11.034  0.1324  0.0194 -0.1535
  449loPI   GL2 7174  11.089  17.716  11.223  0.2469  0.1198 -0.0428
  449loPI   C1A 7175  11.125  17.395  10.625 -0.2231 -0.0163  0.0556
  449loPI   C2A 7176  11.216  17.349  10.269  0.3028  0.0481  0.1269
  449loPI   C3A 7177  11.115  17.326   9.771 -0.1757  0.0702  0.0615
  449loPI   C4A 7178  11.175  17.360   9.291  0.2241  0.0232 -0.2266
  449loPI   C5A 7179  11.309  17.409   8.783 -0.0718 -0.4524 -0.1068
  449loPI   C6A 7180  11.668  17.129   8.622 -0.3083  0.0622  0.1466
  449loPI   C1B 7181  10.917  17.811  10.847  0.1965 -0.1016 -0.2466
  449loPI   C2B 7182  10.944  17.784  10.381 -0.1877  0.3957 -0.1008
  449loPI   C3B 7183  10.904  17.763   9.905  0.0003  0.0216 -0.0282
  449loPI   C4B 7184  10.833  17.743   9.436  0.1756 -0.1017  0.1948
  450loPI    C1 7185  15.504  16.423  11.652  0.0798 -0.1251 -0.0236
  450loPI    C2 7186  15.682  16.724  11.847 -0.0470  0.0299 -0.1439
  450loPI    C3 7187  15.491  16.438  12.052  0.0425  0.0505 -0.0306
  450loPI   PO4 7188  15.266  16.567  11.508  0.0049 -0.0581  0.2616
  450loPI   GL1 7189  15.159  16.816  11.197 -0.0418  0.1463  0.3503
  450loPI   GL2 7190  15.066  16.517  11.076 -0.2004 -0.2158  0.1427
  450loPI   C1A 7191  15.006  16.888  10.798  0.0987 -0.1934  0.0759
  450loPI   C2A 7192  15.026  16.912  10.476  0.1789 -0.3595  0.0357
  450loPI   C3A 7193  15.000  16.852  10.077 -0.0659 -0.1604 -0.0341
  450loPI   C4A 7194  15.001  16.872   9.696  0.1340  0.0085  0.2565
  450loPI   C5A 7195  14.939  16.835   9.201  0.1206  0.1323 -0.1575
  450loPI   C6A 7196  14.732  17.001   8.806 -0.0152  0.0351  0.2088
  450loPI   C1B 7197  15.291  16.473  10.675 -0.1241  0.1577  0.2764
  450loPI   C2B 7198  15.260  16.456  10.246  0.0945 -0.2527 -0.0890
  450loPI   C3B 7199  15.227  16.457   9.869 -0.1366  0.2541  0.1460
  450loPI   C4B 7200  15.136  16.459   9.397  0.0777 -0.1639 -0.0499
  451loPI    C1 7201  13.202   1.644  11.967  0.0051 -0.2621  0.1386
  451loPI    C2 7202  13.046   1.996  12.075 -0.2514 -0.3099 -0.0658
  451loPI    C3 7203  13.440   1.933  12.108 -0.1832  0.0444 -0.1560
  451loPI   PO4 7204  13.048   1.625  11.708  0.1979 -0.1614  0.2973
  451loPI   GL1 7205  13.049   1.754  11.363 -0.0619 -0.0207 -0.0311
  451loPI   GL2 7206  13.148   1.511  11.239 -0.0440  0.1174  0.0543
  451loPI   C1A 7207  12.858   1.907  10.985  0.1196  0.3456 -0.1313
  451loPI   C2A 7208  12.848   1.926  10.547 -0.2026  0.1912  0.2941
  451loPI   C3A 7209  12.863   1.883  10.075  0.0677 -0.1939  0.0530
  451loPI   C4A 7210  12.946   1.760   9.695  0.1965 -0.2929  0.0733
  451loPI   C5A 7211  12.934   1.843   9.316  0.0517 -0.2458 -0.1838
  451loPI   C6A 7212  13.096   2.242   9.073 -0.0665  0.0851  0.0762
  451loPI   C1B 7213  13.096   1.486  10.814 -0.0106  0.0400 -0.0107
  451loPI   C2B 7214  13.102   1.361  10.425 -0.2339 -0.2998  0.0393
  451loPI   C3B 7215  13.174   1.359   9.949 -0.3866 -0.2269  0.2375
  451loPI   C4B 7216  13.139   1.345   9.456  0.1969 -0.0013  0.0183
  452loPI    C1 7217   2.728  10.915  11.386  0.2558  0.1386 -0.2563
  452loPI    C2 7218   2.474  10.713  11.619  0.0415  0.2306 -0.4072
  452loPI    C3 7219   2.868  10.679  11.677 -0.0014  0.0244 -0.2228
  452loPI   PO4 7220   2.642  10.850  11.180 -0.1399  0.0495 -0.0811
  452loPI   GL1 7221   2.877  10.879  10.823 -0.1566  0.1069  0.1989
  452loPI   GL2 7222   3.177  10.791  10.800  0.0777  0.1278 -0.0719
  452loPI   C1A 7223   2.894  10.960  10.364  0.2256  0.0013  0.1954
  452loPI   C2A 7224   2.719  10.952   9.992  0.4422 -0.3091 -0.0115
  452loPI   C3A 7225   2.795  11.004   9.528 -0.0123 -0.1383  0.0387
  452loPI   C4A 7226   2.804  11.006   9.051 -0.0897 -0.3630 -0.1466
  452loPI   C5A 7227   2.850  11.100   8.631 -0.3268 -0.0626  0.2429
  452loPI   C6A 7228   2.746  11.254   8.215  0.0911 -0.2962  0.2565
  452loPI   C1B 7229   3.303  10.685  10.431 -0.3008 -0.1125  0.1049
  452loPI   C2B 7230   3.272  10.725  10.073 -0.1535  0.1710 -0.0422
  452loPI   C3B 7231   3.213  10.737   9.600 -0.2467  0.1433  0.3079
  452loPI   C4B 7232   3.214  10.809   9.252 -0.1040  0.1832 -0.0012
  453loPI    C1 7233   4.796   8.432  11.650 -0.0598 -0.4098  0.1390
  453loPI    C2 7234   4.427   8.583  11.684  0.0946 -0.0380  0.2166
  453loPI    C3 7235   4.680   8.600  11.994  0.3784  0.2701 -0.0238
  453loPI   PO4 7236   4.774   8.488  11.380 -0.4058 -0.3728 -0.0551
  453loPI   GL1 7237   4.780   8.492  10.895 -0.0127  0.0117  0.3089
  453loPI   GL2 7238   4.550   8.271  10.855  0.0948  0.1716 -0.1532
  453loPI   C1A 7239   4.918   8.585  10.459 -0.3536  0.0709  0.0950
  453loPI   C2A 7240   4.729   8.519   9.995 -0.2001  0.0182 -0.0152
  453loPI   C3A 7241   4.702   8.501   9.515 -0.3517 -0.1969  0.2532
  453loPI   C4A 7242   4.699   8.620   9.125  0.0878 -0.1076  0.3907
  453loPI   C5A 7243   4.917   8.497   8.718  0.1533 -0.1683  0.2145
  453loPI   C6A 7244   4.971   8.341   8.350 -0.0721  0.0211  0.0065
  453loPI   C1B 7245   4.389   8.245  10.505  0.1869 -0.1598 -0.0082
  453loPI   C2B 7246   4.395   8.146  10.128  0.0591 -0.0004  0.0552
  453loPI   C3B 7247   4.331   8.273   9.770  0.3087 -0.1050  0.2063
  453loPI   C4B 7248   4.289   8.275   9.258 -0.0127 -0.2440  0.1809
  454loPI    C1 7249   0.705   9.928  11.574  0.0825  0.0995  0.1058
  454loPI    C2 7250   0.378   9.905  11.804 -0.0238  0.1543 -0.0385
  454loPI    C3 7251   0.683   9.653  11.863 -0.1510  0.0093  0.0047
  454loPI   PO4 7252   0.646   9.932  11.314 -0.0660 -0.1243  0.0793
  454loPI   GL1 7253   0.802  10.093  10.904 -0.0311 -0.1078 -0.1346
  454loPI   GL2 7254   0.806  10.480  10.755  0.0210 -0.0747  0.1543
  454loPI   C1A 7255   0.631   9.995  10.529 -0.0036 -0.0871 -0.2283
  454loPI   C2A 7256   0.678  10.024  10.102  0.0076  0.1489 -0.0176
  454loPI   C3A 7257   0.584  10.053   9.762  0.1925  0.0335  0.1092
  454loPI   C4A 7258   0.612  10.032   9.286 -0.2525  0.2090  0.0664
  454loPI   C5A 7259   0.760   9.983   8.855  0.1505 -0.2166 -0.3694
  454loPI   C6A 7260   1.114   9.751   8.789  0.0150  0.2243  0.1935
  454loPI   C1B 7261   1.024  10.276  10.484  0.3729  0.0258  0.0690
  454loPI   C2B 7262   1.071  10.339  10.028  0.1664 -0.1110  0.2888
  454loPI   C3B 7263   1.045  10.308   9.618 -0.1430 -0.1518 -0.0558
  454loPI   C4B 7264   0.998  10.376   9.284  0.2279 -0.2143 -0.0928
  455loPI    C1 7265  16.773   1.261  11.649  0.0833 -0.1493 -0.0810
  455loPI    C2 7266  16.490   1.151  11.389 -0.0497 -0.0267  0.0103
  455loPI    C3 7267  16.400   1.193  11.777  0.1063 -0.0370  0.0482
  455loPI   PO4 7268  16.944   1.500  11.587  0.0428  0.0058  0.0645
  455loPI   GL1 7269  16.945   1.671  11.233 -0.1150  0.1415 -0.2851
  455loPI   GL2 7270  16.854   1.409  11.105  0.2652  0.0653  0.0105
  455loPI   C1A 7271  17.036   1.863  10.916 -0.0045  0.1039 -0.2088
  455loPI   C2A 7272  16.906   1.953  10.514  0.2756  0.2502  0.2699
  455loPI   C3A 7273  16.898   1.915  10.125  0.0281  0.1882 -0.1166
  455loPI   C4A 7274  16.920   1.932   9.675 -0.0308 -0.0223 -0.0035
  455loPI   C5A 7275  16.987   1.910   9.266 -0.0078 -0.0276 -0.0901
  455loPI   C6A 7276  17.124   2.112   8.978 -0.0844 -0.0052 -0.0157
  455loPI   C1B 7277  16.747   1.477  10.663  0.0378  0.0749  0.1062
  455loPI   C2B 7278  16.746   1.497  10.319  0.0966  0.1888 -0.1451
  455loPI   C3B 7279  16.686   1.442   9.883 -0.1027 -0.1834 -0.1040
  455loPI   C4B 7280  16.752   1.495   9.497  0.1961 -0.1330  0.1252
  456loPI    C1 7281   3.524   5.204  11.640  0.1566  0.0061  0.0255
  456loPI    C2 7282   3.365   5.423  11.934  0.0135  0.0977 -0.1185
  456loPI    C3 7283   3.350   5.024  11.952 -0.1345  0.1045 -0.0766
  456loPI   PO4 7284   3.642   5.482  11.486 -0.0167  0.1324 -0.0702
  456loPI   GL1 7285   3.579   5.658  11.175 -0.2813 -0.0664  0.3094
  456loPI   GL2 7286   3.865   5.817  11.124 -0.1489 -0.1779 -0.1960
  456loPI   C1A 7287   3.611   5.541  10.813  0.0195  0.0112 -0.1508
  456loPI   C2A 7288   3.648   5.560  10.465 -0.0106 -0.3177 -0.1001
  456loPI   C3A 7289   3.710   5.542  10.026  0.1008  0.1320  0.0513
  456loPI   C4A 7290   3.628   5.649   9.591  0.1531  0.1043 -0.1257
  456loPI   C5A 7291   3.661   5.640   9.159  0.0445  0.0818 -0.3341
  456loPI   C6A 7292   3.643   5.624   8.696  0.1635  0.3454  0.0989
  456loPI   C1B 7293   4.026   5.829  10.707 -0.0347 -0.0156 -0.0930
  456loPI   C2B 7294   4.042   5.876  10.253 -0.3354 -0.0366 -0.2067
  456loPI   C3B 7295   4.045   5.880   9.765 -0.1399 -0.2672  0.1282
  456loPI   C4B 7296   4.056   5.925   9.252  0.2138 -0.1762 -0.1722
  457loPI    C1 7297   3.857   3.046  11.613  0.2866 -0.0466  0.1450
  457loPI    C2 7298   3.585   2.989  11.900 -0.1473 -0.2498 -0.2911
  457loPI    C3 7299   3.961   2.861  11.952 -0.1020  0.0996  0.3500
  457loPI   PO4 7300   3.719   2.911  11.381 -0.2531 -0.0286 -0.0749
  457loPI   GL1 7301   3.917   2.838  10.963 -0.3218  0.1826 -0.0422
  457loPI   GL2 7302   3.722   2.565  10.771  0.2941  0.1037  0.2466
  457loPI   C1A 7303   3.903   2.919  10.486 -0.0966  0.1248  0.1122
  457loPI   C2A 7304   3.888   2.973  10.061 -0.0100 -0.1149 -0.3848
  457loPI   C3A 7305   3.886   3.023   9.659 -0.2083 -0.2326  0.1966
  457loPI   C4A 7306   3.976   3.014   9.292  0.0496  0.0266  0.2398
  457loPI   C5A 7307   4.205   3.155   8.960 -0.0106  0.0177 -0.2157
  457loPI   C6A 7308   4.690   3.310   8.926  0.0007  0.3450 -0.0230
  457loPI   C1B 7309   3.679   2.507  10.274  0.1980 -0.0055 -0.2293
  457loPI   C2B 7310   3.683   2.435   9.934  0.2140 -0.1882  0.0041
  457loPI   C3B 7311   3.718   2.471   9.380 -0.0439  0.1932 -0.1750
  457loPI   C4B 7312   3.994   2.493   8.989  0.0087  0.0252 -0.0570
  458loPI    C1 7313  11.095   6.544  11.206  0.1056  0.1555 -0.1490
  458loPI    C2 7314  11.262   6.306  11.481  0.1073  0.2838 -0.0382
  458loPI    C3 7315  11.366   6.692  11.461  0.0214  0.3018 -0.1436
  458loPI   PO4 7316  11.184   6.399  10.994 -0.0267  0.0758  0.0092
  458loPI   GL1 7317  11.149   6.587  10.608 -0.0050 -0.3714  0.2282
  458loPI   GL2 7318  11.225   6.923  10.539  0.0114 -0.1645 -0.1887
  458loPI   C1A 7319  11.270   6.422  10.276  0.0205 -0.1127  0.0197
  458loPI   C2A 7320  11.304   6.197   9.887  0.2706 -0.1052 -0.0920
  458loPI   C3A 7321  11.315   6.324   9.454 -0.0696 -0.2008  0.0611
  458loPI   C4A 7322  11.357   6.377   9.020 -0.3706  0.1097 -0.1080
  458loPI   C5A 7323  11.528   6.524   8.559  0.3301 -0.0232  0.0874
  458loPI   C6A 7324  11.774   6.360   8.277 -0.1615 -0.2128  0.0596
  458loPI   C1B 7325  11.251   6.876  10.085 -0.0647  0.3215 -0.0641
  458loPI   C2B 7326  11.233   6.735   9.659  0.3209  0.4711  0.0512
  458loPI   C3B 7327  11.261   6.805   9.198  0.1459  0.1580  0.0338
  458loPI   C4B 7328  11.295   6.894   8.740  0.3369 -0.2946 -0.3459
  459loPI    C1 7329  14.627   9.735  11.462  0.1523 -0.0668  0.0701
  459loPI    C2 7330  14.932   9.932  11.630  0.0505  0.1451  0.0106
  459loPI    C3 7331  14.668   9.738  11.859  0.0568  0.2184  0.0802
  459loPI   PO4 7332  14.532   9.850  11.228 -0.2297  0.1169 -0.0774
  459loPI   GL1 7333  14.537   9.668  10.726  0.0828  0.3315 -0.0811
  459loPI   GL2 7334  14.243   9.910  10.780  0.1624  0.1701  0.0379
  459loPI   C1A 7335  14.596   9.722  10.332 -0.0865  0.1377 -0.0805
  459loPI   C2A 7336  14.658   9.742   9.855  0.2526 -0.1535 -0.3618
  459loPI   C3A 7337  14.652   9.595   9.414  0.0410  0.1112  0.1102
  459loPI   C4A 7338  14.656   9.592   8.989 -0.1085 -0.1229  0.0030
  459loPI   C5A 7339  14.923   9.767   8.728 -0.2750  0.2278 -0.1827
  459loPI   C6A 7340  15.029  10.203   8.386  0.2825  0.2972 -0.2189
  459loPI   C1B 7341  14.068   9.951  10.327 -0.4409  0.1472  0.2880
  459loPI   C2B 7342  14.185   9.884   9.911 -0.3833 -0.2930  0.1865
  459loPI   C3B 7343  14.242   9.922   9.489  0.0346  0.0506 -0.2447
  459loPI   C4B 7344  14.221   9.895   9.093  0.0451 -0.1240 -0.0755
  460loPI    C1 7345   2.314   9.860  11.371 -0.0889 -0.1004  0.0240
  460loPI    C2 7346   2.373   9.489  11.232 -0.6525 -0.1596 -0.0797
  460loPI    C3 7347   2.310   9.548  11.622  0.1375 -0.0822  0.0528
  460loPI   PO4 7348   2.137   9.973  11.200 -0.3992 -0.1869  0.0847
  460loPI   GL1 7349   2.095  10.204  10.723 -0.1923  0.1865 -0.0716
  460loPI   GL2 7350   2.023  10.431  10.611  0.2046 -0.0114  0.0691
  460loPI   C1A 7351   2.460  10.160  10.452  0.0281  0.0872  0.0602
  460loPI   C2A 7352   2.490  10.120   9.982 -0.1749 -0.1991  0.4257
  460loPI   C3A 7353   2.319  10.256   9.624 -0.1275 -0.2795 -0.0396
  460loPI   C4A 7354   2.356  10.157   9.159  0.0178 -0.0938  0.0273
  460loPI   C5A 7355   2.277   9.962   8.669 -0.2656 -0.1016 -0.2082
  460loPI   C6A 7356   2.252   9.495   8.660  0.1485 -0.3599  0.0956
  460loPI   C1B 7357   1.960  10.336  10.165  0.2562  0.2491  0.1951
  460loPI   C2B 7358   1.849  10.440   9.698 -0.0739 -0.2354 -0.1382
  460loPI   C3B 7359   1.903  10.430   9.297 -0.0041  0.0942  0.0119
  460loPI   C4B 7360   1.883  10.246   8.814  0.0349 -0.0185 -0.0498
  461loPI    C1 7361   6.483   6.474  11.515  0.2274 -0.0613  0.0624
  461loPI    C2 7362   6.130   6.575  11.673  0.1957  0.0125 -0.0547
  461loPI    C3 7363   6.417   6.425  11.907  0.2089  0.2799  0.1047
  461loPI   PO4 7364   6.358   6.508  11.250 -0.2120 -0.1710  0.1384
  461loPI   GL1 7365   6.349   6.377  10.928 -0.0108 -0.1781  0.3456
  461loPI   GL2 7366   6.643   6.546  10.755  0.2683  0.1344  0.0804
  461loPI   C1A 7367   6.277   6.215  10.585 -0.1165 -0.3527 -0.2843
  461loPI   C2A 7368   6.325   6.287  10.130 -0.3037  0.1332 -0.0235
  461loPI   C3A 7369   6.352   6.191   9.713 -0.0112 -0.0865 -0.0854
  461loPI   C4A 7370   6.126   6.271   9.380  0.0519  0.2125  0.3145
  461loPI   C5A 7371   5.888   6.133   9.023  0.1982  0.0220  0.0606
  461loPI   C6A 7372   5.864   6.015   8.632 -0.1738  0.2748 -0.2896
  461loPI   C1B 7373   6.715   6.617  10.393  0.2985  0.4189  0.0083
  461loPI   C2B 7374   6.681   6.601   9.984 -0.1773  0.0874 -0.0881
  461loPI   C3B 7375   6.603   6.632   9.546 -0.0481  0.0364 -0.1729
  461loPI   C4B 7376   6.604   6.410   9.128  0.1884  0.1931  0.0843
  462loPI    C1 7377  15.629   1.688  11.948 -0.1280  0.2500  0.1275
  462loPI    C2 7378  15.765   2.004  12.151  0.1449  0.3489 -0.2000
  462loPI    C3 7379  15.990   1.675  12.121 -0.0834  0.1681  0.0290
  462loPI   PO4 7380  15.541   1.765  11.730 -0.3064  0.3960 -0.1288
  462loPI   GL1 7381  15.670   1.815  11.450 -0.0542  0.1178 -0.0613
  462loPI   GL2 7382  15.538   2.022  11.139 -0.1635  0.3836 -0.1126
  462loPI   C1A 7383  15.756   1.576  11.140  0.3381  0.0721 -0.0073
  462loPI   C2A 7384  15.746   1.568  10.682 -0.2016 -0.0136  0.3159
  462loPI   C3A 7385  15.717   1.456  10.254  0.1278 -0.0211  0.0005
  462loPI   C4A 7386  15.706   1.393   9.777  0.0284  0.3348 -0.0570
  462loPI   C5A 7387  15.812   1.385   9.358  0.1224  0.1655  0.0369
  462loPI   C6A 7388  15.692   1.174   8.932 -0.3145 -0.2341  0.0144
  462loPI   C1B 7389  15.439   2.000  10.808 -0.0972  0.3024 -0.1175
  462loPI   C2B 7390  15.399   1.944  10.404  0.0391  0.1744  0.0295
  462loPI   C3B 7391  15.410   1.891   9.900 -0.2971  0.1476 -0.1932
  462loPI   C4B 7392  15.533   1.783   9.467  0.3437 -0.0779  0.1789
  463loPI    C1 7393  12.491   6.849  11.449 -0.0286  0.2509  0.0538
  463loPI    C2 7394  12.487   7.002  11.819 -0.0896 -0.0658  0.1875
  463loPI    C3 7395  12.345   6.634  11.753 -0.2393  0.0530 -0.1826
  463loPI   PO4 7396  12.517   7.099  11.318 -0.2218  0.0563 -0.0865
  463loPI   GL1 7397  12.755   7.129  10.906 -0.1636  0.1098 -0.0229
  463loPI   GL2 7398  12.941   7.337  10.760  0.3550 -0.0614 -0.1758
  463loPI   C1A 7399  12.710   7.181  10.372 -0.0535  0.2091 -0.0255
  463loPI   C2A 7400  12.610   7.293  10.038 -0.0188 -0.2241 -0.1934
  463loPI   C3A 7401  12.559   7.239   9.602 -0.0316  0.1708  0.0461
  463loPI   C4A 7402  12.604   7.133   9.203 -0.0419 -0.1046  0.0677
  463loPI   C5A 7403  12.808   6.977   8.863 -0.0896  0.1022  0.0536
  463loPI   C6A 7404  12.701   6.559   8.624 -0.1062 -0.1833  0.0559
  463loPI   C1B 7405  12.702   7.656  10.475 -0.0669 -0.1782  0.0751
  463loPI   C2B 7406  12.510   7.768  10.094 -0.0220 -0.1206 -0.2269
  463loPI   C3B 7407  12.650   7.697   9.717 -0.0796  0.0137 -0.0600
  463loPI   C4B 7408  12.495   7.678   9.347 -0.0929  0.0160  0.0452
  464loPI    C1 7409   4.658   4.647  11.354 -0.0361  0.0443  0.3115
  464loPI    C2 7410   4.513   4.589  11.722 -0.0159  0.2084  0.3461
  464loPI    C3 7411   4.263   4.620  11.411 -0.0418  0.2374  0.3696
  464loPI   PO4 7412   4.900   4.671  11.385  0.3831  0.0186  0.3675
  464loPI   GL1 7413   5.247   4.847  10.976  0.2147 -0.1215  0.3515
  464loPI   GL2 7414   4.913   4.843  10.888  0.0887  0.3527  0.4210
  464loPI   C1A 7415   5.424   4.897  10.579 -0.1213  0.0034 -0.1976
  464loPI   C2A 7416   5.451   4.808  10.213 -0.3587  0.0458  0.0288
  464loPI   C3A 7417   5.417   4.750   9.776 -0.0699 -0.3913 -0.0037
  464loPI   C4A 7418   5.414   4.738   9.318  0.1295 -0.0857 -0.0730
  464loPI   C5A 7419   5.470   4.705   8.867 -0.2290 -0.2307  0.1117
  464loPI   C6A 7420   5.204   4.542   8.473 -0.0538 -0.1660 -0.0380
  464loPI   C1B 7421   4.953   4.770  10.469 -0.1620 -0.3437  0.4703
  464loPI   C2B 7422   4.972   4.819   9.959  0.1190  0.1976  0.0617
  464loPI   C3B 7423   4.949   4.710   9.518  0.0213  0.0220  0.0919
  464loPI   C4B 7424   4.956   4.655   9.070  0.0800 -0.2527  0.2796
  465loPI    C1 7425   1.595   2.061  11.735 -0.3300 -0.3851 -0.2212
  465loPI    C2 7426   1.427   1.853  12.033 -0.1198 -0.1631  0.0571
  465loPI    C3 7427   1.796   1.762  11.909 -0.1470 -0.1544 -0.0310
  465loPI   PO4 7428   1.405   2.084  11.576 -0.0799  0.0227  0.1218
  465loPI   GL1 7429   1.362   1.980  11.102 -0.1164 -0.1010 -0.1226
  465loPI   GL2 7430   1.535   1.715  11.130 -0.1131  0.1352 -0.0076
  465loPI   C1A 7431   1.277   2.100  10.728  0.1109 -0.0903  0.1160
  465loPI   C2A 7432   1.298   2.006  10.296 -0.2361  0.0772  0.1082
  465loPI   C3A 7433   1.371   2.021   9.828 -0.0490 -0.2049  0.5164
  465loPI   C4A 7434   1.320   2.034   9.437 -0.0423  0.0298 -0.1332
  465loPI   C5A 7435   1.445   2.095   9.020  0.4870  0.0205  0.2547
  465loPI   C6A 7436   1.355   2.342   8.712  0.0718  0.1815  0.0583
  465loPI   C1B 7437   1.633   1.556  10.767  0.0114  0.0708  0.2412
  465loPI   C2B 7438   1.585   1.554  10.283  0.0709  0.1437 -0.1552
  465loPI   C3B 7439   1.534   1.584   9.937  0.1821 -0.0450 -0.0630
  465loPI   C4B 7440   1.599   1.575   9.441  0.1740 -0.1091 -0.0190
  466loPI    C1 7441   6.483   3.379  11.540 -0.1896  0.0789  0.1225
  466loPI    C2 7442   6.272   3.610  11.790 -0.0398  0.0641  0.2644
  466loPI    C3 7443   6.670   3.650  11.768 -0.0371 -0.0302  0.1288
  466loPI   PO4 7444   6.391   3.447  11.329  0.1164  0.0642  0.0451
  466loPI   GL1 7445   6.614   3.436  10.968 -0.0269  0.1400 -0.1288
  466loPI   GL2 7446   6.566   3.086  11.035  0.1694  0.2771 -0.1529
  466loPI   C1A 7447   6.718   3.539  10.565  0.2185 -0.1314 -0.2549
  466loPI   C2A 7448   6.738   3.469  10.129 -0.0147  0.2225  0.1660
  466loPI   C3A 7449   6.782   3.487   9.727  0.0054 -0.1648 -0.1424
  466loPI   C4A 7450   6.829   3.449   9.296 -0.1727 -0.2157  0.0256
  466loPI   C5A 7451   6.756   3.380   8.951 -0.3783  0.2117  0.3638
  466loPI   C6A 7452   6.845   3.057   8.634 -0.0474 -0.1125  0.0106
  466loPI   C1B 7453   6.415   3.116  10.568 -0.3464  0.2137 -0.1157
  466loPI   C2B 7454   6.490   3.062  10.183  0.2485  0.1163 -0.1047
  466loPI   C3B 7455   6.572   3.030   9.709  0.1520  0.0980 -0.2077
  466loPI   C4B 7456   6.577   2.959   9.273 -0.1660  0.1337 -0.0531
  467loPI    C1 7457   5.058   1.563  11.683  0.2880  0.1301 -0.1337
  467loPI    C2 7458   5.018   1.902  11.892 -0.2295 -0.1058  0.1671
  467loPI    C3 7459   5.175   1.577  12.065 -0.0074 -0.1060 -0.0306
  467loPI   PO4 7460   5.148   1.621  11.484 -0.1449 -0.4295 -0.0848
  467loPI   GL1 7461   5.075   1.461  11.071 -0.1888  0.1830 -0.1136
  467loPI   GL2 7462   5.257   1.666  11.050  0.0448 -0.1740  0.0369
  467loPI   C1A 7463   4.994   1.236  10.764 -0.1426 -0.2943  0.2082
  467loPI   C2A 7464   4.910   1.226  10.348 -0.2530  0.0545 -0.1269
  467loPI   C3A 7465   5.016   1.111   9.846  0.1949  0.0116  0.0393
  467loPI   C4A 7466   5.084   1.121   9.405  0.1632  0.1746 -0.1349
  467loPI   C5A 7467   5.179   1.033   8.942 -0.2113 -0.1374 -0.2337
  467loPI   C6A 7468   5.157   0.902   8.611  0.4360  0.0753 -0.0122
  467loPI   C1B 7469   5.176   1.684  10.541 -0.0859 -0.1203 -0.0959
  467loPI   C2B 7470   5.237   1.650  10.191  0.3344 -0.2521 -0.1385
  467loPI   C3B 7471   5.207   1.659   9.700 -0.1723 -0.0312 -0.1757
  467loPI   C4B 7472   5.304   1.702   9.257 -0.0204  0.5743  0.2527
  468loPI    C1 7473  10.117   5.106  11.499 -0.1519  0.0712  0.0061
  468loPI    C2 7474  10.269   5.419  11.696 -0.0264 -0.0328  0.0758
  468loPI    C3 7475   9.917   5.265  11.806 -0.0596  0.0457  0.0797
  468loPI   PO4 7476  10.067   5.140  11.248  0.1339  0.2822 -0.2198
  468loPI   GL1 7477   9.873   5.011  10.899 -0.1390 -0.0032  0.0796
  468loPI   GL2 7478  10.193   4.779  10.868  0.1247 -0.0615  0.2520
  468loPI   C1A 7479   9.959   5.019  10.404  0.0764 -0.1070  0.4765
  468loPI   C2A 7480  10.022   5.117   9.880 -0.0825  0.1135  0.0617
  468loPI   C3A 7481  10.005   5.056   9.399  0.0636 -0.2395 -0.0300
  468loPI   C4A 7482   9.812   5.233   9.030 -0.3520  0.2199 -0.1470
  468loPI   C5A 7483   9.960   5.562   8.765  0.1357  0.1936 -0.1784
  468loPI   C6A 7484  10.092   5.849   8.526  0.3561 -0.4091  0.4185
  468loPI   C1B 7485  10.280   4.581  10.517  0.1337 -0.1121 -0.3278
  468loPI   C2B 7486  10.248   4.625  10.045 -0.1113 -0.0484  0.2793
  468loPI   C3B 7487  10.243   4.476   9.631 -0.4085 -0.1636  0.0960
  468loPI   C4B 7488  10.244   4.384   9.170  0.0436 -0.2115  0.2123
  469loPI    C1 7489   6.387   8.948  11.514  0.0512 -0.1898  0.1377
  469loPI    C2 7490   6.665   8.895  11.797  0.1039  0.3301  0.1917
  469loPI    C3 7491   6.304   9.037  11.895 -0.1384 -0.2012  0.0998
  469loPI   PO4 7492   6.434   8.765  11.365  0.2449  0.1901 -0.1157
  469loPI   GL1 7493   6.347   8.762  10.900  0.1818  0.2050 -0.0966
  469loPI   GL2 7494   6.732   8.643  11.000 -0.0948  0.1790 -0.1992
  469loPI   C1A 7495   6.130   8.828  10.494  0.0156  0.0618 -0.1752
  469loPI   C2A 7496   6.191   8.846  10.093  0.0295 -0.1548 -0.2027
  469loPI   C3A 7497   6.082   8.942   9.660  0.0065 -0.1517  0.1898
  469loPI   C4A 7498   6.049   8.989   9.220  0.1429  0.1544  0.0960
  469loPI   C5A 7499   6.104   8.968   8.720  0.1294  0.3852 -0.0712
  469loPI   C6A 7500   6.407   9.060   8.485  0.0506 -0.1175 -0.1048
  469loPI   C1B 7501   6.605   8.580  10.547  0.0075 -0.1825 -0.0979
  469loPI   C2B 7502   6.605   8.591  10.165 -0.2278 -0.1542  0.0150
  469loPI   C3B 7503   6.577   8.628   9.780  0.0625  0.3471  0.0793
  469loPI   C4B 7504   6.527   8.546   9.375 -0.0080 -0.0305  0.1074
  470loPI    C1 7505  12.037   1.039  11.993  0.2972 -0.1940 -0.0794
  470loPI    C2 7506  12.425   1.069  11.902  0.3096  0.0857  0.0554
  470loPI    C3 7507  12.253   1.343  12.137  0.0154 -0.0030 -0.0520
  470loPI   PO4 7508  11.965   0.972  11.721  0.0299 -0.0209  0.2771
  470loPI   GL1 7509  12.001   0.907  11.330  0.1531 -0.2084  0.0815
  470loPI   GL2 7510  11.782   0.634  11.193  0.1846 -0.0839 -0.3290
  470loPI   C1A 7511  11.942   0.971  10.910 -0.1824 -0.1951 -0.0745
  470loPI   C2A 7512  11.902   0.949  10.481  0.0549 -0.3170 -0.2634
  470loPI   C3A 7513  11.911   0.943  10.082 -0.0119  0.1397  0.2069
  470loPI   C4A 7514  11.831   0.974   9.667 -0.3042 -0.0608  0.0927
  470loPI   C5A 7515  11.846   0.763   9.186  0.1395 -0.0304 -0.3373
  470loPI   C6A 7516  11.892   0.383   8.984 -0.2151 -0.1034  0.0668
  470loPI   C1B 7517  11.702   0.508  10.751  0.0299 -0.2998 -0.1188
  470loPI   C2B 7518  11.663   0.448  10.393  0.0831 -0.4974 -0.1873
  470loPI   C3B 7519  11.626   0.506   9.992 -0.2422  0.2355  0.1765
  470loPI   C4B 7520  11.601   0.538   9.564  0.0109  0.0552  0.0330
  471loPI    C1 7521  15.503  11.841  11.262  0.0368  0.0125  0.2132
  471loPI    C2 7522  15.111  11.822  11.188  0.0079  0.2114  0.3071
  471loPI    C3 7523  15.242  11.859  11.564  0.1199  0.0848  0.2815
  471loPI   PO4 7524  15.571  12.042  11.107 -0.0301 -0.1771  0.1425
  471loPI   GL1 7525  15.398  12.302  10.702  0.2536  0.1235 -0.1468
  471loPI   GL2 7526  15.327  11.855  10.703  0.1751 -0.1360  0.0610
  471loPI   C1A 7527  15.316  12.378  10.325 -0.1106 -0.3455 -0.0552
  471loPI   C2A 7528  15.274  12.380   9.887 -0.2210 -0.0972 -0.1325
  471loPI   C3A 7529  15.310  12.371   9.396 -0.0111  0.0926 -0.1197
  471loPI   C4A 7530  15.174  12.366   8.954  0.0900  0.0188  0.2792
  471loPI   C5A 7531  14.872  12.597   8.772  0.1226 -0.2340 -0.1975
  471loPI   C6A 7532  14.599  12.569   8.438 -0.1464  0.1390 -0.3096
  471loPI   C1B 7533  15.319  11.843  10.234 -0.0688 -0.2368  0.1111
  471loPI   C2B 7534  15.328  11.905   9.821  0.0535 -0.1385 -0.2461
  471loPI   C3B 7535  15.349  11.783   9.408  0.1853 -0.2279 -0.2294
  471loPI   C4B 7536  15.332  11.927   8.986  0.2143 -0.0251 -0.1425
  472loPI    C1 7537   2.845  17.405  11.386 -0.1256 -0.1139 -0.1388
  472loPI    C2 7538   2.603  17.535  11.677  0.0814 -0.0710  0.0167
  472loPI    C3 7539   2.548  17.171  11.519 -0.0163 -0.1048  0.1269
  472loPI   PO4 7540   2.836  17.537  11.195  0.2996  0.2369  0.1493
  472loPI   GL1 7541   2.754  17.487  10.697 -0.1891  0.4417 -0.2222
  472loPI   GL2 7542   2.608  17.734  10.779  0.2638  0.0811 -0.1497
  472loPI   C1A 7543   2.703  17.507  10.290  0.0980  0.0972  0.1804
  472loPI   C2A 7544   2.672  17.538   9.828 -0.0548 -0.0111  0.1457
  472loPI   C3A 7545   2.777  17.485   9.461 -0.2266 -0.0677 -0.0329
  472loPI   C4A 7546   2.761  17.442   9.074 -0.1557  0.2216 -0.2309
  472loPI   C5A 7547   2.543  17.590   8.656 -0.0622 -0.0505  0.0598
  472loPI   C6A 7548   2.452  17.916   8.530  0.0003 -0.2240  0.0913
  472loPI   C1B 7549   2.427  17.911  10.430 -0.2910 -0.4951 -0.1565
  472loPI   C2B 7550   2.344  17.975  10.007  0.2558  0.0551  0.1252
  472loPI   C3B 7551   2.513  17.932   9.622  0.0122 -0.1534  0.0243
  472loPI   C4B 7552   2.484  17.904   9.193  0.0631  0.1814  0.1539
  473loPI    C1 7553   2.929   9.802  11.648  0.1704  0.2048  0.0043
  473loPI    C2 7554   2.726   9.578  11.909 -0.0247  0.0809 -0.2492
  473loPI    C3 7555   3.103   9.684  11.988  0.0306 -0.2353 -0.0703
  473loPI   PO4 7556   2.839   9.691  11.449  0.3782  0.0263  0.0007
  473loPI   GL1 7557   3.026   9.856  11.045 -0.1460 -0.0253  0.1636
  473loPI   GL2 7558   2.916   9.593  10.960 -0.3629 -0.1692  0.1742
  473loPI   C1A 7559   3.005   9.926  10.604 -0.0704 -0.1682  0.0523
  473loPI   C2A 7560   2.949   9.878  10.172 -0.0721 -0.1672 -0.0965
  473loPI   C3A 7561   2.903   9.973   9.741  0.0318 -0.2180 -0.0028
  473loPI   C4A 7562   2.869   9.975   9.286  0.2679  0.1045  0.3019
  473loPI   C5A 7563   2.604   9.705   9.018 -0.0168 -0.0831  0.0600
  473loPI   C6A 7564   2.546   9.171   9.000 -0.1288 -0.2049  0.0514
  473loPI   C1B 7565   2.962   9.422  10.548  0.0458 -0.1957 -0.2553
  473loPI   C2B 7566   3.045   9.332  10.071  0.0989  0.2469 -0.2225
  473loPI   C3B 7567   2.908   9.456   9.691 -0.4040 -0.1144 -0.2263
  473loPI   C4B 7568   2.900   9.422   9.287  0.3440  0.1730 -0.1035
  474loPI    C1 7569   4.734   1.189  11.691  0.3005  0.1349  0.0176
  474loPI    C2 7570   4.411   1.404  11.789  0.1874 -0.0565  0.0690
  474loPI    C3 7571   4.722   1.386  12.039  0.3423  0.3283 -0.0890
  474loPI   PO4 7572   4.744   1.290  11.407 -0.0981 -0.4256  0.0665
  474loPI   GL1 7573   4.609   1.647  11.137  0.0594  0.1547  0.0792
  474loPI   GL2 7574   4.285   1.475  11.272  0.0140  0.0378 -0.1157
  474loPI   C1A 7575   4.782   1.686  10.799  0.1624  0.1233 -0.0757
  474loPI   C2A 7576   4.649   1.611  10.465 -0.0793 -0.1295 -0.1564
  474loPI   C3A 7577   4.759   1.593   9.988 -0.3436  0.0236 -0.1517
  474loPI   C4A 7578   4.800   1.567   9.497  0.1209  0.0370 -0.0460
  474loPI   C5A 7579   4.676   1.499   9.022  0.0405 -0.1622 -0.3495
  474loPI   C6A 7580   4.233   1.448   8.847  0.4028  0.1444  0.0091
  474loPI   C1B 7581   4.194   1.554  10.760  0.1124  0.0624  0.0264
  474loPI   C2B 7582   4.173   1.653  10.313 -0.2703 -0.0610  0.2199
  474loPI   C3B 7583   4.129   1.600   9.859  0.3888  0.2423 -0.0970
  474loPI   C4B 7584   4.210   1.474   9.398  0.2864 -0.0531 -0.2679
  475loPI    C1 7585   5.368  15.020  11.126  0.1407  0.0301 -0.0939
  475loPI    C2 7586   5.529  15.107  11.481 -0.1763  0.3247 -0.0166
  475loPI    C3 7587   5.191  14.895  11.462 -0.1803  0.3415 -0.1412
  475loPI   PO4 7588   5.551  15.048  10.940  0.1066  0.2346  0.0765
  475loPI   GL1 7589   5.521  15.152  10.498 -0.2072  0.0449 -0.1295
  475loPI   GL2 7590   5.266  14.954  10.428  0.2361  0.2468  0.0648
  475loPI   C1A 7591   5.599  15.162  10.066  0.0500 -0.0329 -0.0597
  475loPI   C2A 7592   5.718  15.212   9.661  0.3613  0.1896 -0.0667
  475loPI   C3A 7593   5.657  15.118   9.232 -0.0426  0.2878  0.2626
  475loPI   C4A 7594   5.605  15.305   8.900 -0.1123  0.0399  0.3147
  475loPI   C5A 7595   5.486  15.643   8.602  0.0102  0.1260 -0.1515
  475loPI   C6A 7596   5.574  16.077   8.792  0.3162 -0.0006  0.2397
  475loPI   C1B 7597   5.104  14.907  10.027 -0.1353 -0.0749  0.0419
  475loPI   C2B 7598   5.172  15.155   9.526  0.3637 -0.0871 -0.0927
  475loPI   C3B 7599   5.174  15.238   9.105  0.1467 -0.2948  0.1343
  475loPI   C4B 7600   5.202  15.039   8.726  0.0484 -0.2652 -0.1909
  476loPI    C1 7601  13.429   6.459  11.300  0.0671 -0.1721  0.1694
  476loPI    C2 7602  13.658   6.638  11.025 -0.1050 -0.1730  0.0238
  476loPI    C3 7603  13.828   6.426  11.319  0.0872 -0.0255  0.0212
  476loPI   PO4 7604  13.216   6.312  11.151 -0.1396  0.2173  0.0520
  476loPI   GL1 7605  13.231   6.429  10.782 -0.0552  0.1401  0.1269
  476loPI   GL2 7606  13.128   6.101  10.702  0.1409  0.0783  0.1303
  476loPI   C1A 7607  13.155   6.452  10.302 -0.1122  0.1008  0.2793
  476loPI   C2A 7608  13.121   6.467   9.800 -0.0111 -0.0473  0.2042
  476loPI   C3A 7609  13.199   6.466   9.405  0.0760 -0.0667 -0.0360
  476loPI   C4A 7610  13.423   6.224   9.100 -0.2758  0.3002 -0.2876
  476loPI   C5A 7611  13.849   6.235   8.995  0.1502  0.1586  0.0363
  476loPI   C6A 7612  14.348   6.375   9.021 -0.1951  0.1563  0.1158
  476loPI   C1B 7613  13.163   5.871  10.250 -0.0847 -0.0441  0.2834
  476loPI   C2B 7614  13.191   5.889   9.814  0.3824 -0.0241  0.0271
  476loPI   C3B 7615  13.089   5.984   9.377  0.0321 -0.2460  0.0205
  476loPI   C4B 7616  12.973   5.806   9.022 -0.1093  0.0315  0.2124
  477loPI    C1 7617  17.329   8.776  11.364  0.1192 -0.0837 -0.0291
  477loPI    C2 7618  17.115   9.008  11.610  0.2198  0.2183 -0.2197
  477loPI    C3 7619  17.419   8.790  11.753  0.1138  0.1895 -0.0354
  477loPI   PO4 7620  17.139   8.716  11.182  0.1392 -0.0899 -0.0476
  477loPI   GL1 7621  16.916   8.774  10.811  0.2280 -0.0650 -0.3763
  477loPI   GL2 7622  17.048   9.036  10.776 -0.0179  0.1505  0.2001
  477loPI   C1A 7623  16.727   8.758  10.337 -0.2682 -0.2559  0.2198
  477loPI   C2A 7624  16.561   8.689   9.982  0.3418  0.1359  0.1174
  477loPI   C3A 7625  16.543   8.852   9.585 -0.1859  0.0350  0.2728
  477loPI   C4A 7626  16.501   8.716   9.206  0.1935 -0.0279  0.1970
  477loPI   C5A 7627  16.429   8.751   8.775  0.1251 -0.0885 -0.4879
  477loPI   C6A 7628  16.101   8.959   8.566 -0.1725 -0.1307  0.0199
  477loPI   C1B 7629  17.017   9.144  10.328  0.1025 -0.0831 -0.1173
  477loPI   C2B 7630  16.954   9.105   9.923  0.0378  0.1248 -0.1179
  477loPI   C3B 7631  16.938   9.135   9.512 -0.0794  0.3205  0.4579
  477loPI   C4B 7632  16.947   9.029   9.089 -0.1776  0.1532  0.0112
  478loPI    C1 7633   3.794   7.164  11.560  0.2436 -0.2258  0.1095
  478loPI    C2 7634   3.804   7.007  11.928  0.3751  0.0749  0.2368
  478loPI    C3 7635   4.044   7.313  11.833 -0.1323  0.4462  0.1075
  478loPI   PO4 7636   3.839   6.989  11.428  0.2613  0.0266  0.0474
  478loPI   GL1 7637   3.931   6.945  10.998 -0.0803  0.2633  0.0235
  478loPI   GL2 7638   4.182   7.023  10.954 -0.0219  0.1409  0.1110
  478loPI   C1A 7639   3.987   6.825  10.526 -0.1516 -0.1563  0.1965
  478loPI   C2A 7640   3.993   6.848  10.150 -0.1512  0.0632 -0.1380
  478loPI   C3A 7641   4.017   6.862   9.662 -0.0137 -0.1124 -0.0312
  478loPI   C4A 7642   3.954   6.927   9.249 -0.3359  0.3446 -0.1537
  478loPI   C5A 7643   3.809   7.076   8.836 -0.1212  0.1110 -0.0474
  478loPI   C6A 7644   3.412   7.123   8.770 -0.0620  0.1397  0.2033
  478loPI   C1B 7645   4.404   6.670  10.745 -0.5732 -0.1347 -0.1916
  478loPI   C2B 7646   4.538   6.741  10.295 -0.0112 -0.0869  0.0105
  478loPI   C3B 7647   4.467   6.693   9.827 -0.0157 -0.0101  0.0283
  478loPI   C4B 7648   4.403   6.741   9.403 -0.1204 -0.0512 -0.5204
  479loPI    C1 7649   7.135  17.232  11.633  0.0405 -0.0423  0.0769
  479loPI    C2 7650   7.085  17.390  11.998 -0.2542  0.0173  0.0135
  479loPI    C3 7651   6.780  17.206  11.816 -0.1188  0.0181 -0.2184
  479loPI   PO4 7652   7.283  17.374  11.485  0.0036  0.0810 -0.3715
  479loPI   GL1 7653   7.234  17.340  11.112 -0.1759 -0.0369 -0.1968
  479loPI   GL2 7654   7.271  17.730  10.981 -0.2061  0.1266  0.2045
  479loPI   C1A 7655   7.129  17.250  10.722  0.0324 -0.2896 -0.2910
  479loPI   C2A 7656   7.026  17.196  10.294 -0.2055  0.2032  0.4354
  479loPI   C3A 7657   7.078  17.178   9.932  0.2316 -0.1569 -0.0726
  479loPI   C4A 7658   7.100  17.132   9.475  0.1904  0.1973  0.2112
  479loPI   C5A 7659   7.101  17.225   9.135 -0.2110  0.3260  0.3972
  479loPI   C6A 7660   7.159  17.055   8.831 -0.1127  0.1948 -0.3417
  479loPI   C1B 7661   7.320  17.658  10.510  0.0768 -0.0825  0.4008
  479loPI   C2B 7662   7.258  17.605  10.137 -0.4952  0.0148 -0.0010
  479loPI   C3B 7663   7.360  17.621   9.671 -0.2246 -0.0365 -0.1982
  479loPI   C4B 7664   7.396  17.636   9.253  0.0385 -0.3267 -0.0909
  480loPI    C1 7665   5.242   8.367  11.343  0.0896 -0.0087  0.1028
  480loPI    C2 7666   5.513   8.644  11.242 -0.3100  0.3578  0.0073
  480loPI    C3 7667   5.509   8.494  11.613  0.2303  0.0960 -0.0834
  480loPI   PO4 7668   5.208   8.304  10.984  0.1983 -0.1773  0.1118
  480loPI   GL1 7669   5.280   8.170  10.602 -0.3820  0.0505 -0.0291
  480loPI   GL2 7670   5.395   7.875  10.747  0.1371  0.0175 -0.0431
  480loPI   C1A 7671   5.171   8.214  10.215 -0.1611  0.1051 -0.1864
  480loPI   C2A 7672   5.223   8.245   9.804  0.2055 -0.1424  0.0006
  480loPI   C3A 7673   5.198   8.362   9.367 -0.1553 -0.0687 -0.1337
  480loPI   C4A 7674   5.262   8.353   9.011 -0.0265 -0.1627  0.1053
  480loPI   C5A 7675   5.426   8.502   8.606 -0.1785 -0.0310  0.0911
  480loPI   C6A 7676   5.177   8.804   8.429  0.0432  0.0123 -0.0834
  480loPI   C1B 7677   5.286   7.749  10.332 -0.1700  0.0138 -0.2150
  480loPI   C2B 7678   5.276   7.770   9.892 -0.1728  0.0526  0.0280
  480loPI   C3B 7679   5.286   7.870   9.507  0.0029 -0.1922  0.1068
  480loPI   C4B 7680   5.217   7.865   9.199  0.0185 -0.4515  0.0661
  481loPI    C1 7681  10.081  13.672  11.489 -0.1953  0.3955 -0.1685
  481loPI    C2 7682   9.999  13.999  11.705  0.0178  0.1509  0.2967
  481loPI    C3 7683   9.998  13.639  11.879  0.3094 -0.0429 -0.0874
  481loPI   PO4 7684  10.238  13.700  11.328  0.1098  0.0080 -0.0373
  481loPI   GL1 7685  10.229  13.986  10.890 -0.1069  0.4640 -0.0036
  481loPI   GL2 7686  10.490  14.128  10.781  0.0305  0.0647 -0.1695
  481loPI   C1A 7687  10.041  14.019  10.481 -0.0077 -0.0491 -0.1518
  481loPI   C2A 7688   9.988  14.041  10.045 -0.0132  0.1755  0.1238
  481loPI   C3A 7689   9.946  14.033   9.560  0.3063  0.0933 -0.1518
  481loPI   C4A 7690   9.906  14.053   9.159  0.0684 -0.0182 -0.1554
  481loPI   C5A 7691   9.989  14.290   8.836 -0.0736 -0.0839 -0.1441
  481loPI   C6A 7692  10.199  14.153   8.430  0.1196 -0.1666  0.0457
  481loPI   C1B 7693  10.496  14.182  10.301 -0.0209  0.1371 -0.0754
  481loPI   C2B 7694  10.523  14.048   9.887  0.0269 -0.0894 -0.3013
  481loPI   C3B 7695  10.538  14.097   9.430  0.1985 -0.2374 -0.0736
  481loPI   C4B 7696  10.411  14.120   8.994  0.2012  0.0076 -0.0711
  482loPI    C1 7697   4.810   7.656  11.555 -0.0017  0.0626  0.1525
  482loPI    C2 7698   5.018   7.366  11.736 -0.0623 -0.0033  0.1176
  482loPI    C3 7699   4.806   7.626  11.954 -0.0987 -0.0544  0.1434
  482loPI   PO4 7700   4.699   7.512  11.361 -0.0289  0.1350  0.0868
  482loPI   GL1 7701   4.522   7.526  11.008 -0.2358  0.0473  0.2559
  482loPI   GL2 7702   4.252   7.782  11.117 -0.2616  0.3765 -0.1492
  482loPI   C1A 7703   4.418   7.726  10.660 -0.1151  0.1359 -0.1869
  482loPI   C2A 7704   4.348   7.687  10.254  0.2358  0.3435  0.0911
  482loPI   C3A 7705   4.395   7.664   9.909 -0.0707 -0.1422  0.2371
  482loPI   C4A 7706   4.328   7.815   9.549  0.0548  0.1860  0.1438
  482loPI   C5A 7707   4.378   7.820   9.078 -0.1341 -0.0454  0.1846
  482loPI   C6A 7708   4.495   8.023   8.687  0.2151 -0.0030 -0.1253
  482loPI   C1B 7709   3.838   7.920  10.853  0.2941  0.2489 -0.2124
  482loPI   C2B 7710   3.873   7.852  10.428  0.4051  0.1207  0.1352
  482loPI   C3B 7711   3.940   7.794   9.964  0.1477 -0.0766  0.0027
  482loPI   C4B 7712   3.890   7.966   9.536  0.1714 -0.0042 -0.0620
  483loPI    C1 7713   5.855  10.214  11.479  0.0641 -0.0744 -0.2099
  483loPI    C2 7714   6.021  10.052  11.805  0.0284 -0.1080 -0.2084
  483loPI    C3 7715   5.632  10.146  11.804  0.0957  0.1793 -0.1331
  483loPI   PO4 7716   5.914  10.081  11.276  0.2928 -0.0840  0.1660
  483loPI   GL1 7717   6.089   9.849  10.937 -0.0616 -0.0949  0.1091
  483loPI   GL2 7718   5.729  10.035  10.738 -0.0654  0.1853  0.1244
  483loPI   C1A 7719   6.173   9.845  10.499 -0.1636  0.1287  0.1217
  483loPI   C2A 7720   6.125   9.897  10.112 -0.1838  0.0051 -0.1058
  483loPI   C3A 7721   6.051   9.977   9.714 -0.0512  0.4416  0.1074
  483loPI   C4A 7722   5.937  10.037   9.256  0.0743  0.1516  0.0488
  483loPI   C5A 7723   6.006  10.118   8.814  0.1972  0.0808 -0.2360
  483loPI   C6A 7724   5.836  10.496   8.518 -0.2133 -0.1658  0.0044
  483loPI   C1B 7725   5.581  10.257  10.385 -0.0486  0.0078  0.1745
  483loPI   C2B 7726   5.615  10.020  10.067  0.0362  0.0157  0.2805
  483loPI   C3B 7727   5.577  10.172   9.626 -0.0627 -0.1912 -0.0777
  483loPI   C4B 7728   5.441  10.243   9.205 -0.0798  0.0769 -0.2016
  484loPI    C1 7729  15.185   4.450  11.372  0.0294  0.0483  0.0830
  484loPI    C2 7730  15.079   4.077  11.472  0.1172  0.0156  0.0548
  484loPI    C3 7731  15.244   4.319  11.745  0.0537  0.0363  0.0750
  484loPI   PO4 7732  15.311   4.436  11.166  0.0006 -0.3614 -0.2609
  484loPI   GL1 7733  15.465   4.486  10.864  0.0238  0.0099 -0.0091
  484loPI   GL2 7734  15.555   4.153  10.782 -0.1598 -0.2450 -0.3516
  484loPI   C1A 7735  15.272   4.570  10.498  0.0320 -0.3284 -0.0411
  484loPI   C2A 7736  15.378   4.550  10.045  0.0241  0.2442  0.1365
  484loPI   C3A 7737  15.439   4.589   9.568 -0.0616 -0.0890 -0.1665
  484loPI   C4A 7738  15.386   4.519   9.177 -0.1032  0.0221 -0.1406
  484loPI   C5A 7739  15.175   4.516   8.824  0.3979 -0.3544 -0.0861
  484loPI   C6A 7740  14.915   4.689   8.568  0.3406  0.2136 -0.3212
  484loPI   C1B 7741  15.571   4.161  10.407  0.2841 -0.0743  0.0251
  484loPI   C2B 7742  15.667   4.114   9.903  0.1734 -0.0000  0.4337
  484loPI   C3B 7743  15.588   4.113   9.468 -0.1563  0.0123  0.0229
  484loPI   C4B 7744  15.534   4.004   9.085  0.1563 -0.3860 -0.3146
  485loPI    C1 7745   2.640  14.130  11.556  0.0950  0.2339 -0.1749
  485loPI    C2 7746   2.829  14.236  11.892 -0.0263  0.0965 -0.0623
  485loPI    C3 7747   2.568  14.487  11.722 -0.1390  0.0741  0.0753
  485loPI   PO4 7748   2.793  14.008  11.451  0.1035  0.1343  0.0565
  485loPI   GL1 7749   2.683  13.904  11.072 -0.2410 -0.0163  0.2582
  485loPI   GL2 7750   2.677  14.248  10.953 -0.0494 -0.0072 -0.1670
  485loPI   C1A 7751   2.836  13.810  10.726 -0.1519 -0.0627 -0.0077
  485loPI   C2A 7752   2.926  13.808  10.218 -0.1943 -0.0501  0.2003
  485loPI   C3A 7753   2.970  13.850   9.764 -0.1456  0.2027 -0.0069
  485loPI   C4A 7754   3.200  13.975   9.376  0.0468 -0.1806  0.0453
  485loPI   C5A 7755   3.267  13.783   9.034  0.1334 -0.2246 -0.3071
  485loPI   C6A 7756   3.136  13.575   8.773 -0.1300  0.0823 -0.1725
  485loPI   C1B 7757   2.806  14.278  10.535 -0.1646 -0.1019  0.1718
  485loPI   C2B 7758   2.882  14.283  10.079  0.2397 -0.0696 -0.0928
  485loPI   C3B 7759   2.923  14.340   9.638  0.1089  0.1231 -0.0739
  485loPI   C4B 7760   2.978  14.365   9.204 -0.1378 -0.0595 -0.1661
  486loPI    C1 7761  14.842   0.100  11.835  0.1679 -0.1448  0.0875
  486loPI    C2 7762  14.721   0.210  12.199 -0.2436  0.2772 -0.1656
  486loPI    C3 7763  15.096   0.080  12.143 -0.3197 -0.2825  0.4925
  486loPI   PO4 7764  14.783   0.268  11.702  0.2029 -0.2208  0.0029
  486loPI   GL1 7765  14.700   0.284  11.251 -0.2442 -0.1073  0.3721
  486loPI   GL2 7766  14.644   0.039  11.050  0.1299  0.1857  0.0460
  486loPI   C1A 7767  14.805   0.515  10.881  0.2970  0.1265 -0.0878
  486loPI   C2A 7768  14.730   0.566  10.478 -0.2648  0.0962 -0.0529
  486loPI   C3A 7769  14.736   0.578   9.986  0.0010  0.0355 -0.1516
  486loPI   C4A 7770  14.738   0.536   9.559  0.3389 -0.2366  0.0806
  486loPI   C5A 7771  14.848   0.564   9.132  0.3254 -0.1319  0.3217
  486loPI   C6A 7772  15.217   0.910   9.025  0.1458  0.0870  0.2089
  486loPI   C1B 7773  14.499   0.080  10.572 -0.3911 -0.1125 -0.2000
  486loPI   C2B 7774  14.519   0.064  10.191 -0.1305 -0.0484  0.1236
  486loPI   C3B 7775  14.464   0.116   9.687  0.0720  0.1701 -0.2963
  486loPI   C4B 7776  14.475   0.181   9.330  0.1215 -0.0462 -0.1340
  487loPI    C1 7777   3.234   1.460  11.850 -0.2087  0.0395 -0.0824
  487loPI    C2 7778   3.213   1.268  12.200  0.2726 -0.0021 -0.0692
  487loPI    C3 7779   3.167   1.666  12.186 -0.2835 -0.0570 -0.0380
  487loPI   PO4 7780   3.044   1.270  11.671 -0.2656  0.0824 -0.0779
  487loPI   GL1 7781   2.967   1.285  11.225  0.1488  0.3232 -0.1769
  487loPI   GL2 7782   2.999   1.070  10.930  0.0477  0.0878 -0.1341
  487loPI   C1A 7783   3.027   1.554  10.792 -0.0220 -0.3640 -0.0477
  487loPI   C2A 7784   3.176   1.713  10.488 -0.0433 -0.1129  0.1126
  487loPI   C3A 7785   3.210   1.606  10.138  0.1445  0.0651 -0.0277
  487loPI   C4A 7786   3.194   1.520   9.802 -0.2666 -0.1419 -0.0548
  487loPI   C5A 7787   3.107   1.487   9.379 -0.0785 -0.1184  0.3788
  487loPI   C6A 7788   3.012   1.413   8.940 -0.0260  0.0713  0.1461
  487loPI   C1B 7789   2.861   1.089  10.541  0.3289  0.3215 -0.0460
  487loPI   C2B 7790   2.890   1.121  10.055  0.0078 -0.1061 -0.1110
  487loPI   C3B 7791   2.882   1.105   9.627 -0.2202 -0.0828 -0.0720
  487loPI   C4B 7792   2.978   1.001   9.240  0.2107  0.0219  0.1282
  488loPI    C1 7793  13.058   9.797  11.266  0.2153 -0.1507  0.1287
  488loPI    C2 7794  12.981   9.610  11.611  0.1122  0.1295  0.2608
  488loPI    C3 7795  13.341   9.573  11.439  0.0931 -0.1875  0.2827
  488loPI   PO4 7796  12.987  10.017  11.257 -0.2680  0.1481  0.0413
  488loPI   GL1 7797  12.675  10.188  10.998 -0.0354 -0.2165  0.2829
  488loPI   GL2 7798  12.425  10.345  11.033  0.0245  0.2373  0.3667
  488loPI   C1A 7799  12.810  10.153  10.608 -0.1914 -0.1040 -0.1709
  488loPI   C2A 7800  12.770  10.145  10.224 -0.2289 -0.0219  0.3113
  488loPI   C3A 7801  12.762  10.127   9.820  0.0464 -0.0420 -0.2170
  488loPI   C4A 7802  12.789  10.059   9.383  0.2671  0.1623 -0.0817
  488loPI   C5A 7803  12.915   9.858   9.063 -0.0937 -0.4111 -0.0893
  488loPI   C6A 7804  13.000   9.693   8.704 -0.2949 -0.0863  0.2256
  488loPI   C1B 7805  12.387  10.371  10.611 -0.0782 -0.1510 -0.1340
  488loPI   C2B 7806  12.306  10.335  10.124  0.0539  0.1640 -0.0373
  488loPI   C3B 7807  12.340  10.332   9.691  0.1698  0.0616  0.3843
  488loPI   C4B 7808  12.352  10.354   9.260 -0.0600  0.1501  0.1629
  489loPI    C1 7809   9.653   6.865  11.178  0.0317  0.0666  0.0500
  489loPI    C2 7810   9.766   6.927  11.556  0.0865  0.1286  0.0237
  489loPI    C3 7811   9.697   6.555  11.426 -0.1172  0.1215  0.1467
  489loPI   PO4 7812   9.840   6.963  11.036 -0.2627  0.0574  0.1713
  489loPI   GL1 7813   9.937   7.162  10.752 -0.1898 -0.1305 -0.1156
  489loPI   GL2 7814   9.904   7.401  10.846 -0.3203  0.0983  0.0664
  489loPI   C1A 7815   9.902   7.048  10.425 -0.1683 -0.1067  0.1489
  489loPI   C2A 7816   9.914   6.942  10.066  0.1240 -0.0161  0.2052
  489loPI   C3A 7817   9.937   7.099   9.641  0.2020 -0.1200  0.3942
  489loPI   C4A 7818   9.839   7.094   9.194 -0.2801  0.0123 -0.3218
  489loPI   C5A 7819   9.414   7.062   8.879  0.1331 -0.1459  0.0022
  489loPI   C6A 7820   9.109   6.847   8.611 -0.2577 -0.0027 -0.3558
  489loPI   C1B 7821  10.046   7.553  10.426  0.1931  0.0799 -0.2300
  489loPI   C2B 7822   9.945   7.557  10.019  0.0816  0.1579  0.1239
  489loPI   C3B 7823   9.731   7.515   9.679 -0.0143  0.6247  0.1748
  489loPI   C4B 7824   9.725   7.600   9.243  0.2587  0.0737  0.3379
  490loPI    C1 7825   3.200   9.324  11.684 -0.4739  0.3962  0.0634
  490loPI    C2 7826   3.022   9.095  11.959  0.0660 -0.0281  0.0762
  490loPI    C3 7827   3.365   9.283  12.046  0.0163  0.1841 -0.1752
  490loPI   PO4 7828   3.164   9.163  11.368  0.0499 -0.2033  0.0595
  490loPI   GL1 7829   2.906   9.068  10.959  0.0149  0.3369  0.0664
  490loPI   GL2 7830   2.669   9.012  11.126  0.2689 -0.2898  0.0777
  490loPI   C1A 7831   3.042   8.911  10.507  0.3501 -0.0316 -0.1188
  490loPI   C2A 7832   3.071   8.773  10.116 -0.0165 -0.0408 -0.0071
  490loPI   C3A 7833   2.931   8.863   9.720 -0.0140 -0.2469  0.3856
  490loPI   C4A 7834   2.932   8.946   9.242  0.2443 -0.0860 -0.1027
  490loPI   C5A 7835   3.227   9.162   8.998 -0.0065  0.0683  0.1332
  490loPI   C6A 7836   3.545   9.176   8.734 -0.1602 -0.1959 -0.0525
  490loPI   C1B 7837   2.537   9.189  10.738 -0.0431  0.0705 -0.1454
  490loPI   C2B 7838   2.607   9.137  10.382  0.1965 -0.1618 -0.2928
  490loPI   C3B 7839   2.556   9.140   9.999  0.0213  0.0194  0.1397
  490loPI   C4B 7840   2.476   9.133   9.488  0.2342 -0.1708  0.1049
  491loPI    C1 7841   6.839  17.638  11.589 -0.1923 -0.2588  0.2246
  491loPI    C2 7842   6.611  17.919  11.760  0.0593  0.0739  0.0274
  491loPI    C3 7843   6.984  17.858  11.891  0.1253  0.0742 -0.1587
  491loPI   PO4 7844   6.860  17.758  11.317  0.0599 -0.3525  0.3225
  491loPI   GL1 7845   6.789  17.633  10.896 -0.2638 -0.1263 -0.2654
  491loPI   GL2 7846   6.589  17.848  10.917  0.0372  0.0768 -0.1027
  491loPI   C1A 7847   6.786  17.550  10.519 -0.0970  0.0905 -0.0604
  491loPI   C2A 7848   6.753  17.631  10.069 -0.0116  0.1009 -0.0354
  491loPI   C3A 7849   6.846  17.534   9.587  0.2774 -0.0923 -0.1888
  491loPI   C4A 7850   6.754  17.572   9.128  0.0528 -0.1344  0.0499
  491loPI   C5A 7851   7.072  17.642   8.774 -0.3428 -0.1312  0.1291
  491loPI   C6A 7852   7.553  17.814   8.568  0.2119 -0.1126 -0.1957
  491loPI   C1B 7853   6.538  17.999  10.509 -0.2056 -0.0038 -0.2300
  491loPI   C2B 7854   6.507  18.045  10.122 -0.3364  0.3085 -0.1046
  491loPI   C3B 7855   6.590  17.941   9.695 -0.0625  0.3527 -0.0558
  491loPI   C4B 7856   6.583  17.992   9.294  0.1100 -0.1118 -0.1535
  492loPI    C1 7857   9.355  12.878  11.296  0.1662 -0.1077  0.0378
  492loPI    C2 7858   9.299  12.576  11.552  0.0886 -0.0505  0.0885
  492loPI    C3 7859   9.085  12.912  11.589  0.1772  0.0122  0.0345
  492loPI   PO4 7860   9.311  12.922  11.081 -0.4150  0.1593  0.2009
  492loPI   GL1 7861   9.052  12.985  10.770  0.2020  0.2269 -0.3231
  492loPI   GL2 7862   8.774  12.859  10.894 -0.2355 -0.1538  0.0638
  492loPI   C1A 7863   8.948  13.193  10.412  0.2205  0.2823  0.1390
  492loPI   C2A 7864   9.048  13.148  10.080  0.0048  0.3502  0.3738
  492loPI   C3A 7865   8.873  12.976   9.793 -0.0434  0.2215 -0.0107
  492loPI   C4A 7866   8.959  12.975   9.409 -0.2457 -0.1321  0.0359
  492loPI   C5A 7867   8.853  12.950   9.003  0.1673  0.1355 -0.0356
  492loPI   C6A 7868   9.096  12.772   8.644  0.0653  0.1287 -0.3704
  492loPI   C1B 7869   8.557  12.774  10.441 -0.0451  0.0376  0.1353
  492loPI   C2B 7870   8.473  12.678  10.049  0.0830 -0.1469  0.0639
  492loPI   C3B 7871   8.581  12.636   9.633  0.1228 -0.4538 -0.1947
  492loPI   C4B 7872   8.499  12.741   9.346 -0.2597 -0.0924  0.0891
  493loPI    C1 7873   7.565  11.010  11.407 -0.0312  0.1225 -0.0256
  493loPI    C2 7874   7.299  10.859  11.665  0.1077  0.2137  0.1734
  493loPI    C3 7875   7.679  10.736  11.676  0.0505 -0.0094 -0.1928
  493loPI   PO4 7876   7.435  11.125  11.220  0.4296  0.1184 -0.4277
  493loPI   GL1 7877   7.312  11.072  10.890  0.3544  0.0579  0.1190
  493loPI   GL2 7878   7.164  10.865  10.757 -0.0536 -0.0343  0.0875
  493loPI   C1A 7879   7.293  11.285  10.502  0.0541  0.0515 -0.0871
  493loPI   C2A 7880   7.284  11.269  10.052 -0.1380  0.3367 -0.1644
  493loPI   C3A 7881   7.314  11.266   9.605  0.1474 -0.3807 -0.3485
  493loPI   C4A 7882   7.280  11.331   9.260 -0.0884  0.2067 -0.1234
  493loPI   C5A 7883   7.483  11.453   8.812 -0.1135 -0.1977 -0.3566
  493loPI   C6A 7884   7.436  11.569   8.420 -0.2746 -0.0610  0.1460
  493loPI   C1B 7885   7.344  10.753  10.422 -0.0034 -0.3972  0.0354
  493loPI   C2B 7886   7.343  10.723  10.042 -0.1595 -0.2170 -0.1340
  493loPI   C3B 7887   7.346  10.785   9.694  0.1255  0.0768 -0.0462
  493loPI   C4B 7888   7.311  10.820   9.199  0.0361 -0.3869  0.0961
  494loPI    C1 7889  10.749  12.857  11.235  0.0224  0.1791 -0.0059
  494loPI    C2 7890  10.377  12.742  11.329 -0.0007  0.1503 -0.1298
  494loPI    C3 7891  10.682  12.651  11.571 -0.0347 -0.0756 -0.1703
  494loPI   PO4 7892  10.701  13.076  11.106 -0.1830 -0.1322  0.0963
  494loPI   GL1 7893  10.650  13.177  10.764 -0.0832 -0.0918 -0.0398
  494loPI   GL2 7894  10.392  12.889  10.787  0.2139  0.1366  0.0209
  494loPI   C1A 7895  10.693  13.251  10.280  0.2346 -0.2317  0.1889
  494loPI   C2A 7896  10.519  13.145   9.920 -0.0331 -0.0775  0.0640
  494loPI   C3A 7897  10.351  13.168   9.510  0.0522 -0.0312 -0.1717
  494loPI   C4A 7898  10.426  13.220   9.025 -0.0925 -0.0047  0.1025
  494loPI   C5A 7899  10.687  13.486   8.817 -0.0534  0.0772 -0.2049
  494loPI   C6A 7900  10.758  13.875   8.644 -0.1168 -0.2540 -0.0734
  494loPI   C1B 7901  10.335  12.806  10.341 -0.1997 -0.2243  0.0066
  494loPI   C2B 7902  10.223  12.769   9.967  0.0437  0.1984 -0.0178
  494loPI   C3B 7903  10.318  12.669   9.548  0.2491  0.1590  0.1791
  494loPI   C4B 7904  10.408  12.744   9.064 -0.2077 -0.1234 -0.1167
  495loPI    C1 7905  10.043  11.216  11.683  0.0590 -0.0601  0.0536
  495loPI    C2 7906  10.341  11.384  11.890  0.1270  0.1418 -0.2023
  495loPI    C3 7907   9.973  11.542  11.904  0.0993  0.0716 -0.1256
  495loPI   PO4 7908  10.145  11.225  11.389 -0.0880  0.1551 -0.0572
  495loPI   GL1 7909  10.243  11.377  10.995  0.0406  0.3111  0.0975
  495loPI   GL2 7910  10.148  11.665  10.871  0.0618 -0.0726  0.1260
  495loPI   C1A 7911  10.525  11.294  10.712  0.3139 -0.3445  0.3042
  495loPI   C2A 7912  10.516  11.279  10.249 -0.0761 -0.0699 -0.1276
  495loPI   C3A 7913  10.428  11.133   9.810  0.0266 -0.0255 -0.0404
  495loPI   C4A 7914  10.345  11.172   9.370  0.0125  0.0885  0.2111
  495loPI   C5A 7915  10.302  11.190   8.951 -0.0873 -0.0073  0.3142
  495loPI   C6A 7916  10.331  11.349   8.556 -0.1935 -0.0747 -0.0211
  495loPI   C1B 7917  10.027  11.543  10.454  0.1612 -0.0462  0.2840
  495loPI   C2B 7918   9.973  11.412  10.023  0.2017 -0.0371 -0.0007
  495loPI   C3B 7919   9.898  11.389   9.623 -0.0256 -0.0570  0.0472
  495loPI   C4B 7920   9.860  11.490   9.205 -0.4609 -0.1622 -0.1633
  496loPI    C1 7921   6.645   9.404  11.643  0.0902 -0.2556  0.0080
  496loPI    C2 7922   6.930   9.644  11.787 -0.0820 -0.0142 -0.0464
  496loPI    C3 7923   6.801   9.334  12.005  0.1125 -0.0347  0.0422
  496loPI   PO4 7924   6.734   9.345  11.463  0.0845  0.1087  0.0496
  496loPI   GL1 7925   6.848   9.318  11.085 -0.1169  0.0652  0.0837
  496loPI   GL2 7926   6.529   9.197  11.043  0.2654  0.0386 -0.1087
  496loPI   C1A 7927   7.066   9.383  10.666 -0.1243 -0.0518 -0.0685
  496loPI   C2A 7928   7.085   9.501  10.316 -0.2248 -0.0896  0.1033
  496loPI   C3A 7929   7.002   9.433   9.873  0.1318  0.0202  0.2692
  496loPI   C4A 7930   6.968   9.440   9.509  0.0345  0.1041  0.3024
  496loPI   C5A 7931   6.853   9.479   9.088 -0.1240  0.0143  0.0783
  496loPI   C6A 7932   6.455   9.431   8.870 -0.3891  0.0398  0.1938
  496loPI   C1B 7933   6.660   9.075  10.688  0.0556  0.1664  0.1705
  496loPI   C2B 7934   6.613   9.116  10.251 -0.1326 -0.0223 -0.0902
  496loPI   C3B 7935   6.580   9.124   9.806  0.1502 -0.1579 -0.1209
  496loPI   C4B 7936   6.534   9.201   9.399 -0.4514 -0.3018  0.0670
  497loPI    C1 7937  15.488  10.712  11.517 -0.1597  0.1277  0.0090
  497loPI    C2 7938  15.538  11.014  11.775 -0.2871  0.0655  0.1077
  497loPI    C3 7939  15.357  10.677  11.894 -0.1287 -0.0580  0.0035
  497loPI   PO4 7940  15.700  10.783  11.376 -0.1169  0.3237 -0.0596
  497loPI   GL1 7941  15.719  10.845  10.952  0.1258  0.0425 -0.1591
  497loPI   GL2 7942  15.471  10.773  10.754 -0.3448 -0.1256  0.3672
  497loPI   C1A 7943  15.798  11.118  10.466  0.2878 -0.0838 -0.1685
  497loPI   C2A 7944  15.856  11.156  10.074  0.0009 -0.0099 -0.2111
  497loPI   C3A 7945  15.926  11.015   9.597  0.1786 -0.1018 -0.1835
  497loPI   C4A 7946  15.793  11.126   9.183  0.0734 -0.1557  0.1796
  497loPI   C5A 7947  15.555  11.032   8.811  0.0505 -0.1188 -0.4240
  497loPI   C6A 7948  15.243  10.670   8.605 -0.2412 -0.2472  0.0118
  497loPI   C1B 7949  15.402  10.742  10.314 -0.0364  0.2641  0.2827
  497loPI   C2B 7950  15.488  10.829   9.926  0.1452 -0.2174 -0.0967
  497loPI   C3B 7951  15.386  10.778   9.446 -0.0262  0.3190 -0.0370
  497loPI   C4B 7952  15.493  10.583   9.041 -0.2682 -0.1670  0.0918
  498loPI    C1 7953  12.627  13.492  11.374 -0.1534 -0.1849  0.0382
  498loPI    C2 7954  12.285  13.458  11.578 -0.0439 -0.3168  0.2030
  498loPI    C3 7955  12.627  13.323  11.737  0.1391  0.0989  0.1758
  498loPI   PO4 7956  12.541  13.496  11.168 -0.2411 -0.1591  0.0149
  498loPI   GL1 7957  12.458  13.272  10.809  0.0370  0.1298  0.2888
  498loPI   GL2 7958  12.380  12.945  10.766 -0.2724 -0.1249  0.1452
  498loPI   C1A 7959  12.568  13.276  10.403 -0.4241 -0.0022 -0.1352
  498loPI   C2A 7960  12.565  13.267   9.940 -0.2014 -0.0431 -0.0055
  498loPI   C3A 7961  12.488  13.107   9.566 -0.0045 -0.2186 -0.2110
  498loPI   C4A 7962  12.458  13.057   9.119 -0.0204  0.1668  0.0771
  498loPI   C5A 7963  12.490  13.170   8.671  0.0761  0.1640 -0.3267
  498loPI   C6A 7964  12.762  13.267   8.319 -0.0962 -0.2495 -0.1629
  498loPI   C1B 7965  12.164  12.942  10.439  0.0981 -0.1272 -0.3043
  498loPI   C2B 7966  11.720  12.692  10.258  0.0663  0.1579  0.1567
  498loPI   C3B 7967  11.751  12.595   9.904 -0.1169  0.1399 -0.0235
  498loPI   C4B 7968  11.625  12.493   9.425  0.1531  0.2390  0.0285
  499loPI    C1 7969  13.424  10.261  11.418  0.1301 -0.1099  0.1273
  499loPI    C2 7970  13.658   9.972  11.566 -0.1322 -0.3501  0.0800
  499loPI    C3 7971  13.298  10.041  11.728 -0.2677 -0.3683 -0.2076
  499loPI   PO4 7972  13.397  10.316  11.208 -0.0616 -0.3300 -0.3652
  499loPI   GL1 7973  13.252  10.202  10.828 -0.1403 -0.0733  0.2049
  499loPI   GL2 7974  13.149   9.834  10.777  0.0426 -0.1258 -0.4224
  499loPI   C1A 7975  13.235  10.394  10.425  0.1529  0.2331 -0.1110
  499loPI   C2A 7976  13.124  10.409  10.017 -0.2934 -0.2152  0.0760
  499loPI   C3A 7977  13.216  10.366   9.589 -0.0218  0.3365 -0.1231
  499loPI   C4A 7978  13.151  10.337   9.177 -0.1358  0.0772  0.0285
  499loPI   C5A 7979  12.941  10.244   8.794 -0.0105 -0.1209  0.0439
  499loPI   C6A 7980  12.789  10.136   8.511 -0.2896 -0.2423  0.1996
  499loPI   C1B 7981  13.255   9.921  10.345  0.1331  0.0384 -0.3412
  499loPI   C2B 7982  13.230   9.973   9.883  0.1954  0.1938 -0.0873
  499loPI   C3B 7983  13.320   9.764   9.399  0.0225 -0.1394  0.1225
  499loPI   C4B 7984  13.417   9.946   8.869 -0.1109  0.2380  0.1041
  500loPI    C1 7985   4.796  12.627  11.542 -0.0238  0.0183 -0.1391
  500loPI    C2 7986   4.434  12.773  11.632  0.0358  0.0006  0.1357
  500loPI    C3 7987   4.656  12.597  11.915  0.1651 -0.1948 -0.0835
  500loPI   PO4 7988   4.785  12.761  11.280  0.0964 -0.0035  0.1215
  500loPI   GL1 7989   4.872  12.798  10.856 -0.4058 -0.1237  0.1632
  500loPI   GL2 7990   4.815  13.136  10.800  0.0891  0.3606 -0.0625
  500loPI   C1A 7991   4.844  12.522  10.453  0.1436 -0.3239  0.1264
  500loPI   C2A 7992   4.933  12.459  10.049 -0.2026  0.1081  0.0949
  500loPI   C3A 7993   4.922  12.375   9.584  0.0304 -0.0758  0.0399
  500loPI   C4A 7994   4.867  12.429   9.139 -0.4806 -0.1251  0.1649
  500loPI   C5A 7995   4.884  12.673   8.674 -0.0996  0.0532 -0.1195
  500loPI   C6A 7996   5.094  12.678   8.311  0.2098  0.1108  0.1631
  500loPI   C1B 7997   4.895  12.981  10.384 -0.1317 -0.1285 -0.1799
  500loPI   C2B 7998   4.859  12.913   9.928 -0.0440  0.2183  0.2360
  500loPI   C3B 7999   4.917  12.959   9.493  0.2512 -0.0542  0.1280
  500loPI   C4B 8000   4.894  12.984   9.078  0.1306  0.0924  0.1718
  501loPI    C1 8001  15.224   7.045  11.357 -0.2050  0.1645 -0.0761
  501loPI    C2 8002  15.092   6.693  11.220  0.1217 -0.0222  0.0770
  501loPI    C3 8003  14.955   6.837  11.567 -0.0527  0.0299 -0.0123
  501loPI   PO4 8004  15.450   7.135  11.192  0.0096  0.2523  0.0866
  501loPI   GL1 8005  15.500   7.216  10.721  0.0250 -0.1386  0.0145
  501loPI   GL2 8006  15.860   7.116  10.854 -0.3159 -0.2620  0.1216
  501loPI   C1A 8007  15.381   7.356  10.324  0.0016  0.0773  0.2445
  501loPI   C2A 8008  15.348   7.297   9.923 -0.0439  0.0553 -0.1733
  501loPI   C3A 8009  15.345   7.377   9.475  0.1637  0.0819 -0.3041
  501loPI   C4A 8010  15.419   7.280   9.072 -0.4096  0.2106 -0.0036
  501loPI   C5A 8011  15.659   7.472   8.766  0.1910  0.3225  0.2544
  501loPI   C6A 8012  15.482   7.606   8.447 -0.0576  0.3264 -0.0615
  501loPI   C1B 8013  16.031   7.078  10.499  0.2036 -0.2007  0.3452
  501loPI   C2B 8014  15.854   7.155  10.148 -0.1886 -0.0505 -0.3061
  501loPI   C3B 8015  15.910   7.084   9.693  0.1365 -0.1468  0.1523
  501loPI   C4B 8016  15.904   7.036   9.281  0.3611 -0.3093  0.2084
  502loPI    C1 8017  14.152  14.511  11.420 -0.0338 -0.0593  0.0872
  502loPI    C2 8018  14.249  14.126  11.463  0.0302 -0.0487  0.0391
  502loPI    C3 8019  14.106  14.332  11.775 -0.2461 -0.1787  0.0011
  502loPI   PO4 8020  13.927  14.526  11.255  0.1562  0.0292 -0.0186
  502loPI   GL1 8021  13.752  14.841  10.967 -0.0792  0.0883  0.4381
  502loPI   GL2 8022  13.863  14.631  10.764  0.1084 -0.0434  0.0614
  502loPI   C1A 8023  13.632  15.056  10.635  0.0910  0.1798  0.0487
  502loPI   C2A 8024  13.565  15.113  10.220  0.1322  0.0788  0.1712
  502loPI   C3A 8025  13.598  15.066   9.772  0.0635  0.1385  0.2116
  502loPI   C4A 8026  13.601  15.106   9.341 -0.1508  0.3429  0.2634
  502loPI   C5A 8027  13.623  15.141   8.829 -0.0215  0.1728  0.0880
  502loPI   C6A 8028  13.697  15.001   8.517  0.0547  0.1573 -0.2883
  502loPI   C1B 8029  13.901  14.719  10.268 -0.1358  0.1127 -0.1264
  502loPI   C2B 8030  13.860  14.658   9.847 -0.1972  0.0678 -0.1460
  502loPI   C3B 8031  13.886  14.632   9.416  0.1916 -0.1264  0.0199
  502loPI   C4B 8032  13.855  14.576   8.927 -0.0256 -0.3691  0.1625
  503loPI    C1 8033  14.429  14.911  11.543  0.1425 -0.1523  0.0123
  503loPI    C2 8034  14.488  15.096  11.893 -0.0335  0.0012 -0.0374
  503loPI    C3 8035  14.203  14.818  11.860 -0.1869  0.1663 -0.1216
  503loPI   PO4 8036  14.425  15.014  11.352  0.1735 -0.2723  0.3128
  503loPI   GL1 8037  14.304  14.807  10.997 -0.0354  0.0373 -0.1194
  503loPI   GL2 8038  14.130  15.123  10.913 -0.1532 -0.2079  0.2769
  503loPI   C1A 8039  14.360  14.690  10.583  0.1622 -0.1247 -0.1637
  503loPI   C2A 8040  14.366  14.716  10.140 -0.0830 -0.0736  0.1831
  503loPI   C3A 8041  14.318  14.648   9.655  0.0180 -0.0776  0.0573
  503loPI   C4A 8042  14.372  14.663   9.205 -0.0020  0.2194 -0.1152
  503loPI   C5A 8043  14.365  14.836   8.729 -0.0428 -0.0226  0.0841
  503loPI   C6A 8044  14.303  15.112   8.424  0.2410  0.0979 -0.1137
  503loPI   C1B 8045  14.117  15.101  10.460 -0.0837 -0.4774 -0.0410
  503loPI   C2B 8046  14.067  15.107  10.051 -0.1913  0.0152 -0.0358
  503loPI   C3B 8047  14.082  15.145   9.576  0.1643 -0.0703  0.4673
  503loPI   C4B 8048  14.088  15.025   9.100 -0.1173 -0.1290 -0.0604
  504loPI    C1 8049   7.949   9.215  11.789 -0.1185  0.0475 -0.0487
  504loPI    C2 8050   7.808   9.375  12.126 -0.2144 -0.2762  0.0693
  504loPI    C3 8051   7.621   9.064  11.960 -0.1126 -0.1797 -0.2326
  504loPI   PO4 8052   7.946   9.328  11.580  0.0111  0.1347 -0.0321
  504loPI   GL1 8053   7.981   9.357  11.181 -0.0396 -0.1133  0.0304
  504loPI   GL2 8054   8.201   9.270  11.132  0.1603  0.2096  0.2300
  504loPI   C1A 8055   7.994   9.550  10.782 -0.0260 -0.0901 -0.2765
  504loPI   C2A 8056   7.938   9.581  10.361 -0.1261  0.2831  0.2943
  504loPI   C3A 8057   7.907   9.537   9.903  0.0818  0.5069  0.0963
  504loPI   C4A 8058   7.850   9.570   9.458 -0.0859 -0.0622  0.0878
  504loPI   C5A 8059   7.792   9.527   9.050  0.0139  0.3171 -0.0625
  504loPI   C6A 8060   7.675   9.544   8.581  0.1128  0.2192 -0.2652
  504loPI   C1B 8061   7.946   9.027  10.763 -0.0877 -0.2088 -0.1365
  504loPI   C2B 8062   8.001   9.016  10.305  0.1685 -0.0561  0.3316
  504loPI   C3B 8063   7.879   9.005   9.904  0.1450  0.2471  0.2018
  504loPI   C4B 8064   7.911   9.080   9.497  0.1329 -0.0226  0.1878
  505loPI    C1 8065  13.302   1.118  11.675  0.3035  0.0059 -0.1748
  505loPI    C2 8066  13.432   0.839  11.931 -0.0263 -0.0287 -0.0401
  505loPI    C3 8067  13.240   1.163  12.068 -0.2404 -0.0666 -0.2447
  505loPI   PO4 8068  13.576   1.262  11.534 -0.0766 -0.1724  0.2389
  505loPI   GL1 8069  13.684   1.270  11.131 -0.0299  0.1581  0.0251
  505loPI   GL2 8070  13.797   1.510  11.085  0.0111  0.1337 -0.0382
  505loPI   C1A 8071  13.486   1.119  10.857  0.1668  0.2928  0.1845
  505loPI   C2A 8072  13.351   0.882  10.443  0.0351 -0.0495 -0.0651
  505loPI   C3A 8073  13.402   0.976  10.037  0.0306 -0.0653 -0.0743
  505loPI   C4A 8074  13.398   0.956   9.614 -0.1164  0.3313 -0.0365
  505loPI   C5A 8075  13.324   0.985   9.139 -0.0491  0.0068  0.1043
  505loPI   C6A 8076  13.009   0.948   8.869  0.2587  0.1377 -0.0625
  505loPI   C1B 8077  13.622   1.574  10.728 -0.0740 -0.0785 -0.0102
  505loPI   C2B 8078  13.622   1.369  10.233  0.0765  0.1111  0.0390
  505loPI   C3B 8079  13.678   1.355   9.776 -0.0194  0.0843 -0.1628
  505loPI   C4B 8080  13.710   1.315   9.315 -0.0103 -0.0092  0.5061
  506loPI    C1 8081   8.897  14.710  11.520  0.1797  0.0507 -0.2568
  506loPI    C2 8082   9.226  14.568  11.700 -0.1717 -0.3242  0.1123
  506loPI    C3 8083   9.043  14.894  11.844 -0.0036 -0.1532 -0.0549
  506loPI   PO4 8084   8.986  14.770  11.229  0.0301 -0.0150  0.1577
  506loPI   GL1 8085   9.258  14.956  10.903 -0.3370 -0.0557 -0.0264
  506loPI   GL2 8086   9.199  14.745  10.769 -0.2893  0.0924 -0.2286
  506loPI   C1A 8087   9.449  15.080  10.498 -0.1489 -0.0834  0.1032
  506loPI   C2A 8088   9.440  14.988  10.056  0.1310  0.1440  0.1637
  506loPI   C3A 8089   9.430  14.905   9.593  0.0685  0.0820  0.0146
  506loPI   C4A 8090   9.401  14.921   9.171 -0.0873 -0.1058  0.3966
  506loPI   C5A 8091   9.405  14.687   8.750 -0.0013 -0.3914 -0.1046
  506loPI   C6A 8092   9.385  14.301   8.553  0.2450  0.3578  0.1081
  506loPI   C1B 8093   9.219  14.542  10.338  0.1004 -0.0631  0.3972
  506loPI   C2B 8094   9.195  14.559   9.954  0.0260  0.0226  0.1886
  506loPI   C3B 8095   9.168  14.525   9.480 -0.0815  0.2412  0.0760
  506loPI   C4B 8096   9.040  14.506   9.051 -0.1374  0.2138  0.4386
  507loPI    C1 8097   7.835   3.222  11.794 -0.0401 -0.0698 -0.0251
  507loPI    C2 8098   7.915   3.600  11.897 -0.1104 -0.0414 -0.0744
  507loPI    C3 8099   7.738   3.355  12.158 -0.0329 -0.0507 -0.0302
  507loPI   PO4 8100   7.856   3.196  11.589 -0.2143  0.1694  0.2337
  507loPI   GL1 8101   7.813   3.202  11.167 -0.2344  0.0100 -0.1410
  507loPI   GL2 8102   7.551   3.195  10.994 -0.1321  0.0235 -0.1449
  507loPI   C1A 8103   7.984   3.245  10.774 -0.1840  0.1584 -0.0794
  507loPI   C2A 8104   7.975   3.196  10.291 -0.0893  0.0561  0.1046
  507loPI   C3A 8105   8.069   3.127   9.920  0.2839  0.2109  0.0762
  507loPI   C4A 8106   8.037   3.028   9.561  0.1386  0.2472 -0.1509
  507loPI   C5A 8107   8.007   3.006   9.137  0.2018 -0.3325  0.1535
  507loPI   C6A 8108   8.145   3.182   8.696 -0.0216  0.0715 -0.1608
  507loPI   C1B 8109   7.567   3.138  10.558  0.2353  0.0144 -0.0513
  507loPI   C2B 8110   7.448   3.162  10.137 -0.1771 -0.1038  0.1858
  507loPI   C3B 8111   7.543   3.095   9.684 -0.0821 -0.0709 -0.0166
  507loPI   C4B 8112   7.554   3.005   9.333 -0.1867 -0.1408 -0.0135
  508loPI    C1 8113  16.323   7.117  11.491  0.0395  0.0041  0.0674
  508loPI    C2 8114  16.376   6.756  11.656 -0.1742 -0.0130  0.1021
  508loPI    C3 8115  16.381   7.084  11.885  0.0045  0.0058  0.0727
  508loPI   PO4 8116  16.464   7.091  11.295 -0.0340 -0.1308 -0.0866
  508loPI   GL1 8117  16.357   7.159  10.871  0.0401 -0.2109  0.1597
  508loPI   GL2 8118  16.527   6.763  10.788 -0.1712  0.3187 -0.0153
  508loPI   C1A 8119  16.749   7.278  10.616 -0.1990 -0.0212 -0.2064
  508loPI   C2A 8120  16.795   7.195  10.190  0.1911 -0.2598 -0.1376
  508loPI   C3A 8121  16.718   7.246   9.719  0.0942 -0.0389  0.1651
  508loPI   C4A 8122  16.688   7.213   9.335 -0.1504 -0.2471 -0.1863
  508loPI   C5A 8123  16.664   7.324   8.915 -0.4199  0.0081  0.0708
  508loPI   C6A 8124  16.877   7.497   8.530  0.3504  0.2003 -0.0610
  508loPI   C1B 8125  16.449   6.836  10.310  0.2390  0.0716 -0.1353
  508loPI   C2B 8126  16.389   6.988   9.943  0.1262  0.1648  0.1027
  508loPI   C3B 8127  16.279   6.841   9.531  0.1198  0.1479  0.1988
  508loPI   C4B 8128  16.329   6.975   9.029 -0.0948  0.1262  0.4309
  509loPI    C1 8129   5.135   6.782  11.315 -0.2106  0.1574  0.1381
  509loPI    C2 8130   5.073   6.401  11.418 -0.0679  0.0726 -0.0821
  509loPI    C3 8131   5.070   6.687  11.698 -0.1824 -0.0881  0.0832
  509loPI   PO4 8132   5.410   6.792  11.218 -0.2059  0.1414  0.2958
  509loPI   GL1 8133   5.558   6.860  10.882  0.4266 -0.5322 -0.2590
  509loPI   GL2 8134   5.779   7.013  10.738  0.2116  0.1581 -0.1514
  509loPI   C1A 8135   5.384   6.783  10.545 -0.2143 -0.0101 -0.1656
  509loPI   C2A 8136   5.374   6.771  10.152  0.1543  0.3649 -0.2602
  509loPI   C3A 8137   5.318   6.683   9.762 -0.1794 -0.0400  0.6057
  509loPI   C4A 8138   5.302   6.845   9.281 -0.1324 -0.1443 -0.0190
  509loPI   C5A 8139   5.254   6.790   8.846  0.1786 -0.2508  0.1804
  509loPI   C6A 8140   4.932   6.843   8.437 -0.2637  0.3074 -0.0084
  509loPI   C1B 8141   5.794   7.010  10.321  0.2630  0.1365  0.0158
  509loPI   C2B 8142   5.784   6.980   9.828  0.1227 -0.0404 -0.2321
  509loPI   C3B 8143   5.725   7.067   9.322 -0.0331 -0.2297  0.1695
  509loPI   C4B 8144   5.732   7.401   8.849  0.0506  0.0634 -0.1090
  510loPI    C1 8145   3.453  13.004  11.740  0.0339 -0.0701 -0.0599
  510loPI    C2 8146   3.238  12.884  12.055  0.0040  0.0813 -0.0221
  510loPI    C3 8147   3.541  13.140  12.106  0.1536 -0.0815 -0.0839
  510loPI   PO4 8148   3.466  12.843  11.580 -0.0407 -0.0335  0.3881
  510loPI   GL1 8149   3.522  12.891  11.064  0.1753  0.0861 -0.0212
  510loPI   GL2 8150   3.567  12.564  10.789  0.4494 -0.1532  0.0673
  510loPI   C1A 8151   3.441  13.183  10.684 -0.0957 -0.0408  0.0762
  510loPI   C2A 8152   3.422  13.069  10.235  0.3805  0.0120  0.2120
  510loPI   C3A 8153   3.407  13.073   9.837 -0.0907  0.2769  0.0197
  510loPI   C4A 8154   3.461  13.022   9.406 -0.2057  0.2306  0.0835
  510loPI   C5A 8155   3.389  12.976   8.868 -0.4382 -0.0583  0.2583
  510loPI   C6A 8156   3.497  12.912   8.488  0.3989  0.2922  0.2354
  510loPI   C1B 8157   3.475  12.510  10.382  0.0872  0.1705 -0.3479
  510loPI   C2B 8158   3.586  12.518   9.989  0.1498 -0.0368  0.2408
  510loPI   C3B 8159   3.586  12.543   9.595 -0.0510  0.1616  0.1225
  510loPI   C4B 8160   3.449  12.581   9.178  0.3465  0.2775 -0.0113
  511loPI    C1 8161  13.054   7.042  11.597  0.0391 -0.1459  0.0013
  511loPI    C2 8162  12.883   6.686  11.662 -0.0855 -0.1136 -0.1447
  511loPI    C3 8163  12.941   6.938  11.966 -0.0839 -0.2202 -0.0563
  511loPI   PO4 8164  13.279   6.950  11.408  0.1648  0.0362 -0.1166
  511loPI   GL1 8165  13.317   7.056  10.988 -0.1083  0.0489 -0.1071
  511loPI   GL2 8166  13.480   7.320  10.867 -0.0955 -0.2087 -0.3828
  511loPI   C1A 8167  13.158   6.910  10.591 -0.1342 -0.0757  0.2745
  511loPI   C2A 8168  13.018   6.942  10.093 -0.1611 -0.0074  0.0163
  511loPI   C3A 8169  13.096   6.942   9.640 -0.0361 -0.1548 -0.2377
  511loPI   C4A 8170  13.186   6.902   9.232  0.4085 -0.2140 -0.2196
  511loPI   C5A 8171  13.239   7.202   8.976  0.2897  0.0267 -0.2019
  511loPI   C6A 8172  13.407   7.212   8.659  0.2098 -0.0695 -0.1339
  511loPI   C1B 8173  13.521   7.251  10.408  0.3062 -0.0762 -0.1609
  511loPI   C2B 8174  13.546   7.232   9.970 -0.2321  0.1099 -0.3506
  511loPI   C3B 8175  13.565   7.227   9.531 -0.4793 -0.2071 -0.0517
  511loPI   C4B 8176  13.704   7.181   9.123 -0.0077 -0.0703  0.0917
  512loPI    C1 8177   1.084  16.624  11.561 -0.0860  0.2758  0.0018
  512loPI    C2 8178   1.234  16.383  11.842 -0.0248 -0.0382 -0.2937
  512loPI    C3 8179   0.842  16.463  11.835 -0.0400 -0.1000 -0.1724
  512loPI   PO4 8180   1.083  16.491  11.290 -0.0830 -0.4083  0.3222
  512loPI   GL1 8181   0.911  16.536  10.969  0.2229 -0.0432  0.1120
  512loPI   GL2 8182   0.603  16.406  10.942 -0.0313 -0.2674  0.0889
  512loPI   C1A 8183   1.087  16.527  10.548  0.0442  0.0076 -0.0592
  512loPI   C2A 8184   1.183  16.549  10.157  0.0258  0.2666  0.2492
  512loPI   C3A 8185   1.153  16.536   9.751  0.3346 -0.1089 -0.0471
  512loPI   C4A 8186   1.189  16.585   9.361  0.2131 -0.2692 -0.0684
  512loPI   C5A 8187   1.137  16.809   8.990 -0.0443  0.1324  0.1919
  512loPI   C6A 8188   0.982  16.708   8.557 -0.2205  0.0483  0.2300
  512loPI   C1B 8189   0.633  16.530  10.482 -0.1245  0.0750  0.0052
  512loPI   C2B 8190   0.665  16.530  10.043 -0.0520 -0.0974  0.1993
  512loPI   C3B 8191   0.658  16.489   9.564 -0.2192 -0.1387  0.0394
  512loPI   C4B 8192   0.594  16.561   9.126 -0.2297 -0.1532  0.0771
  513loPI    C1 8193   6.930   7.827  11.381  0.1693 -0.1730 -0.0915
  513loPI    C2 8194   6.604   7.801  11.149  0.0941  0.1242 -0.0239
  513loPI    C3 8195   6.590   7.677  11.529  0.0514  0.1610 -0.0134
  513loPI   PO4 8196   7.078   7.731  11.190 -0.2120  0.2941  0.1387
  513loPI   GL1 8197   6.809   7.637  10.739 -0.3100 -0.1300 -0.0784
  513loPI   GL2 8198   6.725   7.421  10.892 -0.0851 -0.0071 -0.1120
  513loPI   C1A 8199   6.767   7.536  10.299 -0.0456  0.0246  0.1756
  513loPI   C2A 8200   6.513   7.601  10.015  0.2082 -0.0045  0.0776
  513loPI   C3A 8201   6.537   7.658   9.636 -0.1152  0.1088  0.3344
  513loPI   C4A 8202   6.553   7.682   9.168 -0.0961 -0.1783 -0.2862
  513loPI   C5A 8203   6.616   7.741   8.743  0.2042  0.1666  0.0178
  513loPI   C6A 8204   6.463   7.656   8.415  0.2247 -0.2048 -0.1440
  513loPI   C1B 8205   6.687   7.057  10.649  0.0924  0.1026 -0.0247
  513loPI   C2B 8206   6.771   7.068  10.147  0.0039  0.3723  0.1628
  513loPI   C3B 8207   6.603   7.059   9.764  0.0068 -0.0023  0.3721
  513loPI   C4B 8208   6.584   7.235   9.313  0.1535  0.1860 -0.1195
  514loPI    C1 8209  17.650   9.158  11.538  0.0320 -0.0167  0.0012
  514loPI    C2 8210  17.909   9.396  11.728  0.2057 -0.1299 -0.0913
  514loPI    C3 8211  17.575   9.276  11.912  0.2390 -0.0170  0.0438
  514loPI   PO4 8212  17.719   9.126  11.348 -0.3589 -0.0619 -0.2187
  514loPI   GL1 8213  17.796   9.164  10.877  0.0758 -0.1105 -0.2542
  514loPI   GL2 8214  17.565   8.856  10.945 -0.1118 -0.3033 -0.2403
  514loPI   C1A 8215  17.926   9.257  10.556 -0.1110  0.0297  0.0986
  514loPI   C2A 8216  17.834   9.300  10.152 -0.3182  0.0699  0.1597
  514loPI   C3A 8217  17.811   9.299   9.669  0.0267 -0.0166  0.3718
  514loPI   C4A 8218  17.722   9.317   9.229 -0.1211  0.1877 -0.1192
  514loPI   C5A 8219  17.752   9.460   8.763 -0.1007  0.0732 -0.0149
  514loPI   C6A 8220  17.973   9.778   8.616 -0.3990  0.2526  0.0175
  514loPI   C1B 8221  17.485   9.016  10.506 -0.0195 -0.1468 -0.2535
  514loPI   C2B 8222  17.450   8.991  10.000  0.0229 -0.2330 -0.2691
  514loPI   C3B 8223  17.411   9.002   9.483  0.1625 -0.0210 -0.0858
  514loPI   C4B 8224  17.463   8.888   9.116  0.2495  0.2428 -0.0823
  515loPI    C1 8225  13.396  14.159  11.287 -0.0299  0.2436 -0.1022
  515loPI    C2 8226  13.654  14.193  11.591 -0.0057 -0.0290 -0.0901
  515loPI    C3 8227  13.281  14.333  11.629  0.0964  0.2399 -0.0573
  515loPI   PO4 8228  13.479  14.298  11.134 -0.3222  0.0914  0.3358
  515loPI   GL1 8229  13.368  14.533  10.847  0.2437 -0.1574 -0.2398
  515loPI   GL2 8230  13.108  14.304  10.744  0.1588 -0.1602  0.1637
  515loPI   C1A 8231  13.328  14.678  10.446  0.0272  0.0875  0.0087
  515loPI   C2A 8232  13.375  14.674   9.997  0.2439  0.3224  0.0776
  515loPI   C3A 8233  13.390  14.636   9.566  0.2757 -0.1004  0.3006
  515loPI   C4A 8234  13.396  14.608   9.148  0.2309  0.2441 -0.1893
  515loPI   C5A 8235  13.342  14.557   8.700  0.2730  0.0868 -0.0124
  515loPI   C6A 8236  13.492  14.550   8.290  0.1868 -0.0847 -0.1215
  515loPI   C1B 8237  12.985  14.223  10.290 -0.4533  0.3520 -0.1371
  515loPI   C2B 8238  13.133  14.109   9.802  0.0326  0.2495 -0.3482
  515loPI   C3B 8239  13.228  14.157   9.411 -0.3493  0.2367  0.0235
  515loPI   C4B 8240  13.209  14.199   9.004  0.0946 -0.1565 -0.2082
  516loPI    C1 8241  15.637  11.226  11.299 -0.2993 -0.3240  0.2448
  516loPI    C2 8242  15.634  11.488  11.601 -0.0103 -0.0882  0.0482
  516loPI    C3 8243  15.961  11.268  11.529  0.0655  0.1373 -0.3251
  516loPI   PO4 8244  15.622  11.369  11.118  0.0278  0.1414  0.1155
  516loPI   GL1 8245  15.653  11.458  10.814 -0.1018 -0.2836  0.1866
  516loPI   GL2 8246  15.975  11.631  10.742 -0.2348  0.4051 -0.0807
  516loPI   C1A 8247  15.377  11.403  10.440  0.0021 -0.1977  0.3203
  516loPI   C2A 8248  15.444  11.346  10.004 -0.0978 -0.0946 -0.0324
  516loPI   C3A 8249  15.484  11.262   9.598  0.3724 -0.0850  0.1057
  516loPI   C4A 8250  15.257  11.382   9.089 -0.1129  0.5015 -0.0469
  516loPI   C5A 8251  15.320  11.399   8.660  0.0594 -0.0831 -0.0815
  516loPI   C6A 8252  14.887  11.157   8.580 -0.0852 -0.2080  0.4307
  516loPI   C1B 8253  15.844  11.580  10.290 -0.3931  0.2609 -0.2502
  516loPI   C2B 8254  15.867  11.544   9.755  0.2454 -0.1175 -0.0932
  516loPI   C3B 8255  15.809  11.609   9.326  0.0998 -0.0267 -0.0213
  516loPI   C4B 8256  15.703  11.624   8.902 -0.2280  0.0929  0.0247
  517loPI    C1 8257  12.032   6.695  11.273 -0.1323  0.1298 -0.2047
  517loPI    C2 8258  12.344   6.665  11.024  0.0254 -0.2036  0.0254
  517loPI    C3 8259  12.167   6.334  11.164 -0.3672 -0.0176 -0.0182
  517loPI   PO4 8260  11.919   6.802  11.203 -0.0400  0.0510 -0.2348
  517loPI   GL1 8261  11.853   6.651  10.803  0.0594 -0.0643  0.2761
  517loPI   GL2 8262  11.581   6.382  10.708  0.1729 -0.3854 -0.1219
  517loPI   C1A 8263  11.735   6.765  10.383 -0.0401  0.1127  0.0724
  517loPI   C2A 8264  11.706   6.569   9.994  0.0397  0.1335 -0.0199
  517loPI   C3A 8265  11.799   6.441   9.571  0.0713  0.0322 -0.2185
  517loPI   C4A 8266  11.861   6.637   9.172 -0.0008  0.1651 -0.2316
  517loPI   C5A 8267  11.873   6.851   8.692 -0.0413 -0.3376  0.2233
  517loPI   C6A 8268  11.928   6.904   8.207 -0.2131  0.1789 -0.0844
  517loPI   C1B 8269  11.735   6.068  10.335 -0.0555 -0.0216 -0.1530
  517loPI   C2B 8270  11.898   6.027   9.860  0.1023  0.3030 -0.3326
  517loPI   C3B 8271  11.602   5.948   9.499  0.2444  0.0641 -0.2572
  517loPI   C4B 8272  11.535   5.955   9.086  0.4143  0.0889  0.0089
  518loPI    C1 8273   8.898   4.799  11.168 -0.3066  0.2429 -0.0638
  518loPI    C2 8274   9.161   5.016  11.377 -0.1092  0.0178 -0.0754
  518loPI    C3 8275   8.777   5.010  11.486 -0.1162  0.3647 -0.0707
  518loPI   PO4 8276   8.876   4.919  10.941  0.3408 -0.0907  0.1581
  518loPI   GL1 8277   8.825   4.837  10.632  0.0853  0.1339  0.0559
  518loPI   GL2 8278   8.784   4.491  10.568 -0.0709  0.1678 -0.2048
  518loPI   C1A 8279   8.532   4.906  10.303  0.0728 -0.0641  0.1654
  518loPI   C2A 8280   8.495   5.022   9.865  0.1913 -0.0561  0.1669
  518loPI   C3A 8281   8.489   4.927   9.440 -0.2468 -0.0036  0.4193
  518loPI   C4A 8282   8.495   4.802   8.993  0.3924  0.1010  0.0609
  518loPI   C5A 8283   8.156   4.778   8.779  0.0078 -0.3178  0.3260
  518loPI   C6A 8284   7.734   4.735   8.760  0.1794 -0.2755 -0.2004
  518loPI   C1B 8285   8.765   4.514  10.153  0.1359 -0.0489 -0.0511
  518loPI   C2B 8286   8.706   4.520   9.660 -0.3424  0.1337  0.2225
  518loPI   C3B 8287   8.711   4.438   9.202  0.1508  0.3201 -0.4173
  518loPI   C4B 8288   8.843   4.330   8.803 -0.0202  0.2676  0.2240
  519loPI    C1 8289  14.745  14.634  11.756  0.0072  0.1327  0.6211
  519loPI    C2 8290  14.965  14.361  11.950  0.0751 -0.1830  0.1171
  519loPI    C3 8291  14.604  14.263  11.808  0.1497 -0.0509 -0.1734
  519loPI   PO4 8292  14.930  14.766  11.652  0.1393  0.3442  0.0083
  519loPI   GL1 8293  14.901  14.809  11.152  0.0754 -0.0176  0.0465
  519loPI   GL2 8294  15.014  15.151  11.023  0.0491  0.1639  0.0683
  519loPI   C1A 8295  14.877  14.729  10.705  0.0565 -0.0792 -0.1583
  519loPI   C2A 8296  14.833  14.717  10.233 -0.0449 -0.1167  0.2461
  519loPI   C3A 8297  14.864  14.674   9.796 -0.2918  0.0863 -0.0616
  519loPI   C4A 8298  14.899  14.698   9.280  0.1048 -0.2638 -0.0348
  519loPI   C5A 8299  15.201  14.420   9.003  0.0502 -0.1347 -0.1439
  519loPI   C6A 8300  15.184  14.162   8.567  0.0809 -0.3389 -0.1784
  519loPI   C1B 8301  15.119  15.211  10.600 -0.1363 -0.0838 -0.0556
  519loPI   C2B 8302  15.103  15.163  10.202  0.2721  0.0198 -0.3482
  519loPI   C3B 8303  15.089  15.135   9.809 -0.0077  0.0215  0.1797
  519loPI   C4B 8304  15.051  15.181   9.312  0.1179 -0.0727  0.1277
  520loPI    C1 8305  14.911  12.665  11.507  0.0738  0.2255  0.3437
  520loPI    C2 8306  14.731  12.432  11.778 -0.2335  0.0005 -0.0418
  520loPI    C3 8307  15.107  12.355  11.664 -0.3644 -0.3732 -0.2355
  520loPI   PO4 8308  14.787  12.679  11.278 -0.1510 -0.0993 -0.2320
  520loPI   GL1 8309  14.594  12.623  10.910 -0.0149 -0.2681 -0.1144
  520loPI   GL2 8310  14.388  12.740  10.636  0.0322 -0.1902  0.1089
  520loPI   C1A 8311  14.880  12.629  10.508 -0.2002  0.2215 -0.0478
  520loPI   C2A 8312  14.916  12.654  10.073  0.1271 -0.0491 -0.2550
  520loPI   C3A 8313  14.852  12.566   9.666 -0.0069  0.0700  0.0275
  520loPI   C4A 8314  14.823  12.575   9.302  0.2375  0.0409  0.1846
  520loPI   C5A 8315  14.454  12.538   9.032 -0.0964  0.2977 -0.0280
  520loPI   C6A 8316  14.247  12.481   8.779  0.1183 -0.1407  0.2095
  520loPI   C1B 8317  14.429  12.825  10.258  0.1869  0.3315 -0.1688
  520loPI   C2B 8318  14.386  12.732   9.910  0.2077  0.1908  0.0330
  520loPI   C3B 8319  14.389  12.839   9.485 -0.0742 -0.0491  0.1546
  520loPI   C4B 8320  14.169  12.960   9.077 -0.4697  0.1868 -0.0077
  521loPI    C1 8321   6.757  14.961  11.242  0.0083 -0.1215  0.1429
  521loPI    C2 8322   6.383  14.870  11.133 -0.0661  0.3087  0.0195
  521loPI    C3 8323   6.447  15.118  11.441  0.1281 -0.0394  0.2668
  521loPI   PO4 8324   6.796  15.008  10.979 -0.1906 -0.0600  0.0831
  521loPI   GL1 8325   6.632  15.199  10.629 -0.1774  0.0701 -0.2517
  521loPI   GL2 8326   6.360  15.400  10.539  0.0704  0.4118 -0.2726
  521loPI   C1A 8327   6.701  15.281  10.172  0.5299  0.2276  0.0447
  521loPI   C2A 8328   6.735  15.318   9.728  0.0622  0.1053  0.2432
  521loPI   C3A 8329   6.649  15.210   9.333  0.0531  0.0546  0.1373
  521loPI   C4A 8330   6.589  15.170   8.917  0.0072 -0.0334 -0.1958
  521loPI   C5A 8331   6.829  15.269   8.529  0.0220  0.1127  0.0059
  521loPI   C6A 8332   6.768  15.690   8.264 -0.1620  0.0743  0.0145
  521loPI   C1B 8333   6.219  15.217  10.132  0.0965 -0.0340 -0.0961
  521loPI   C2B 8334   6.261  15.196   9.729  0.2659  0.1482  0.2226
  521loPI   C3B 8335   6.167  15.280   9.270  0.4192 -0.0408 -0.0236
  521loPI   C4B 8336   6.100  15.087   8.936 -0.0698 -0.0931  0.2424
  522loPI    C1 8337  15.812   7.728  11.657 -0.2063 -0.2615  0.0484
  522loPI    C2 8338  16.107   7.465  11.720  0.0417  0.0572  0.2507
  522loPI    C3 8339  15.982   7.700  12.018 -0.0875  0.2589  0.0411
  522loPI   PO4 8340  15.838   7.841  11.430  0.1678  0.1159  0.1165
  522loPI   GL1 8341  15.914   7.719  11.027 -0.1333  0.2594 -0.0176
  522loPI   GL2 8342  15.517   7.603  11.001 -0.0332  0.1850  0.0276
  522loPI   C1A 8343  16.211   7.613  10.807 -0.1025 -0.0785  0.1544
  522loPI   C2A 8344  16.296   7.480  10.401 -0.0355  0.4308  0.0351
  522loPI   C3A 8345  16.218   7.485   9.972  0.2409 -0.0570  0.1050
  522loPI   C4A 8346  16.253   7.417   9.469  0.3745 -0.1985 -0.1696
  522loPI   C5A 8347  16.210   7.463   9.008 -0.0412 -0.2884  0.3122
  522loPI   C6A 8348  16.146   7.197   8.614  0.2917 -0.0506  0.1278
  522loPI   C1B 8349  15.776   7.608  10.555  0.1128  0.3514 -0.3154
  522loPI   C2B 8350  15.747   7.716  10.119 -0.1853 -0.1578 -0.0848
  522loPI   C3B 8351  15.758   7.569   9.661  0.0071 -0.0758 -0.1107
  522loPI   C4B 8352  15.777   7.582   9.254  0.1271  0.1966 -0.1421
  523loPI    C1 8353   1.999   8.275  11.578  0.1476 -0.2114 -0.1168
  523loPI    C2 8354   2.290   8.328  11.847  0.0133  0.1261 -0.0336
  523loPI    C3 8355   2.047   8.011  11.875  0.1265  0.0517  0.1245
  523loPI   PO4 8356   2.091   8.265  11.368  0.2960 -0.0300  0.0127
  523loPI   GL1 8357   2.182   8.494  10.981 -0.0672  0.0639 -0.2648
  523loPI   GL2 8358   2.272   8.773  10.896 -0.0082  0.3993 -0.1311
  523loPI   C1A 8359   2.142   8.256  10.585 -0.1566 -0.1049 -0.1136
  523loPI   C2A 8360   2.009   8.344  10.216 -0.0508 -0.0844  0.0603
  523loPI   C3A 8361   2.060   8.385   9.742  0.2069 -0.2952 -0.0926
  523loPI   C4A 8362   2.097   8.309   9.286 -0.0157 -0.1122 -0.1532
  523loPI   C5A 8363   2.068   8.195   8.904 -0.0839  0.0117 -0.0036
  523loPI   C6A 8364   2.035   8.358   8.557 -0.1166  0.1604 -0.0734
  523loPI   C1B 8365   2.128   8.755  10.471 -0.2099 -0.2879 -0.0431
  523loPI   C2B 8366   2.052   8.809  10.083 -0.1366  0.2240 -0.2570
  523loPI   C3B 8367   2.073   8.928   9.719  0.1018 -0.0559  0.3836
  523loPI   C4B 8368   2.019   8.877   9.331  0.2540 -0.0139  0.0406
  524loPI    C1 8369   5.044  15.414  11.336 -0.1081 -0.3735  0.1237
  524loPI    C2 8370   4.851  15.561  11.654  0.0594 -0.0498  0.0801
  524loPI    C3 8371   5.213  15.396  11.699  0.1032  0.0378  0.0519
  524loPI   PO4 8372   5.027  15.526  11.114  0.1243  0.1302  0.2365
  524loPI   GL1 8373   5.126  15.324  10.825 -0.0504  0.0523 -0.0001
  524loPI   GL2 8374   5.320  15.540  10.680 -0.1482  0.1872 -0.0366
  524loPI   C1A 8375   4.911  15.328  10.383  0.0688  0.0277  0.2978
  524loPI   C2A 8376   4.788  15.523  10.047 -0.1312  0.1104 -0.0839
  524loPI   C3A 8377   4.851  15.656   9.582  0.2797  0.1477 -0.0988
  524loPI   C4A 8378   4.840  15.597   9.138 -0.0027  0.0833 -0.0091
  524loPI   C5A 8379   4.969  15.559   8.616 -0.3130 -0.1929 -0.0474
  524loPI   C6A 8380   4.821  15.781   8.183 -0.3014 -0.4032  0.1675
  524loPI   C1B 8381   5.303  15.704  10.266 -0.0501  0.0450  0.0399
  524loPI   C2B 8382   5.267  15.568   9.876 -0.1460  0.0330  0.5274
  524loPI   C3B 8383   5.419  15.635   9.430  0.0714 -0.1840 -0.0849
  524loPI   C4B 8384   5.319  15.727   9.093 -0.1180  0.1403  0.1033
  525loPI    C1 8385   7.008  10.817  11.242 -0.0055  0.1405  0.3233
  525loPI    C2 8386   6.921  10.570  11.545 -0.0020 -0.2403  0.0222
  525loPI    C3 8387   6.824  10.469  11.170 -0.0342  0.2384 -0.1059
  525loPI   PO4 8388   6.886  11.043  11.244  0.0933  0.2411 -0.1904
  525loPI   GL1 8389   6.685  11.110  10.883  0.3873 -0.0137  0.0329
  525loPI   GL2 8390   6.643  10.803  10.864 -0.4503  0.0184  0.1243
  525loPI   C1A 8391   6.832  11.005  10.454  0.1773 -0.1514  0.0501
  525loPI   C2A 8392   6.866  10.945   9.994  0.1182  0.3054  0.1205
  525loPI   C3A 8393   6.866  11.068   9.489  0.0019 -0.2969  0.0330
  525loPI   C4A 8394   6.784  11.270   9.074 -0.0181  0.3189  0.3255
  525loPI   C5A 8395   6.647  11.168   8.668 -0.1465 -0.2512 -0.0200
  525loPI   C6A 8396   6.498  11.219   8.362 -0.2137 -0.1919 -0.2759
  525loPI   C1B 8397   6.479  10.664  10.546 -0.0529  0.1722 -0.0459
  525loPI   C2B 8398   6.438  10.651  10.077  0.0741  0.1197  0.4500
  525loPI   C3B 8399   6.416  10.761   9.647  0.4171  0.2598 -0.1806
  525loPI   C4B 8400   6.493  10.828   9.179 -0.1792  0.1323 -0.2502
  526loPI    C1 8401   0.572  11.411  11.268 -0.5286 -0.0516  0.3305
  526loPI    C2 8402   0.891  11.325  11.493 -0.0906 -0.0525 -0.2680
  526loPI    C3 8403   0.547  11.129  11.552 -0.0014 -0.0320  0.4058
  526loPI   PO4 8404   0.634  11.376  11.047  0.2909  0.0848  0.2864
  526loPI   GL1 8405   0.837  11.036  10.724 -0.2069 -0.1193  0.1414
  526loPI   GL2 8406   0.513  11.042  10.698  0.1761  0.0112 -0.0138
  526loPI   C1A 8407   0.922  10.803  10.379  0.4410  0.0697 -0.1667
  526loPI   C2A 8408   0.930  10.799   9.977  0.2952 -0.1835 -0.2421
  526loPI   C3A 8409   0.990  10.865   9.530 -0.2532  0.1230 -0.0942
  526loPI   C4A 8410   0.928  10.866   9.167  0.1627  0.2528  0.0315
  526loPI   C5A 8411   0.788  10.496   8.843 -0.0504  0.3749  0.0301
  526loPI   C6A 8412   0.846  10.322   8.532  0.0792  0.1475 -0.2264
  526loPI   C1B 8413   0.443  10.991  10.332 -0.1875 -0.0676  0.0457
  526loPI   C2B 8414   0.472  11.035   9.969 -0.1238  0.0730  0.0922
  526loPI   C3B 8415   0.441  11.066   9.529 -0.2664 -0.1083 -0.0833
  526loPI   C4B 8416   0.512  11.064   9.050  0.1261 -0.3303 -0.3220
  527loPI    C1 8417   9.167   8.189  11.283  0.1566  0.0982  0.0160
  527loPI    C2 8418   9.413   8.417  11.500 -0.1046  0.2581  0.1495
  527loPI    C3 8419   9.200   8.128  11.677  0.1313 -0.0118  0.0017
  527loPI   PO4 8420   9.251   8.198  11.064  0.0689  0.1203 -0.0242
  527loPI   GL1 8421   9.079   8.208  10.741 -0.0671  0.2154 -0.1501
  527loPI   GL2 8422   9.332   8.369  10.647 -0.1238 -0.0902  0.3881
  527loPI   C1A 8423   9.003   8.109  10.249 -0.1745  0.2365  0.0155
  527loPI   C2A 8424   8.932   8.000   9.793 -0.1999 -0.1717 -0.1829
  527loPI   C3A 8425   8.707   8.024   9.395 -0.3978  0.0718 -0.1753
  527loPI   C4A 8426   8.727   7.782   8.983  0.0139 -0.0569 -0.4394
  527loPI   C5A 8427   8.695   7.582   8.452  0.1189 -0.2513 -0.1528
  527loPI   C6A 8428   8.494   7.430   8.204 -0.2428 -0.1434 -0.1656
  527loPI   C1B 8429   9.388   8.466  10.276  0.0713  0.0741 -0.0092
  527loPI   C2B 8430   9.373   8.346   9.898  0.3215  0.1366  0.1171
  527loPI   C3B 8431   9.297   8.278   9.463  0.1746  0.2333  0.2104
  527loPI   C4B 8432   9.110   8.279   9.008  0.0569 -0.0688  0.1398
  528loPI    C1 8433  12.562  10.465  11.511  0.0684 -0.3551  0.1395
  528loPI    C2 8434  12.751  10.583  11.843 -0.0280 -0.0844  0.1004
  528loPI    C3 8435  12.838  10.230  11.679  0.3560 -0.0174  0.1517
  528loPI   PO4 8436  12.517  10.772  11.367  0.1353 -0.0319  0.0301
  528loPI   GL1 8437  12.312  11.087  11.038  0.1580  0.0828 -0.2476
  528loPI   GL2 8438  12.137  11.408  10.937 -0.3048  0.1513 -0.5512
  528loPI   C1A 8439  12.307  10.910  10.569 -0.0863 -0.1210 -0.0920
  528loPI   C2A 8440  12.286  10.852  10.115  0.1180 -0.2826  0.1167
  528loPI   C3A 8441  12.306  10.846   9.639  0.0440  0.1516 -0.1166
  528loPI   C4A 8442  12.346  10.830   9.276  0.1657  0.1371 -0.0944
  528loPI   C5A 8443  12.255  10.798   8.875  0.1317 -0.0150 -0.0469
  528loPI   C6A 8444  12.263  10.300   8.691  0.1437  0.1911  0.1944
  528loPI   C1B 8445  12.273  11.451  10.511  0.1597  0.2970 -0.0453
  528loPI   C2B 8446  12.300  11.340  10.149 -0.2723  0.0166  0.0107
  528loPI   C3B 8447  12.308  11.411   9.727  0.0483 -0.0557  0.2913
  528loPI   C4B 8448  12.107  11.263   9.355 -0.0087  0.1991  0.0430
  529loPI    C1 8449   7.602   4.611  11.540 -0.0728  0.1721  0.1022
  529loPI    C2 8450   7.832   4.387  11.779  0.1011  0.2603  0.0199
  529loPI    C3 8451   7.438   4.410  11.844  0.0791 -0.0739  0.0250
  529loPI   PO4 8452   7.642   4.470  11.347 -0.3790 -0.2838  0.0934
  529loPI   GL1 8453   7.435   4.481  11.005 -0.0548 -0.0500 -0.3369
  529loPI   GL2 8454   7.150   4.724  10.875 -0.1399  0.1834 -0.2412
  529loPI   C1A 8455   7.617   4.478  10.631  0.0221 -0.3145  0.2141
  529loPI   C2A 8456   7.758   4.453  10.205 -0.0415 -0.2541  0.4610
  529loPI   C3A 8457   7.732   4.451   9.778 -0.1362 -0.0613 -0.0395
  529loPI   C4A 8458   7.765   4.381   9.403 -0.1290  0.2448  0.0186
  529loPI   C5A 8459   7.706   4.353   9.012  0.0244 -0.0969 -0.6528
  529loPI   C6A 8460   7.772   4.305   8.568 -0.0793 -0.2101 -0.1548
  529loPI   C1B 8461   7.140   4.416  10.501  0.0936 -0.2026 -0.1295
  529loPI   C2B 8462   7.187   4.375  10.041 -0.2783 -0.1027  0.1452
  529loPI   C3B 8463   7.293   4.435   9.612 -0.0055  0.1185 -0.0429
  529loPI   C4B 8464   7.200   4.286   9.125  0.0310 -0.2564 -0.0936
  530loPI    C1 8465   3.702   5.937  11.691 -0.1186 -0.1598 -0.3493
  530loPI    C2 8466   3.426   5.923  11.980 -0.1642  0.1846 -0.3713
  530loPI    C3 8467   3.724   6.189  12.001  0.1285 -0.1355 -0.3845
  530loPI   PO4 8468   3.600   6.072  11.451  0.0751  0.2000  0.0539
  530loPI   GL1 8469   3.482   6.085  10.989 -0.2611  0.0567  0.2748
  530loPI   GL2 8470   3.219   6.046  10.917 -0.0655 -0.1729 -0.3185
  530loPI   C1A 8471   3.563   6.070  10.544 -0.0365 -0.1797 -0.1173
  530loPI   C2A 8472   3.608   6.101  10.139  0.1908  0.1121  0.1128
  530loPI   C3A 8473   3.504   6.092   9.697 -0.0759  0.1008  0.0815
  530loPI   C4A 8474   3.612   6.234   9.259  0.0314  0.2899  0.1440
  530loPI   C5A 8475   3.764   6.276   8.793  0.2790 -0.3095  0.3211
  530loPI   C6A 8476   3.926   6.664   8.504  0.0618 -0.2124  0.1193
  530loPI   C1B 8477   3.101   6.251  10.509  0.0091  0.1971 -0.0644
  530loPI   C2B 8478   3.188   6.353  10.127  0.0293 -0.0278  0.0305
  530loPI   C3B 8479   3.002   6.373   9.673 -0.0644 -0.0427  0.1581
  530loPI   C4B 8480   3.139   6.439   9.250 -0.0955  0.0266 -0.1478
  531loPI    C1 8481  10.899  15.229  11.668 -0.0428  0.0409  0.1316
  531loPI    C2 8482  10.883  14.855  11.809 -0.1331  0.0042  0.0252
  531loPI    C3 8483  10.697  14.948  11.467 -0.0656  0.1341  0.0233
  531loPI   PO4 8484  11.160  15.312  11.650  0.2924  0.0156 -0.0111
  531loPI   GL1 8485  11.354  15.404  11.339 -0.0429  0.1239  0.0506
  531loPI   GL2 8486  11.692  15.425  11.169  0.1408  0.3422  0.4326
  531loPI   C1A 8487  11.272  15.498  10.956 -0.1057 -0.1305 -0.0453
  531loPI   C2A 8488  11.220  15.467  10.463  0.1869 -0.2529 -0.0880
  531loPI   C3A 8489  11.244  15.427  10.064  0.2906  0.0012 -0.2605
  531loPI   C4A 8490  11.342  15.465   9.466 -0.1801 -0.0425 -0.1202
  531loPI   C5A 8491  11.198  15.348   9.077  0.3517  0.1247  0.0189
  531loPI   C6A 8492  11.250  15.388   8.589 -0.0969  0.1172 -0.2663
  531loPI   C1B 8493  11.736  15.474  10.730  0.1762 -0.1779 -0.1331
  531loPI   C2B 8494  11.764  15.467  10.324  0.0145 -0.1244  0.2014
  531loPI   C3B 8495  11.818  15.478   9.883  0.1756  0.0933 -0.0239
  531loPI   C4B 8496  11.823  15.346   9.456 -0.0758  0.0059 -0.0796
  532loPI    C1 8497  16.441  10.906  11.252 -0.1698  0.0773 -0.0835
  532loPI    C2 8498  16.162  10.620  11.237  0.0249 -0.1256  0.0886
  532loPI    C3 8499  16.341  10.707  11.584  0.1157  0.0623 -0.0039
  532loPI   PO4 8500  16.583  10.865  11.140  0.3984 -0.0892  0.1800
  532loPI   GL1 8501  16.636  10.736  10.752 -0.0059 -0.0426 -0.0699
  532loPI   GL2 8502  16.250  10.774  10.755 -0.2543  0.1785  0.1970
  532loPI   C1A 8503  16.847  10.638  10.301  0.3415  0.0429  0.0753
  532loPI   C2A 8504  16.770  10.661   9.873  0.0359  0.0450 -0.0995
  532loPI   C3A 8505  16.884  10.712   9.398  0.0615 -0.0159  0.1146
  532loPI   C4A 8506  16.673  10.772   8.965  0.2127 -0.2468 -0.0241
  532loPI   C5A 8507  16.646  10.462   8.679  0.1210 -0.1562 -0.0136
  532loPI   C6A 8508  16.631  10.090   8.419  0.1155  0.0414 -0.1871
  532loPI   C1B 8509  16.333  10.842  10.346  0.0785  0.1178 -0.0930
  532loPI   C2B 8510  16.251  10.813   9.892  0.0535 -0.0336  0.4116
  532loPI   C3B 8511  16.321  10.859   9.338  0.2352  0.3075 -0.0655
  532loPI   C4B 8512  16.088  10.889   8.843 -0.1892 -0.2335 -0.1840
  533loPI    C1 8513  16.363  10.224  11.659  0.1384  0.2159  0.0241
  533loPI    C2 8514  16.299   9.985  11.974  0.0624  0.2751  0.0539
  533loPI    C3 8515  16.392  10.370  12.030 -0.0565  0.3119  0.0033
  533loPI   PO4 8516  16.215  10.171  11.433 -0.2117 -0.0832 -0.3389
  533loPI   GL1 8517  16.180  10.166  11.040  0.0052  0.1884  0.0701
  533loPI   GL2 8518  15.893  10.326  10.894  0.3329  0.0670  0.1105
  533loPI   C1A 8519  16.012   9.864  10.789  0.0018  0.2653 -0.0517
  533loPI   C2A 8520  15.961  10.030  10.367  0.1040  0.1080  0.1126
  533loPI   C3A 8521  15.878  10.083   9.951  0.1597 -0.1102  0.1445
  533loPI   C4A 8522  15.958  10.086   9.549  0.0236  0.1260  0.0754
  533loPI   C5A 8523  15.891  10.042   9.111 -0.0546 -0.0832  0.4154
  533loPI   C6A 8524  16.255   9.971   8.728  0.0168 -0.1620 -0.3983
  533loPI   C1B 8525  15.895  10.530  10.480  0.0529  0.2091  0.1785
  533loPI   C2B 8526  15.900  10.638  10.160 -0.1014 -0.0524  0.0165
  533loPI   C3B 8527  15.852  10.546   9.763 -0.2530  0.1384  0.1500
  533loPI   C4B 8528  15.882  10.588   9.306  0.0808  0.1046 -0.0421
  534loPI    C1 8529   1.173  17.627  11.663 -0.3913 -0.1437 -0.0776
  534loPI    C2 8530   1.171  17.854  11.993 -0.1578  0.1718 -0.2872
  534loPI    C3 8531   1.457  17.578  11.941 -0.2619  0.0412 -0.1755
  534loPI   PO4 8532   1.152  17.805  11.469 -0.3835 -0.3104 -0.1542
  534loPI   GL1 8533   1.425  17.903  11.177  0.1490 -0.1039 -0.0373
  534loPI   GL2 8534   1.496  17.812  10.811  0.1359 -0.1420  0.3013
  534loPI   C1A 8535   1.192  18.241  10.829 -0.1601  0.0312 -0.0318
  534loPI   C2A 8536   1.158  18.356  10.394 -0.1120 -0.1140 -0.0181
  534loPI   C3A 8537   1.046  18.377   9.974  0.0721 -0.3223 -0.1356
  534loPI   C4A 8538   1.059  18.306   9.536 -0.0689  0.2670 -0.1645
  534loPI   C5A 8539   1.050  18.306   9.102  0.2350 -0.2341  0.2377
  534loPI   C6A 8540   0.992  18.447   8.693 -0.1138 -0.0630 -0.3368
  534loPI   C1B 8541   1.423  17.882  10.318 -0.0813 -0.0976  0.1908
  534loPI   C2B 8542   1.304  17.882   9.848 -0.1246 -0.1731  0.0706
  534loPI   C3B 8543   1.347  17.937   9.499  0.2118  0.2990  0.0207
  534loPI   C4B 8544   1.381  17.721   9.015 -0.0204  0.1829  0.0278
  535loPI    C1 8545   7.354   7.473  11.571  0.0422 -0.0846  0.0575
  535loPI    C2 8546   7.005   7.535  11.756 -0.0363  0.0310 -0.1261
  535loPI    C3 8547   7.334   7.457  11.970 -0.1301  0.1364  0.0597
  535loPI   PO4 8548   7.400   7.274  11.390 -0.0348 -0.0900 -0.1363
  535loPI   GL1 8549   7.225   7.238  10.985  0.1939 -0.1085  0.1621
  535loPI   GL2 8550   7.585   7.470  10.941 -0.0586 -0.0516  0.2897
  535loPI   C1A 8551   7.197   7.452  10.545 -0.1361  0.0910 -0.4778
  535loPI   C2A 8552   7.150   7.419  10.019  0.0737 -0.1333 -0.0198
  535loPI   C3A 8553   6.988   7.444   9.590 -0.1163  0.1523 -0.1170
  535loPI   C4A 8554   7.084   7.457   9.092  0.2556  0.1276 -0.0232
  535loPI   C5A 8555   7.139   7.531   8.662  0.3124  0.1184  0.0431
  535loPI   C6A 8556   7.271   7.850   8.252  0.1479 -0.0863  0.2014
  535loPI   C1B 8557   7.627   7.693  10.585 -0.2026  0.1134 -0.0172
  535loPI   C2B 8558   7.545   7.777  10.270  0.0034  0.1089 -0.1070
  535loPI   C3B 8559   7.489   7.717   9.853  0.3581 -0.0547 -0.1562
  535loPI   C4B 8560   7.466   7.671   9.451 -0.1067 -0.2831  0.0446
  536loPI    C1 8561   9.926  14.999  11.824  0.0069  0.3122 -0.1587
  536loPI    C2 8562   9.553  14.915  11.942  0.0158  0.2481 -0.1757
  536loPI    C3 8563   9.759  15.208  12.120  0.1203 -0.0117  0.1410
  536loPI   PO4 8564   9.911  15.132  11.603  0.3015  0.1593  0.1531
  536loPI   GL1 8565   9.785  15.187  11.096 -0.0524  0.0692 -0.2338
  536loPI   GL2 8566   9.752  15.519  10.956 -0.0741  0.0034  0.0616
  536loPI   C1A 8567  10.016  15.044  10.625 -0.2409 -0.0823 -0.1611
  536loPI   C2A 8568   9.971  14.979  10.176 -0.0528 -0.3180 -0.4738
  536loPI   C3A 8569   9.958  14.978   9.738 -0.0178 -0.0986  0.1654
  536loPI   C4A 8570   9.987  14.954   9.368 -0.1265 -0.1365 -0.1818
  536loPI   C5A 8571   9.887  14.844   8.920  0.0736  0.0081  0.0905
  536loPI   C6A 8572   9.839  14.583   8.447 -0.1190  0.2400 -0.1657
  536loPI   C1B 8573   9.731  15.471  10.564 -0.0146  0.1031 -0.1120
  536loPI   C2B 8574   9.742  15.461  10.196 -0.2001 -0.0794 -0.1382
  536loPI   C3B 8575   9.653  15.359   9.748 -0.0336 -0.2559 -0.0465
  536loPI   C4B 8576   9.605  15.335   9.328  0.0490 -0.3156  0.2005
  537loPI    C1 8577   0.407   6.172  11.617 -0.0111 -0.0993  0.0522
  537loPI    C2 8578   0.060   6.343  11.718  0.1170  0.0828  0.1903
  537loPI    C3 8579   0.332   6.259  12.000  0.0424 -0.3870  0.1302
  537loPI   PO4 8580   0.504   6.290  11.446 -0.1832 -0.1206  0.1097
  537loPI   GL1 8581   0.619   6.328  11.076  0.0845 -0.1712 -0.0263
  537loPI   GL2 8582   0.829   6.049  10.966  0.0882 -0.2113 -0.0666
  537loPI   C1A 8583   0.382   6.073  10.753 -0.2115 -0.0863 -0.0758
  537loPI   C2A 8584   0.427   6.097  10.325  0.2457  0.2821  0.1465
  537loPI   C3A 8585   0.443   6.185   9.852 -0.2869  0.0105 -0.0921
  537loPI   C4A 8586   0.449   6.140   9.471  0.2508 -0.0420  0.2042
  537loPI   C5A 8587   0.424   5.746   9.361 -0.4520  0.3034  0.1604
  537loPI   C6A 8588   0.397   5.460   9.068  0.0743 -0.1014 -0.1646
  537loPI   C1B 8589   0.968   6.135  10.542 -0.1417 -0.2010  0.0918
  537loPI   C2B 8590   0.869   6.212  10.127  0.0042  0.3936 -0.1655
  537loPI   C3B 8591   0.868   6.351   9.674 -0.4668  0.0074 -0.1414
  537loPI   C4B 8592   0.895   6.420   9.290 -0.0420 -0.2167 -0.0233
  538loPI    C1 8593   0.515  10.369  11.639  0.0921 -0.0549 -0.0413
  538loPI    C2 8594   0.700  10.706  11.751  0.1798 -0.0995 -0.0515
  538loPI    C3 8595   0.426  10.540  11.990 -0.0456  0.1140 -0.1565
  538loPI   PO4 8596   0.513  10.447  11.352 -0.1330  0.0677  0.2294
  538loPI   GL1 8597   0.361  10.374  10.883  0.1177  0.1628  0.2583
  538loPI   GL2 8598   0.366  10.608  10.879  0.0434 -0.1602  0.0219
  538loPI   C1A 8599   0.138  10.177  10.582  0.1991 -0.2256 -0.0081
  538loPI   C2A 8600   0.096  10.254  10.160 -0.2065 -0.3862 -0.0460
  538loPI   C3A 8601   0.050  10.279   9.706 -0.0674  0.0888  0.4246
  538loPI   C4A 8602   0.136  10.316   9.238  0.2128  0.0572  0.0728
  538loPI   C5A 8603   0.341  10.309   8.898  0.2209 -0.1705 -0.0952
  538loPI   C6A 8604   0.376  10.232   8.449 -0.2511  0.1873 -0.0829
  538loPI   C1B 8605   0.439  10.522  10.421 -0.0855  0.3210  0.1042
  538loPI   C2B 8606   0.546  10.541  10.108 -0.2309  0.6131  0.0918
  538loPI   C3B 8607   0.568  10.576   9.748  0.3524 -0.1099 -0.0973
  538loPI   C4B 8608   0.530  10.591   9.303 -0.1546 -0.1711  0.3547
  539loPI    C1 8609  16.737   0.748  11.760  0.1659  0.0204  0.0315
  539loPI    C2 8610  17.092   0.891  11.876  0.0499  0.0784  0.3245
  539loPI    C3 8611  16.757   1.019  12.054 -0.1273  0.0917 -0.0103
  539loPI   PO4 8612  16.759   0.752  11.535  0.0320 -0.2094  0.2398
  539loPI   GL1 8613  16.641   0.711  11.115  0.0598  0.0428 -0.1045
  539loPI   GL2 8614  16.829   0.514  11.073  0.0876  0.1661 -0.1195
  539loPI   C1A 8615  16.501   1.004  10.837  0.0655 -0.0759  0.1087
  539loPI   C2A 8616  16.468   1.103  10.360  0.0012 -0.2380 -0.0079
  539loPI   C3A 8617  16.443   1.013   9.963 -0.3435  0.2418 -0.1153
  539loPI   C4A 8618  16.481   1.002   9.609 -0.1067 -0.1039 -0.1708
  539loPI   C5A 8619  16.616   1.035   9.298  0.0971 -0.3895  0.4776
  539loPI   C6A 8620  16.450   1.146   8.847  0.1977  0.0831 -0.1754
  539loPI   C1B 8621  16.682   0.608  10.635 -0.1641  0.0348  0.1522
  539loPI   C2B 8622  16.751   0.641  10.204  0.1482  0.0322  0.0151
  539loPI   C3B 8623  16.729   0.630   9.761  0.0898 -0.1893  0.0432
  539loPI   C4B 8624  16.741   0.543   9.325 -0.2148  0.2092  0.1186
  540loPI    C1 8625  15.739   4.457  11.734  0.2906 -0.3788  0.0205
  540loPI    C2 8626  16.117   4.553  11.820  0.1884 -0.0595  0.1296
  540loPI    C3 8627  15.858   4.480  12.115  0.1236 -0.1136  0.0596
  540loPI   PO4 8628  15.731   4.511  11.537 -0.0043 -0.1433  0.2046
  540loPI   GL1 8629  15.947   4.325  11.107  0.2755 -0.1782  0.1586
  540loPI   GL2 8630  15.945   4.638  10.993  0.2378 -0.0623  0.1362
  540loPI   C1A 8631  16.118   4.131  10.729 -0.0172  0.0665 -0.1617
  540loPI   C2A 8632  16.103   4.105  10.285  0.1582  0.0695 -0.0569
  540loPI   C3A 8633  16.177   4.159   9.856 -0.3559  0.2244  0.3558
  540loPI   C4A 8634  16.094   4.041   9.459  0.1014 -0.0378  0.2154
  540loPI   C5A 8635  16.226   3.850   8.983 -0.0747 -0.0913 -0.0539
  540loPI   C6A 8636  16.117   3.663   8.687  0.1765 -0.2748 -0.1168
  540loPI   C1B 8637  15.921   4.559  10.576  0.4273 -0.0106 -0.0167
  540loPI   C2B 8638  15.912   4.550  10.101 -0.0302  0.0355 -0.0293
  540loPI   C3B 8639  15.905   4.520   9.671  0.0874 -0.1322  0.0860
  540loPI   C4B 8640  15.830   4.680   9.276  0.0294 -0.3161 -0.0348
  541loPI    C1 8641   0.125   1.549  11.930 -0.0856  0.0977  0.0257
  541loPI    C2 8642   0.271   1.244  12.143 -0.1320 -0.1064 -0.2295
  541loPI    C3 8643  -0.119   1.333  12.162 -0.0847  0.0616 -0.0070
  541loPI   PO4 8644   0.186   1.526  11.620 -0.3540 -0.0476 -0.0996
  541loPI   GL1 8645   0.276   1.440  11.190 -0.1077  0.1679  0.0060
  541loPI   GL2 8646   0.131   1.164  11.224  0.0461  0.0032 -0.0279
  541loPI   C1A 8647   0.143   1.445  10.728  0.1279  0.2127  0.1734
  541loPI   C2A 8648   0.056   1.508  10.295  0.0302 -0.0329 -0.3142
  541loPI   C3A 8649  -0.011   1.544   9.906 -0.1227 -0.4234  0.0530
  541loPI   C4A 8650   0.067   1.467   9.495  0.0154 -0.0405 -0.1570
  541loPI   C5A 8651  -0.014   1.371   9.100 -0.3676  0.2827  0.3121
  541loPI   C6A 8652   0.188   1.236   8.678 -0.0459 -0.1606  0.1910
  541loPI   C1B 8653   0.366   1.024  10.880  0.2430 -0.0970  0.2418
  541loPI   C2B 8654   0.306   1.048  10.506  0.2997 -0.0587  0.2644
  541loPI   C3B 8655   0.308   1.075  10.141 -0.2354 -0.2037 -0.1285
  541loPI   C4B 8656   0.378   0.979   9.757  0.2325  0.0327  0.3379
  542loPI    C1 8657   6.428   0.944  11.347  0.1676  0.4147 -0.1410
  542loPI    C2 8658   6.482   0.735  11.684 -0.1917 -0.0114 -0.3367
  542loPI    C3 8659   6.424   1.130  11.701 -0.2716 -0.0373  0.1057
  542loPI   PO4 8660   6.257   0.817  11.205  0.0688  0.3459 -0.0867
  542loPI   GL1 8661   6.428   0.613  10.882 -0.0629  0.0661 -0.1169
  542loPI   GL2 8662   6.735   0.684  10.990  0.1891  0.0163 -0.1593
  542loPI   C1A 8663   6.255   0.768  10.393  0.0953 -0.1425 -0.3459
  542loPI   C2A 8664   6.200   0.771   9.974  0.0555  0.1590 -0.0906
  542loPI   C3A 8665   6.296   0.696   9.468  0.0642 -0.2161  0.1694
  542loPI   C4A 8666   6.478   0.798   9.093  0.0872  0.0105 -0.5213
  542loPI   C5A 8667   6.529   1.109   8.840 -0.0485 -0.2443 -0.0712
  542loPI   C6A 8668   6.355   1.510   8.596  0.2209  0.3234  0.1884
  542loPI   C1B 8669   6.864   0.809  10.538 -0.0165 -0.1933  0.3623
  542loPI   C2B 8670   6.750   0.847  10.140 -0.1765 -0.3540 -0.0314
  542loPI   C3B 8671   6.790   0.737   9.754  0.1454  0.2066 -0.1947
  542loPI   C4B 8672   6.845   0.842   9.351  0.2203 -0.2309 -0.0453
  543loPI    C1 8673   1.125  13.232  11.183  0.0775  0.1415  0.1507
  543loPI    C2 8674   1.145  13.631  11.199  0.2943  0.1440 -0.1182
  543loPI    C3 8675   1.007  13.425  11.513  0.1969  0.4281  0.0285
  543loPI   PO4 8676   1.018  13.193  10.886 -0.1569 -0.1020 -0.2007
  543loPI   GL1 8677   1.258  13.053  10.562  0.2975 -0.2445 -0.2461
  543loPI   GL2 8678   1.252  13.326  10.457 -0.0692 -0.1761 -0.1343
  543loPI   C1A 8679   1.185  13.083  10.002  0.0126 -0.0051 -0.0658
  543loPI   C2A 8680   1.205  13.203   9.616  0.1638  0.0195  0.1911
  543loPI   C3A 8681   1.215  13.310   9.155 -0.0347 -0.0009  0.0931
  543loPI   C4A 8682   1.444  13.335   8.852 -0.0330  0.1348 -0.0187
  543loPI   C5A 8683   1.548  13.398   8.479  0.0936  0.0322 -0.0360
  543loPI   C6A 8684   1.692  13.069   8.148  0.1389  0.1195  0.1273
  543loPI   C1B 8685   1.542  13.346  10.249 -0.2077  0.0662  0.3370
  543loPI   C2B 8686   1.712  13.431   9.826  0.0807  0.2127  0.2277
  543loPI   C3B 8687   1.704  13.545   9.389  0.1683  0.3227 -0.6171
  543loPI   C4B 8688   1.694  13.735   9.013  0.1439  0.1504  0.3152
  544loPI    C1 8689   5.395  10.017  11.369  0.0697  0.0183  0.0629
  544loPI    C2 8690   5.037   9.883  11.486 -0.0276  0.2441  0.0285
  544loPI    C3 8691   5.366   9.774  11.686 -0.0982 -0.0789 -0.0255
  544loPI   PO4 8692   5.355  10.033  11.140  0.1726  0.1519 -0.1601
  544loPI   GL1 8693   5.184  10.355  10.855  0.3336 -0.2994  0.1399
  544loPI   GL2 8694   4.936  10.619  10.863  0.2116 -0.0495  0.2983
  544loPI   C1A 8695   5.074  10.361  10.420 -0.1138  0.1317 -0.2772
  544loPI   C2A 8696   5.126  10.377   9.927  0.2004 -0.1534  0.2549
  544loPI   C3A 8697   5.014  10.387   9.401  0.1482 -0.0118  0.2180
  544loPI   C4A 8698   4.911  10.403   8.922  0.0361  0.0960  0.1645
  544loPI   C5A 8699   5.043  10.101   8.570 -0.1204 -0.1163 -0.0325
  544loPI   C6A 8700   5.046   9.712   8.364  0.3225  0.1096 -0.1243
  544loPI   C1B 8701   5.006  10.892  10.542  0.0012  0.0999  0.0967
  544loPI   C2B 8702   5.100  10.790  10.156 -0.0573  0.3369 -0.4388
  544loPI   C3B 8703   5.084  10.899   9.718 -0.0254 -0.0318  0.3092
  544loPI   C4B 8704   5.042  10.916   9.331  0.1005  0.0998  0.2253
  545loPI    C1 8705   6.398   7.146  11.566 -0.1309 -0.0847 -0.0475
  545loPI    C2 8706   6.375   6.964  11.921  0.1641 -0.0912 -0.0292
  545loPI    C3 8707   6.675   7.218  11.845 -0.0238  0.0850 -0.1950
  545loPI   PO4 8708   6.368   7.019  11.416 -0.1819  0.0127 -0.0107
  545loPI   GL1 8709   6.246   6.926  10.941 -0.3081  0.3212 -0.0300
  545loPI   GL2 8710   6.279   7.186  10.781  0.0909  0.0458 -0.2289
  545loPI   C1A 8711   6.224   6.829  10.431  0.0713  0.2547  0.2483
  545loPI   C2A 8712   6.185   6.777   9.992  0.0701 -0.0424 -0.2116
  545loPI   C3A 8713   6.134   6.808   9.491  0.2788 -0.1030 -0.0639
  545loPI   C4A 8714   6.343   6.844   9.133  0.2753  0.3286  0.2051
  545loPI   C5A 8715   6.212   6.997   8.777 -0.0185 -0.0527 -0.3139
  545loPI   C6A 8716   6.157   7.261   8.322  0.0351  0.0998 -0.2239
  545loPI   C1B 8717   6.289   7.315  10.335 -0.2252  0.1145  0.2582
  545loPI   C2B 8718   6.134   7.269   9.957  0.0930 -0.1384  0.1815
  545loPI   C3B 8719   6.132   7.386   9.493 -0.0108  0.3174 -0.1932
  545loPI   C4B 8720   6.223   7.409   9.011 -0.0206  0.1794  0.1352
  546loPI    C1 8721   2.129   6.495  11.403  0.2181  0.2709  0.1222
  546loPI    C2 8722   2.074   6.489  11.799  0.1213  0.1793  0.1079
  546loPI    C3 8723   2.054   6.149  11.589  0.2974  0.2092  0.0405
  546loPI   PO4 8724   2.339   6.626  11.226  0.1131 -0.0251 -0.0364
  546loPI   GL1 8725   2.334   6.884  10.936  0.3172 -0.1563 -0.3180
  546loPI   GL2 8726   2.634   7.157  10.923 -0.1285 -0.2871 -0.0805
  546loPI   C1A 8727   2.264   6.766  10.399 -0.0484 -0.1339  0.1956
  546loPI   C2A 8728   2.148   6.781   9.918  0.1376  0.0471 -0.0362
  546loPI   C3A 8729   2.101   6.760   9.423  0.2360  0.0891  0.0096
  546loPI   C4A 8730   2.249   6.736   9.054  0.1741 -0.0810  0.2274
  546loPI   C5A 8731   2.445   6.854   8.673  0.3651 -0.0286 -0.1158
  546loPI   C6A 8732   2.657   6.989   8.255 -0.0969 -0.0085  0.1179
  546loPI   C1B 8733   2.684   7.067  10.454 -0.0892 -0.0455  0.0065
  546loPI   C2B 8734   2.702   7.115   9.996  0.0604 -0.1294  0.1674
  546loPI   C3B 8735   2.559   7.091   9.537  0.0491  0.2427 -0.0059
  546loPI   C4B 8736   2.557   7.120   9.111 -0.0344 -0.0624 -0.6325
  547loPI    C1 8737  10.501   9.086  11.521  0.1779  0.1109 -0.0276
  547loPI    C2 8738  10.545   8.789  11.785  0.3229  0.1361 -0.0229
  547loPI    C3 8739  10.651   9.162  11.883 -0.1806  0.2556  0.0955
  547loPI   PO4 8740  10.547   9.044  11.318 -0.1827 -0.2418  0.2250
  547loPI   GL1 8741  10.651   9.223  10.861 -0.2534 -0.1352 -0.0381
  547loPI   GL2 8742  10.349   9.093  10.830 -0.1757 -0.2356  0.0740
  547loPI   C1A 8743  10.657   9.245  10.430  0.0527  0.3965  0.1080
  547loPI   C2A 8744  10.739   9.243   9.966 -0.0695  0.2579 -0.0607
  547loPI   C3A 8745  10.603   9.067   9.586  0.4228  0.2937 -0.0025
  547loPI   C4A 8746  10.488   9.077   9.118 -0.0883  0.2678  0.0693
  547loPI   C5A 8747  10.414   8.814   8.670  0.0212  0.1758  0.1932
  547loPI   C6A 8748  10.449   8.787   8.267 -0.3098  0.2593 -0.1321
  547loPI   C1B 8749  10.176   9.005  10.460 -0.3047 -0.0517  0.1207
  547loPI   C2B 8750  10.266   8.920   9.951 -0.3068  0.0756 -0.3097
  547loPI   C3B 8751  10.137   8.833   9.520  0.3878  0.0259  0.1387
  547loPI   C4B 8752  10.080   8.814   9.093 -0.2368 -0.0029  0.3538
  548loPI    C1 8753   8.887   7.175  11.429  0.1845  0.0060  0.0620
  548loPI    C2 8754   8.693   7.446  11.650 -0.3316 -0.1283 -0.2105
  548loPI    C3 8755   8.739   7.073  11.787 -0.1150 -0.0539 -0.0757
  548loPI   PO4 8756   8.835   7.263  11.212  0.0564 -0.2316 -0.1906
  548loPI   GL1 8757   8.852   7.246  10.812  0.0072 -0.1033 -0.0750
  548loPI   GL2 8758   8.633   7.460  10.764  0.0230 -0.1079 -0.0487
  548loPI   C1A 8759   9.098   7.196  10.409 -0.0812  0.1637 -0.0189
  548loPI   C2A 8760   8.960   7.111  10.013  0.0581 -0.0746 -0.0359
  548loPI   C3A 8761   8.863   7.041   9.623 -0.4692  0.1114  0.0104
  548loPI   C4A 8762   8.883   6.893   9.125  0.3149 -0.1992  0.0121
  548loPI   C5A 8763   9.228   6.443   8.955 -0.1592  0.1982 -0.1434
  548loPI   C6A 8764   9.486   6.119   8.760 -0.1586 -0.0374 -0.0459
  548loPI   C1B 8765   8.595   7.336  10.343  0.0579  0.1575 -0.1115
  548loPI   C2B 8766   8.440   7.309   9.937  0.0262  0.2687 -0.0612
  548loPI   C3B 8767   8.386   7.349   9.497  0.0094  0.0773 -0.4103
  548loPI   C4B 8768   8.439   7.341   9.049  0.0919  0.0561  0.0648
  549loPI    C1 8769   7.157   6.103  11.467 -0.2343 -0.2031 -0.0411
  549loPI    C2 8770   6.965   6.375  11.688 -0.1130 -0.0301 -0.1454
  549loPI    C3 8771   7.193   6.098  11.865 -0.1845 -0.0237 -0.0424
  549loPI   PO4 8772   7.277   6.211  11.297  0.0207 -0.0306 -0.2662
  549loPI   GL1 8773   7.320   6.208  10.880 -0.0341 -0.0649  0.1443
  549loPI   GL2 8774   7.555   6.094  10.835 -0.2632  0.3166  0.1042
  549loPI   C1A 8775   7.224   5.964  10.505  0.0092  0.0233  0.2195
  549loPI   C2A 8776   7.388   5.790  10.131 -0.1845  0.1731 -0.2599
  549loPI   C3A 8777   7.339   5.774   9.763  0.3589  0.0513  0.0174
  549loPI   C4A 8778   7.429   6.094   9.479  0.0750  0.0326 -0.3061
  549loPI   C5A 8779   7.438   6.212   9.059 -0.0104  0.1562 -0.1998
  549loPI   C6A 8780   7.728   6.514   8.946  0.2088  0.3270 -0.0208
  549loPI   C1B 8781   7.706   6.227  10.374  0.0190  0.2942 -0.1162
  549loPI   C2B 8782   7.844   6.097   9.989 -0.1022  0.1910  0.0210
  549loPI   C3B 8783   7.867   5.859   9.647  0.5558 -0.1165 -0.1324
  549loPI   C4B 8784   8.128   5.928   9.208 -0.0446 -0.0319  0.2001
  550loPI    C1 8785   7.460   3.513  11.559 -0.0376 -0.1865  0.0120
  550loPI    C2 8786   7.158   3.731  11.705  0.0471 -0.0349 -0.0358
  550loPI    C3 8787   7.296   3.416  11.910  0.0616  0.0817  0.1355
  550loPI   PO4 8788   7.408   3.573  11.314  0.2164  0.0072  0.2392
  550loPI   GL1 8789   7.480   3.895  11.072  0.2979 -0.0329  0.3040
  550loPI   GL2 8790   7.692   3.617  10.834 -0.0245 -0.0211 -0.0188
  550loPI   C1A 8791   7.460   4.044  10.636  0.0842 -0.2587  0.1191
  550loPI   C2A 8792   7.481   4.045  10.235 -0.0899 -0.0494 -0.2477
  550loPI   C3A 8793   7.435   3.961   9.842  0.0918 -0.2740 -0.1359
  550loPI   C4A 8794   7.524   3.960   9.415 -0.2026  0.3160 -0.3672
  550loPI   C5A 8795   7.492   3.889   9.018  0.1537 -0.0511  0.4144
  550loPI   C6A 8796   7.239   3.595   8.702  0.2977 -0.0373  0.2447
  550loPI   C1B 8797   7.673   3.595  10.292  0.1720  0.2060 -0.0674
  550loPI   C2B 8798   7.704   3.545   9.876 -0.1262  0.0084 -0.1594
  550loPI   C3B 8799   7.789   3.478   9.450 -0.1578  0.0075 -0.1609
  550loPI   C4B 8800   7.787   3.467   8.980 -0.0906 -0.0439 -0.0405
  551loPI    C1 8801  15.635  12.599  11.578 -0.0158 -0.1588 -0.0763
  551loPI    C2 8802  15.559  12.234  11.723  0.0589 -0.1906 -0.1169
  551loPI    C3 8803  15.894  12.426  11.829 -0.0266 -0.0938 -0.0204
  551loPI   PO4 8804  15.649  12.529  11.279 -0.0920 -0.3352 -0.1929
  551loPI   GL1 8805  15.867  12.340  10.846 -0.0310  0.0516  0.1153
  551loPI   GL2 8806  16.061  12.602  10.930 -0.1695  0.1650  0.1087
  551loPI   C1A 8807  15.726  12.045  10.505 -0.1995 -0.0476 -0.2754
  551loPI   C2A 8808  15.768  12.123  10.101 -0.1743 -0.0215  0.1485
  551loPI   C3A 8809  15.812  12.113   9.684 -0.2920 -0.1052  0.0743
  551loPI   C4A 8810  15.778  12.073   9.220 -0.2479  0.0350 -0.2417
  551loPI   C5A 8811  16.023  12.073   8.846 -0.1616 -0.2293  0.0973
  551loPI   C6A 8812  15.856  12.319   8.588  0.1963  0.1684 -0.0560
  551loPI   C1B 8813  16.239  12.418  10.472  0.0885 -0.0342  0.2801
  551loPI   C2B 8814  16.236  12.372  10.128 -0.0742 -0.1824  0.2921
  551loPI   C3B 8815  16.234  12.365   9.684 -0.0976  0.0197 -0.0139
  551loPI   C4B 8816  16.262  12.362   9.201 -0.1621  0.0353 -0.0624
  552loPI    C1 8817   9.511   9.341  11.369  0.1227  0.0769 -0.0817
  552loPI    C2 8818   9.709   8.998  11.313 -0.2133 -0.1124 -0.1361
  552loPI    C3 8819   9.628   9.124  11.684 -0.0533 -0.0687 -0.1151
  552loPI   PO4 8820   9.638   9.589  11.174 -0.3441  0.0498  0.1936
  552loPI   GL1 8821   9.559   9.835  10.867 -0.1885 -0.0469  0.0652
  552loPI   GL2 8822   9.771   9.729  10.674 -0.0575  0.3649 -0.0240
  552loPI   C1A 8823   9.250   9.969  10.441  0.0714  0.0434 -0.0080
  552loPI   C2A 8824   9.236   9.938  10.002 -0.5965  0.2473 -0.0769
  552loPI   C3A 8825   9.239   9.893   9.617 -0.0397 -0.0985  0.0284
  552loPI   C4A 8826   9.294   9.861   9.206 -0.0042 -0.0557  0.1052
  552loPI   C5A 8827   9.161   9.794   8.834 -0.0356  0.0985 -0.2079
  552loPI   C6A 8828   9.078   9.874   8.421 -0.1205  0.3331  0.1934
  552loPI   C1B 8829   9.736   9.697  10.268 -0.1490  0.2583 -0.2861
  552loPI   C2B 8830   9.737   9.747   9.825 -0.0822  0.4662 -0.0799
  552loPI   C3B 8831   9.615   9.534   9.475  0.0901 -0.1400  0.3936
  552loPI   C4B 8832   9.636   9.507   9.032  0.0265 -0.0815 -0.1066
  553loPI    C1 8833   5.448  10.567  11.493  0.0965 -0.0269  0.0180
  553loPI    C2 8834   5.179  10.394  11.734  0.3377 -0.3104  0.0902
  553loPI    C3 8835   5.424  10.677  11.877 -0.0129  0.0546 -0.0116
  553loPI   PO4 8836   5.343  10.651  11.291  0.1811 -0.4538  0.0847
  553loPI   GL1 8837   5.416  10.848  10.885 -0.0888  0.0391 -0.4508
  553loPI   GL2 8838   5.378  11.186  10.860 -0.3302  0.1450 -0.3455
  553loPI   C1A 8839   5.519  10.717  10.471  0.1307 -0.2807 -0.0689
  553loPI   C2A 8840   5.596  10.601  10.003  0.0714  0.0565  0.1052
  553loPI   C3A 8841   5.508  10.671   9.534 -0.1697 -0.1637  0.1759
  553loPI   C4A 8842   5.444  10.769   9.113  0.1418 -0.2170  0.0353
  553loPI   C5A 8843   5.616  10.898   8.728  0.0148 -0.0924 -0.1928
  553loPI   C6A 8844   5.748  10.924   8.261 -0.0759  0.2996  0.2392
  553loPI   C1B 8845   5.437  11.169  10.384  0.0584 -0.2709  0.2836
  553loPI   C2B 8846   5.538  11.176   9.927 -0.2328  0.0130  0.0463
  553loPI   C3B 8847   5.506  11.177   9.461 -0.0274  0.0722  0.0224
  553loPI   C4B 8848   5.533  11.302   9.069 -0.1342 -0.0546  0.1406
  554loPI    C1 8849   3.563   0.605  11.874 -0.2107  0.0769  0.1309
  554loPI    C2 8850   3.281   0.877  11.952 -0.2495  0.0479  0.0920
  554loPI    C3 8851   3.456   0.680  12.252 -0.0438  0.2938  0.1374
  554loPI   PO4 8852   3.485   0.382  11.675 -0.1976  0.0834  0.0941
  554loPI   GL1 8853   3.392   0.512  11.125  0.0687 -0.0752 -0.1263
  554loPI   GL2 8854   3.646   0.700  10.902 -0.0192  0.0361 -0.0200
  554loPI   C1A 8855   3.220   0.636  10.703  0.0126  0.0769 -0.2887
  554loPI   C2A 8856   3.257   0.644  10.245 -0.0968 -0.1831  0.1625
  554loPI   C3A 8857   3.096   0.659   9.818 -0.0687  0.0101 -0.1493
  554loPI   C4A 8858   3.238   0.587   9.348 -0.1014 -0.1002 -0.1365
  554loPI   C5A 8859   3.340   0.852   8.936  0.1522  0.1383 -0.2558
  554loPI   C6A 8860   3.104   0.970   8.539 -0.3262 -0.0427  0.0648
  554loPI   C1B 8861   3.695   0.662  10.535  0.3561  0.2308 -0.0223
  554loPI   C2B 8862   3.718   0.663  10.043  0.2156 -0.0760  0.3210
  554loPI   C3B 8863   3.694   0.665   9.655  0.2175  0.0830 -0.0322
  554loPI   C4B 8864   3.744   0.625   9.109  0.0051 -0.0002 -0.2296
  555loPI    C1 8865  10.116  17.146  11.891 -0.0763 -0.2453 -0.0675
  555loPI    C2 8866   9.910  17.056  12.221  0.3026 -0.0322  0.2361
  555loPI    C3 8867  10.080  17.415  12.184  0.1845 -0.0189 -0.2387
  555loPI   PO4 8868  10.051  17.007  11.708 -0.3026  0.0172  0.0243
  555loPI   GL1 8869  10.091  16.991  11.245  0.0540 -0.0428  0.1355
  555loPI   GL2 8870   9.935  16.873  10.884 -0.0835  0.3093  0.0374
  555loPI   C1A 8871  10.164  17.305  10.825  0.1318  0.0034  0.0338
  555loPI   C2A 8872  10.175  17.269  10.370  0.0064 -0.1955 -0.2092
  555loPI   C3A 8873  10.171  17.292   9.920 -0.2051  0.2356 -0.2328
  555loPI   C4A 8874  10.165  17.234   9.497 -0.1760 -0.0525 -0.0363
  555loPI   C5A 8875  10.045  17.345   9.093 -0.2551  0.3781 -0.0691
  555loPI   C6A 8876   9.636  17.324   8.951 -0.0305 -0.2493  0.0495
  555loPI   C1B 8877   9.890  16.801  10.400 -0.0956  0.0146  0.0275
  555loPI   C2B 8878   9.913  16.837   9.972 -0.2020 -0.3815 -0.1685
  555loPI   C3B 8879   9.907  16.815   9.543 -0.2255 -0.1338 -0.1400
  555loPI   C4B 8880   9.972  16.668   9.094 -0.3147  0.1584  0.0118
  556loPI    C1 8881  14.603   6.286  11.784 -0.1854 -0.0037  0.2341
  556loPI    C2 8882  14.626   6.625  11.994 -0.0744  0.1680 -0.0495
  556loPI    C3 8883  14.825   6.300  12.117 -0.0168  0.2635  0.1138
  556loPI   PO4 8884  14.735   6.413  11.504  0.1511 -0.0063 -0.0318
  556loPI   GL1 8885  14.787   6.368  11.038 -0.0996  0.1216 -0.2148
  556loPI   GL2 8886  14.525   6.606  11.015 -0.2140  0.1214 -0.2030
  556loPI   C1A 8887  15.021   6.587  10.696 -0.1585  0.0596  0.0049
  556loPI   C2A 8888  14.939   6.584  10.302 -0.0503  0.1541  0.1032
  556loPI   C3A 8889  14.966   6.567   9.862  0.1817 -0.0973 -0.0670
  556loPI   C4A 8890  15.048   6.507   9.541  0.1930  0.1484  0.0400
  556loPI   C5A 8891  14.897   6.463   9.143  0.1409 -0.0925 -0.0173
  556loPI   C6A 8892  15.009   6.331   8.736 -0.0967  0.0310  0.1281
  556loPI   C1B 8893  14.532   6.668  10.669  0.3123  0.0157  0.1633
  556loPI   C2B 8894  14.446   6.835  10.261  0.1159 -0.1078  0.4196
  556loPI   C3B 8895  14.485   6.768   9.878 -0.1959 -0.0349  0.1132
  556loPI   C4B 8896  14.518   6.677   9.508  0.0269 -0.0326 -0.0271
  557loPI    C1 8897   8.338   8.869  11.575 -0.1812 -0.0973  0.0021
  557loPI    C2 8898   8.689   9.060  11.602 -0.0319 -0.3639 -0.0115
  557loPI    C3 8899   8.437   9.059  11.913 -0.1023 -0.0221 -0.0624
  557loPI   PO4 8900   8.347   8.834  11.272  0.1005  0.0217 -0.1046
  557loPI   GL1 8901   8.482   8.931  10.887 -0.1364 -0.0010  0.3641
  557loPI   GL2 8902   8.732   9.083  11.077  0.1932  0.0688  0.1724
  557loPI   C1A 8903   8.466   8.837  10.409  0.0283 -0.0409 -0.3235
  557loPI   C2A 8904   8.330   8.788  10.022  0.3078 -0.0387  0.2591
  557loPI   C3A 8905   8.327   8.858   9.702  0.0190  0.1932 -0.1095
  557loPI   C4A 8906   8.282   8.761   9.358 -0.0874  0.2783 -0.0241
  557loPI   C5A 8907   8.254   8.754   8.956 -0.1955  0.0672  0.3179
  557loPI   C6A 8908   8.306   8.594   8.510 -0.2138  0.3708 -0.1605
  557loPI   C1B 8909   8.900   9.177  10.607  0.0523  0.1700  0.2892
  557loPI   C2B 8910   8.803   9.164  10.218 -0.0634 -0.4375 -0.1000
  557loPI   C3B 8911   8.810   9.027   9.785  0.0937 -0.2842  0.1710
  557loPI   C4B 8912   8.695   9.077   9.399 -0.1146  0.0313 -0.1241
  558loPI    C1 8913   1.768  15.918  11.523 -0.0129 -0.1363 -0.2341
  558loPI    C2 8914   1.775  16.154  11.846  0.0249 -0.1477 -0.2264
  558loPI    C3 8915   1.451  15.934  11.766  0.0504 -0.2151 -0.1454
  558loPI   PO4 8916   1.843  16.040  11.357 -0.0391  0.1291 -0.1368
  558loPI   GL1 8917   1.842  15.978  10.942  0.0819 -0.1646  0.0970
  558loPI   GL2 8918   1.691  15.700  10.779  0.1019  0.1350 -0.1626
  558loPI   C1A 8919   1.983  16.085  10.541 -0.0162 -0.0448  0.0041
  558loPI   C2A 8920   1.952  16.173  10.185 -0.0424 -0.0291  0.0422
  558loPI   C3A 8921   1.857  16.203   9.820 -0.2764  0.0797  0.3101
  558loPI   C4A 8922   1.991  16.245   9.288 -0.0919 -0.3409 -0.2890
  558loPI   C5A 8923   1.811  16.096   8.877 -0.1961  0.0039  0.0777
  558loPI   C6A 8924   2.109  16.418   8.700 -0.2136  0.0233 -0.4141
  558loPI   C1B 8925   1.778  15.700  10.357 -0.0853 -0.0241  0.1575
  558loPI   C2B 8926   1.660  15.681   9.945 -0.1856  0.2523  0.1995
  558loPI   C3B 8927   1.759  15.745   9.525 -0.2062  0.0601 -0.0225
  558loPI   C4B 8928   1.740  15.665   9.129 -0.2378 -0.1297 -0.2480
  559loPI    C1 8929   5.850   7.155  11.504 -0.2704 -0.1450  0.0426
  559loPI    C2 8930   5.468   7.224  11.601 -0.1275  0.2109  0.3787
  559loPI    C3 8931   5.759   7.308  11.862  0.1962  0.1225  0.0548
  559loPI   PO4 8932   5.828   7.216  11.247  0.0915  0.0499 -0.0853
  559loPI   GL1 8933   5.564   7.357  11.056  0.0633 -0.0710 -0.0426
  559loPI   GL2 8934   5.756   7.581  10.974  0.1354  0.1360 -0.1545
  559loPI   C1A 8935   5.387   7.376  10.664 -0.1071  0.1088 -0.0061
  559loPI   C2A 8936   5.304   7.246  10.274  0.2898 -0.0597 -0.1513
  559loPI   C3A 8937   5.300   7.188   9.803  0.1011  0.2576  0.1514
  559loPI   C4A 8938   5.189   7.355   9.425 -0.3691  0.4644 -0.0415
  559loPI   C5A 8939   5.235   7.436   9.006  0.0714 -0.1083 -0.0888
  559loPI   C6A 8940   5.237   7.411   8.514 -0.2329 -0.0422 -0.2159
  559loPI   C1B 8941   5.857   7.464  10.559  0.0698 -0.2051  0.2857
  559loPI   C2B 8942   5.776   7.514  10.155 -0.4249  0.0170 -0.1204
  559loPI   C3B 8943   5.660   7.541   9.720  0.2193 -0.1000  0.2183
  559loPI   C4B 8944   5.687   7.611   9.320  0.1142 -0.1470  0.1065
  560loPI    C1 8945  16.981  15.906  11.486  0.0314 -0.1355 -0.1183
  560loPI    C2 8946  17.326  15.773  11.335  0.2845  0.2416  0.1095
  560loPI    C3 8947  17.278  15.796  11.731 -0.0925 -0.0260  0.0840
  560loPI   PO4 8948  16.987  16.164  11.314  0.0593 -0.1019 -0.0054
  560loPI   GL1 8949  17.112  16.163  10.939 -0.0172  0.1542 -0.1069
  560loPI   GL2 8950  16.898  16.438  10.849  0.1723 -0.0058 -0.0136
  560loPI   C1A 8951  17.163  16.035  10.487  0.1581  0.2874 -0.0139
  560loPI   C2A 8952  17.160  15.971  10.075 -0.1629 -0.0379 -0.0318
  560loPI   C3A 8953  17.020  16.048   9.669  0.0379  0.2325  0.0207
  560loPI   C4A 8954  17.083  16.004   9.184  0.1878  0.1332  0.2596
  560loPI   C5A 8955  17.218  15.937   8.722  0.0768 -0.1248  0.1598
  560loPI   C6A 8956  17.548  15.816   8.453 -0.0299 -0.0546 -0.2018
  560loPI   C1B 8957  16.799  16.436  10.404  0.2044  0.1015 -0.1700
  560loPI   C2B 8958  16.940  16.410   9.961  0.3407  0.0465  0.0835
  560loPI   C3B 8959  16.738  16.467   9.562  0.1209  0.0696  0.2165
  560loPI   C4B 8960  16.798  16.459   9.237 -0.1977 -0.0139 -0.2105
  561loPI    C1 8961  17.433   4.619  11.717  0.2889  0.0842 -0.2308
  561loPI    C2 8962  17.795   4.563  11.878  0.1371 -0.1767  0.0308
  561loPI    C3 8963  17.487   4.337  11.995 -0.2228  0.3664  0.1731
  561loPI   PO4 8964  17.522   4.674  11.445 -0.0681  0.2788 -0.0261
  561loPI   GL1 8965  17.383   4.822  11.098  0.0390  0.2538  0.1188
  561loPI   GL2 8966  17.604   5.089  11.147  0.0159  0.0714 -0.0891
  561loPI   C1A 8967  17.382   4.644  10.779  0.0530 -0.2972 -0.1948
  561loPI   C2A 8968  17.478   4.578  10.399  0.1456  0.0983  0.1444
  561loPI   C3A 8969  17.395   4.634   9.974 -0.2910 -0.2391 -0.1258
  561loPI   C4A 8970  17.327   4.661   9.547 -0.2178 -0.1314 -0.1239
  561loPI   C5A 8971  17.470   4.861   9.132 -0.3738  0.0713  0.0089
  561loPI   C6A 8972  17.689   5.117   8.868 -0.1010  0.3190  0.0738
  561loPI   C1B 8973  17.640   5.214  10.761 -0.3782 -0.0555  0.1017
  561loPI   C2B 8974  17.516   5.039  10.431  0.2132 -0.0291  0.2261
  561loPI   C3B 8975  17.599   5.097   9.956 -0.1619  0.3253 -0.3527
  561loPI   C4B 8976  17.626   5.168   9.480 -0.0897 -0.1687 -0.0298
  562loPI    C1 8977   6.584  13.957  11.140 -0.1055  0.1612  0.1345
  562loPI    C2 8978   6.566  13.653  11.399 -0.0440  0.1720  0.1516
  562loPI    C3 8979   6.248  13.890  11.347 -0.0847  0.1182  0.1544
  562loPI   PO4 8980   6.683  13.902  10.911 -0.1728 -0.1391 -0.1019
  562loPI   GL1 8981   6.932  13.761  10.562  0.4569 -0.1053 -0.0621
  562loPI   GL2 8982   6.680  13.596  10.510  0.1255 -0.3665 -0.1741
  562loPI   C1A 8983   7.148  13.947  10.227 -0.2202  0.1106 -0.0712
  562loPI   C2A 8984   7.144  13.947   9.726  0.0449  0.1872  0.0546
  562loPI   C3A 8985   7.119  13.954   9.287 -0.0616  0.1667 -0.0958
  562loPI   C4A 8986   6.975  13.910   8.899  0.2405  0.0450 -0.4182
  562loPI   C5A 8987   7.156  14.167   8.515  0.3227 -0.1701 -0.0329
  562loPI   C6A 8988   7.408  14.441   8.209  0.0739 -0.3941 -0.1887
  562loPI   C1B 8989   6.691  13.630  10.030 -0.3274 -0.2444 -0.3530
  562loPI   C2B 8990   6.664  13.565   9.570 -0.2735  0.0271 -0.0124
  562loPI   C3B 8991   6.611  13.774   9.253  0.1155  0.0824 -0.0806
  562loPI   C4B 8992   6.558  13.623   8.815  0.2094 -0.0542 -0.0336
  563loPI    C1 8993  10.176   7.815  11.163 -0.2210  0.0932  0.0658
  563loPI    C2 8994  10.241   8.194  11.054 -0.0723  0.0216 -0.0991
  563loPI    C3 8995  10.304   8.082  11.432  0.2787  0.0713 -0.1395
  563loPI   PO4 8996  10.326   7.674  10.969  0.2783 -0.1928 -0.0512
  563loPI   GL1 8997  10.540   7.771  10.613  0.0195 -0.1645 -0.0797
  563loPI   GL2 8998  10.338   8.032  10.590  0.2310 -0.0079 -0.3613
  563loPI   C1A 8999  10.737   7.673  10.305 -0.0899 -0.0137 -0.1258
  563loPI   C2A 9000  11.111   7.826  10.168 -0.1628  0.2223  0.2216
  563loPI   C3A 9001  11.191   7.838   9.683  0.0272  0.3188 -0.1780
  563loPI   C4A 9002  11.118   7.826   9.307 -0.1236  0.0071  0.1021
  563loPI   C5A 9003  11.142   7.797   8.872  0.0666  0.2698 -0.0689
  563loPI   C6A 9004  10.958   7.756   8.482  0.2307 -0.0955 -0.1121
  563loPI   C1B 9005  10.242   7.900  10.193  0.0539 -0.0532 -0.2212
  563loPI   C2B 9006  10.213   7.865   9.700 -0.0082  0.1401  0.3752
  563loPI   C3B 9007  10.249   7.796   9.308  0.2577 -0.0798  0.3725
  563loPI   C4B 9008  10.099   7.911   8.890  0.1730  0.1172 -0.2279
  564loPI    C1 9009  11.713  11.412  11.518  0.2719 -0.1766 -0.0703
  564loPI    C2 9010  11.806  11.142  11.799  0.0634  0.1036  0.2762
  564loPI    C3 9011  11.919  11.523  11.843 -0.1182  0.1844  0.0617
  564loPI   PO4 9012  11.833  11.392  11.350  0.2273 -0.0611  0.0943
  564loPI   GL1 9013  11.655  11.428  10.937  0.0146 -0.0934 -0.3293
  564loPI   GL2 9014  11.351  11.364  10.764  0.1261  0.1001 -0.1436
  564loPI   C1A 9015  11.838  11.141  10.552 -0.0166 -0.2736  0.1308
  564loPI   C2A 9016  11.836  11.102  10.162  0.0263 -0.1221  0.0623
  564loPI   C3A 9017  11.865  11.116   9.790  0.1476  0.5477  0.2249
  564loPI   C4A 9018  11.702  11.051   9.368  0.1612  0.1010  0.4085
  564loPI   C5A 9019  11.771  11.106   8.830 -0.2277 -0.0738  0.3702
  564loPI   C6A 9020  11.905  11.167   8.406 -0.3084  0.2929  0.0197
  564loPI   C1B 9021  11.374  11.333  10.360  0.0876 -0.2457 -0.0198
  564loPI   C2B 9022  11.361  11.310   9.943  0.4876  0.0281  0.0276
  564loPI   C3B 9023  11.248  11.303   9.495  0.1622  0.1473  0.0544
  564loPI   C4B 9024  11.223  11.334   9.012 -0.2525  0.0625  0.0620
  565loPI    C1 9025   6.941   4.171  11.602 -0.1079  0.2571  0.0357
  565loPI    C2 9026   7.024   4.133  11.991 -0.0268  0.0327 -0.0018
  565loPI    C3 9027   6.896   4.484  11.847 -0.2370  0.0665  0.2595
  565loPI   PO4 9028   7.157   4.156  11.423  0.0818  0.0062 -0.2789
  565loPI   GL1 9029   7.029   4.214  11.043 -0.0900 -0.1963  0.0867
  565loPI   GL2 9030   6.690   4.221  11.060  0.2154 -0.1460  0.1397
  565loPI   C1A 9031   6.975   3.993  10.662  0.2623 -0.0463  0.1475
  565loPI   C2A 9032   6.954   3.948  10.304  0.0279  0.0236  0.1129
  565loPI   C3A 9033   6.924   3.985   9.881  0.5369  0.1069 -0.2441
  565loPI   C4A 9034   6.997   3.897   9.425  0.1621 -0.1673 -0.2256
  565loPI   C5A 9035   6.947   3.845   9.049 -0.0736 -0.2259  0.0946
  565loPI   C6A 9036   6.648   3.768   8.657  0.1541 -0.0956 -0.0420
  565loPI   C1B 9037   6.702   4.457  10.649  0.2082 -0.1504  0.1942
  565loPI   C2B 9038   6.703   4.451  10.151 -0.2419  0.2243 -0.1775
  565loPI   C3B 9039   6.757   4.388   9.693 -0.0516 -0.0849  0.5053
  565loPI   C4B 9040   6.739   4.359   9.223 -0.0995 -0.1005  0.0695
  566loPI    C1 9041  15.306   3.613  11.847 -0.1225  0.2721  0.1498
  566loPI    C2 9042  14.934   3.511  11.954 -0.1177  0.1339  0.0371
  566loPI    C3 9043  15.233   3.249  11.995 -0.1123  0.0836 -0.2932
  566loPI   PO4 9044  15.330   3.674  11.626  0.0318 -0.2220 -0.0797
  566loPI   GL1 9045  14.990   3.452  11.380 -0.0802  0.2912 -0.0273
  566loPI   GL2 9046  14.821   3.735  11.227  0.1034  0.0915 -0.1056
  566loPI   C1A 9047  15.051   3.382  11.022 -0.0507  0.0886 -0.1369
  566loPI   C2A 9048  15.136   3.307  10.608 -0.0032  0.4003  0.0037
  566loPI   C3A 9049  15.238   3.234  10.212  0.0629  0.0270 -0.0185
  566loPI   C4A 9050  15.148   3.272   9.785  0.1837 -0.4427 -0.1144
  566loPI   C5A 9051  15.167   3.262   9.388  0.0417  0.0163 -0.2017
  566loPI   C6A 9052  15.118   3.599   9.079 -0.0622 -0.2115  0.0052
  566loPI   C1B 9053  14.815   3.748  10.789 -0.1074 -0.1821 -0.0371
  566loPI   C2B 9054  14.852   3.697  10.429 -0.3502  0.0658 -0.1143
  566loPI   C3B 9055  14.950   3.727  10.027  0.0997 -0.0156 -0.0066
  566loPI   C4B 9056  14.866   3.603   9.533 -0.0519 -0.1897 -0.0840
  567loPI    C1 9057  11.149   1.707  11.601  0.1435 -0.3459 -0.0198
  567loPI    C2 9058  10.978   1.933  11.883  0.1421 -0.1221 -0.1970
  567loPI    C3 9059  11.351   1.797  11.934  0.0977 -0.1844 -0.0347
  567loPI   PO4 9060  11.030   1.833  11.374 -0.0513 -0.3450  0.0755
  567loPI   GL1 9061  11.059   1.965  10.962 -0.1260  0.1120 -0.1050
  567loPI   GL2 9062  10.639   1.834  10.935  0.1610 -0.0428  0.0769
  567loPI   C1A 9063  11.318   1.904  10.670 -0.0977  0.3857  0.0436
  567loPI   C2A 9064  11.387   1.864  10.246  0.1934 -0.0750  0.2893
  567loPI   C3A 9065  11.400   1.781   9.818 -0.0118  0.1259  0.1047
  567loPI   C4A 9066  11.400   1.891   9.377 -0.0183 -0.1452  0.2441
  567loPI   C5A 9067  11.284   1.904   8.856 -0.0916  0.1042 -0.2059
  567loPI   C6A 9068  10.949   1.983   8.578 -0.0638 -0.1366 -0.0159
  567loPI   C1B 9069  10.793   1.868  10.542 -0.3230  0.1096  0.1054
  567loPI   C2B 9070  10.844   1.834  10.114 -0.1203  0.1546 -0.0153
  567loPI   C3B 9071  10.893   1.860   9.626  0.0348  0.1580  0.0989
  567loPI   C4B 9072  10.848   1.860   9.106  0.1724  0.2256  0.0879
  568loPI    C1 9073  14.519   0.623  11.910  0.0217  0.1449  0.1195
  568loPI    C2 9074  14.431   0.959  12.109 -0.1862  0.0798  0.1398
  568loPI    C3 9075  14.686   0.694  12.267  0.1011  0.2993  0.0526
  568loPI   PO4 9076  14.337   0.646  11.735 -0.1918  0.2300 -0.1772
  568loPI   GL1 9077  14.304   0.593  11.262 -0.0022  0.0469 -0.3297
  568loPI   GL2 9078  14.492   0.780  11.184 -0.3104  0.0408 -0.1551
  568loPI   C1A 9079  14.182   0.541  10.814 -0.3219  0.1594 -0.0047
  568loPI   C2A 9080  14.159   0.536  10.421 -0.0686 -0.0460 -0.0774
  568loPI   C3A 9081  14.237   0.496   9.992 -0.0520 -0.3040 -0.0102
  568loPI   C4A 9082  14.245   0.577   9.655 -0.0644  0.0495 -0.0839
  568loPI   C5A 9083  14.307   0.688   9.224  0.2086  0.1840 -0.0895
  568loPI   C6A 9084  14.452   0.673   8.805  0.1086  0.0559  0.2438
  568loPI   C1B 9085  14.467   0.918  10.793  0.0110 -0.3591 -0.1368
  568loPI   C2B 9086  14.377   1.058  10.436  0.0723 -0.0665 -0.0052
  568loPI   C3B 9087  14.417   0.939  10.077  0.1478 -0.0747 -0.0089
  568loPI   C4B 9088  14.510   0.977   9.701  0.0491 -0.0974  0.2556
  569loPI    C1 9089   0.697   4.512  11.815  0.1404  0.0786  0.1103
  569loPI    C2 9090   0.610   4.603  12.195  0.1043 -0.0341  0.1294
  569loPI    C3 9091   0.700   4.893  11.935  0.0197  0.0529  0.1969
  569loPI   PO4 9092   0.537   4.453  11.673  0.0245 -0.1146 -0.0627
  569loPI   GL1 9093   0.282   4.444  11.278 -0.1058  0.0967  0.2361
  569loPI   GL2 9094   0.209   4.696  11.079 -0.0407 -0.4196  0.0152
  569loPI   C1A 9095   0.444   4.211  10.918  0.1837  0.3951  0.0047
  569loPI   C2A 9096   0.578   4.176  10.508 -0.1500  0.0537  0.2067
  569loPI   C3A 9097   0.528   4.265  10.034  0.1251 -0.0825  0.1289
  569loPI   C4A 9098   0.506   4.344   9.550  0.1722  0.0598 -0.0646
  569loPI   C5A 9099   0.413   4.050   9.174 -0.1077  0.1235 -0.2144
  569loPI   C6A 9100   0.409   3.659   8.964 -0.0634  0.3503 -0.0918
  569loPI   C1B 9101   0.223   4.657  10.659 -0.0611  0.2609  0.0198
  569loPI   C2B 9102   0.282   4.723  10.185 -0.1356 -0.1146 -0.1221
  569loPI   C3B 9103   0.263   4.776   9.769  0.0371 -0.0027  0.0604
  569loPI   C4B 9104   0.130   4.593   9.376 -0.0673  0.0277 -0.0964
  570loPI    C1 9105  11.180   0.862  12.008 -0.0315  0.2792 -0.0029
  570loPI    C2 9106  10.902   0.831  12.295 -0.0064 -0.0583 -0.0115
  570loPI    C3 9107  11.279   0.717  12.367  0.0307 -0.0185 -0.1378
  570loPI   PO4 9108  11.039   0.797  11.770  0.2481 -0.1534  0.0769
  570loPI   GL1 9109  11.058   0.725  11.282  0.1702 -0.2037 -0.2342
  570loPI   GL2 9110  11.299   0.518  11.066  0.0922  0.1460  0.3038
  570loPI   C1A 9111  10.944   0.941  10.855  0.1884  0.0027 -0.2288
  570loPI   C2A 9112  10.814   0.990  10.419 -0.1014 -0.0713  0.0615
  570loPI   C3A 9113  10.807   0.941   9.875 -0.2157 -0.3822 -0.2284
  570loPI   C4A 9114  10.802   1.018   9.520 -0.0350 -0.2037 -0.2465
  570loPI   C5A 9115  10.818   0.961   9.064  0.0025  0.4249  0.3014
  570loPI   C6A 9116  10.522   0.893   8.762 -0.0293  0.2535  0.1517
  570loPI   C1B 9117  11.135   0.565  10.620 -0.0620  0.2307  0.0737
  570loPI   C2B 9118  11.122   0.527  10.184  0.2516  0.0641 -0.0150
  570loPI   C3B 9119  11.135   0.483   9.756 -0.0958 -0.0534  0.0140
  570loPI   C4B 9120  11.101   0.522   9.341 -0.1601 -0.3177 -0.2073
  571loPI    C1 9121   2.091  17.397  11.475 -0.1309  0.2243  0.1051
  571loPI    C2 9122   1.815  17.271  11.736  0.1200 -0.1148  0.2126
  571loPI    C3 9123   2.175  17.387  11.866  0.1629 -0.0488  0.0383
  571loPI   PO4 9124   1.945  17.190  11.279  0.4563 -0.0950  0.0908
  571loPI   GL1 9125   1.922  16.941  10.912  0.2330 -0.1976 -0.0594
  571loPI   GL2 9126   1.666  17.280  10.868  0.0878  0.1070 -0.1962
  571loPI   C1A 9127   2.034  16.919  10.500  0.0555  0.0360  0.2595
  571loPI   C2A 9128   1.902  17.080  10.080 -0.1128  0.0852 -0.3587
  571loPI   C3A 9129   1.910  17.063   9.631 -0.1068  0.1957 -0.2657
  571loPI   C4A 9130   2.030  17.086   9.265 -0.0535  0.1130  0.0009
  571loPI   C5A 9131   2.246  17.295   8.904  0.1713  0.2051  0.2897
  571loPI   C6A 9132   2.206  17.237   8.488 -0.3460  0.1566 -0.2790
  571loPI   C1B 9133   1.655  17.400  10.390 -0.0891 -0.0481 -0.3046
  571loPI   C2B 9134   1.581  17.505  10.058  0.2145 -0.1070 -0.1765
  571loPI   C3B 9135   1.606  17.533   9.742  0.4980  0.4130  0.2787
  571loPI   C4B 9136   1.716  17.462   9.327  0.0000  0.0885  0.0503
  572loPI    C1 9137  15.872   3.096  11.637  0.0860  0.0812  0.1815
  572loPI    C2 9138  16.230   3.243  11.536  0.1213 -0.2097 -0.1348
  572loPI    C3 9139  16.148   3.161  11.919  0.2294  0.2781 -0.0012
  572loPI   PO4 9140  15.869   2.918  11.480  0.1518  0.0453  0.0546
  572loPI   GL1 9141  15.878   3.057  11.083 -0.1106 -0.2594  0.1648
  572loPI   GL2 9142  16.069   3.324  11.037 -0.3796 -0.2489 -0.0056
  572loPI   C1A 9143  15.870   2.875  10.694  0.0781  0.1018  0.0042
  572loPI   C2A 9144  15.894   2.754  10.190 -0.3112 -0.2010  0.1468
  572loPI   C3A 9145  15.899   2.817   9.852  0.1114  0.1310 -0.0995
  572loPI   C4A 9146  15.843   2.717   9.302 -0.1687 -0.0026  0.0114
  572loPI   C5A 9147  15.794   2.481   8.822  0.1812 -0.1422 -0.2155
  572loPI   C6A 9148  15.523   2.116   8.694 -0.0280 -0.2783 -0.3252
  572loPI   C1B 9149  16.175   3.303  10.605  0.2938 -0.1837 -0.1863
  572loPI   C2B 9150  16.190   3.278  10.115 -0.0967  0.1986 -0.0871
  572loPI   C3B 9151  16.150   3.217   9.696 -0.3018  0.0482 -0.3653
  572loPI   C4B 9152  16.245   3.148   9.194 -0.0109 -0.1415  0.1902
  573loPI    C1 9153   8.979   4.119  11.465 -0.1383 -0.2166  0.1009
  573loPI    C2 9154   9.093   3.813  11.696  0.0444 -0.1369  0.1187
  573loPI    C3 9155   8.828   4.080  11.834  0.3212  0.0364  0.3250
  573loPI   PO4 9156   9.162   3.962  11.205  0.0274 -0.2133 -0.0141
  573loPI   GL1 9157   9.483   4.130  10.936  0.0282 -0.0379  0.2861
  573loPI   GL2 9158   9.227   4.158  10.771 -0.0955 -0.1144  0.5293
  573loPI   C1A 9159   9.522   4.115  10.414 -0.5027 -0.0718 -0.1858
  573loPI   C2A 9160   9.512   4.099   9.975 -0.1049  0.1865 -0.0660
  573loPI   C3A 9161   9.512   4.029   9.580 -0.0042 -0.0394  0.1530
  573loPI   C4A 9162   9.524   4.061   9.092  0.3089  0.1160  0.0746
  573loPI   C5A 9163   9.735   4.412   8.896 -0.3253 -0.1153  0.1378
  573loPI   C6A 9164   9.543   4.744   8.833 -0.0940  0.0460 -0.0390
  573loPI   C1B 9165   9.013   4.037  10.376  0.2787  0.1119 -0.0007
  573loPI   C2B 9166   8.996   4.151   9.879  0.1144 -0.0159 -0.1143
  573loPI   C3B 9167   9.014   4.123   9.499 -0.1430  0.1154 -0.0408
  573loPI   C4B 9168   9.005   3.958   9.134  0.1883  0.1451 -0.3775
  574loPI    C1 9169   1.531   8.294  11.539  0.0165 -0.1965  0.1859
  574loPI    C2 9170   1.341   8.645  11.516 -0.2505 -0.3381  0.1932
  574loPI    C3 9171   1.641   8.596  11.776 -0.2595 -0.1380  0.2428
  574loPI   PO4 9172   1.589   8.266  11.284  0.0864 -0.0408  0.1365
  574loPI   GL1 9173   1.740   8.237  11.004  0.1162  0.0287  0.4711
  574loPI   GL2 9174   1.904   8.013  10.885  0.1099  0.0255 -0.1018
  574loPI   C1A 9175   1.662   8.549  10.723 -0.1208 -0.0507  0.0516
  574loPI   C2A 9176   1.682   8.626  10.362  0.0705 -0.3311 -0.0868
  574loPI   C3A 9177   1.646   8.619   9.948 -0.1686  0.3522  0.0555
  574loPI   C4A 9178   1.607   8.592   9.511  0.2042 -0.1497  0.1230
  574loPI   C5A 9179   1.681   8.597   9.059  0.0078 -0.1336 -0.2743
  574loPI   C6A 9180   1.596   8.835   8.710  0.0300 -0.0894 -0.1360
  574loPI   C1B 9181   1.692   8.072  10.476  0.0131  0.0059 -0.0342
  574loPI   C2B 9182   1.684   8.047  10.011  0.2643  0.1006  0.1717
  574loPI   C3B 9183   1.641   8.131   9.650  0.0555  0.0353  0.2012
  574loPI   C4B 9184   1.605   8.120   9.283  0.0422  0.1206 -0.0044
  575loPI    C1 9185  13.402  10.813  11.431 -0.0162 -0.1438 -0.1404
  575loPI    C2 9186  13.076  10.929  11.631  0.1957 -0.2005  0.2460
  575loPI    C3 9187  13.260  10.587  11.728  0.2333 -0.2912 -0.1301
  575loPI   PO4 9188  13.375  10.836  11.181  0.1893  0.0805  0.1740
  575loPI   GL1 9189  13.190  10.745  10.861  0.1560  0.0181  0.0207
  575loPI   GL2 9190  12.842  10.659  10.839 -0.0193 -0.2216  0.0782
  575loPI   C1A 9191  13.139  10.955  10.519  0.0915 -0.0340  0.0484
  575loPI   C2A 9192  13.147  10.881  10.135 -0.0835  0.0737 -0.0768
  575loPI   C3A 9193  13.132  10.896   9.696 -0.2735  0.0389 -0.2166
  575loPI   C4A 9194  13.120  10.953   9.276  0.1763 -0.2168  0.0883
  575loPI   C5A 9195  13.157  11.231   9.034 -0.0671 -0.2360  0.2007
  575loPI   C6A 9196  13.400  11.586   8.944 -0.1081  0.4009 -0.0667
  575loPI   C1B 9197  12.752  10.621  10.428  0.1823 -0.0069  0.1294
  575loPI   C2B 9198  12.730  10.632  10.008 -0.0811 -0.1177  0.1283
  575loPI   C3B 9199  12.744  10.610   9.542  0.0087  0.1463  0.0710
  575loPI   C4B 9200  12.743  10.611   9.047 -0.0030 -0.1260  0.3137
  576loPI    C1 9201   4.301  11.833  11.371 -0.2136  0.1554  0.3951
  576loPI    C2 9202   4.041  11.567  11.519 -0.1553  0.0126  0.2433
  576loPI    C3 9203   4.320  11.727  11.756 -0.1301 -0.1344  0.3140
  576loPI   PO4 9204   4.194  11.889  11.182 -0.0358  0.1189 -0.1268
  576loPI   GL1 9205   4.079  11.904  10.798 -0.1437 -0.0976 -0.1606
  576loPI   GL2 9206   4.372  12.104  10.754 -0.1394  0.0664  0.1829
  576loPI   C1A 9207   4.025  11.843  10.414 -0.0428  0.4623  0.0023
  576loPI   C2A 9208   4.077  11.805   9.943 -0.0224 -0.1163  0.2837
  576loPI   C3A 9209   4.018  11.830   9.505 -0.0360 -0.1416  0.3089
  576loPI   C4A 9210   4.038  11.839   9.104 -0.0010 -0.2503 -0.0123
  576loPI   C5A 9211   4.019  12.225   8.795  0.0198 -0.0821 -0.2038
  576loPI   C6A 9212   3.818  12.659   8.784  0.3264 -0.0999  0.0278
  576loPI   C1B 9213   4.532  12.149  10.255  0.1719 -0.0592 -0.2536
  576loPI   C2B 9214   4.516  12.246   9.850  0.0048 -0.0368  0.1862
  576loPI   C3B 9215   4.449  12.153   9.415 -0.1456 -0.0053 -0.0250
  576loPI   C4B 9216   4.471  12.114   8.978 -0.1729 -0.0060  0.2497
  577loPI    C1 9217   2.512   4.304  11.655  0.2268  0.1747 -0.0786
  577loPI    C2 9218   2.847   4.422  11.839  0.2547  0.2979 -0.2068
  577loPI    C3 9219   2.491   4.508  11.998  0.2852 -0.0527  0.0620
  577loPI   PO4 9220   2.603   4.369  11.413  0.1796  0.0227 -0.0028
  577loPI   GL1 9221   2.558   4.289  11.010 -0.2155  0.0204  0.4518
  577loPI   GL2 9222   2.787   4.523  10.964 -0.0359  0.0449  0.0700
  577loPI   C1A 9223   2.617   4.242  10.556  0.2171 -0.3593  0.2335
  577loPI   C2A 9224   2.532   4.219  10.137 -0.0940 -0.0367 -0.0379
  577loPI   C3A 9225   2.526   4.136   9.717 -0.0895 -0.4868 -0.1087
  577loPI   C4A 9226   2.517   4.266   9.381  0.0696 -0.1504 -0.1266
  577loPI   C5A 9227   2.560   4.582   8.999  0.0001 -0.3335  0.1089
  577loPI   C6A 9228   2.320   4.769   8.767 -0.1603 -0.0739  0.2802
  577loPI   C1B 9229   2.858   4.740  10.578 -0.2039  0.1122  0.0262
  577loPI   C2B 9230   2.863   5.002  10.310  0.0381 -0.4344  0.0115
  577loPI   C3B 9231   2.793   4.935   9.958 -0.2262 -0.4063  0.0228
  577loPI   C4B 9232   2.770   4.639   9.529 -0.2553 -0.1988 -0.2023
  578loPI    C1 9233  15.254  15.517  11.671  0.0453  0.2756 -0.2010
  578loPI    C2 9234  15.543  15.262  11.777  0.0946  0.3614 -0.1278
  578loPI    C3 9235  15.163  15.188  11.880  0.1362  0.4227  0.0748
  578loPI   PO4 9236  15.258  15.533  11.425  0.0297  0.0795 -0.2291
  578loPI   GL1 9237  15.387  15.481  10.984  0.1828  0.1412 -0.1610
  578loPI   GL2 9238  15.508  15.198  10.979  0.2557  0.1464 -0.1052
  578loPI   C1A 9239  15.367  15.667  10.604  0.1883  0.3143  0.0850
  578loPI   C2A 9240  15.337  15.656  10.193 -0.1134 -0.0042  0.1509
  578loPI   C3A 9241  15.421  15.617   9.803  0.1219  0.0809  0.1851
  578loPI   C4A 9242  15.290  15.577   9.386 -0.0621  0.0839  0.2207
  578loPI   C5A 9243  15.298  15.698   9.008  0.3088  0.1355 -0.2659
  578loPI   C6A 9244  15.316  15.697   8.656  0.1538  0.2328 -0.6319
  578loPI   C1B 9245  15.609  15.200  10.538  0.1317  0.0298  0.2688
  578loPI   C2B 9246  15.615  15.238  10.039 -0.0312 -0.2128  0.1480
  578loPI   C3B 9247  15.563  15.219   9.536 -0.1406 -0.0370  0.1682
  578loPI   C4B 9248  15.633  15.189   9.071 -0.1324 -0.3705  0.0464
  579loPI    C1 9249  15.972   0.787  11.889  0.3380 -0.2009  0.1792
  579loPI    C2 9250  16.004   1.124  12.101  0.2721 -0.1612  0.1265
  579loPI    C3 9251  16.281   0.838  12.138  0.3098 -0.1161  0.1971
  579loPI   PO4 9252  15.944   0.976  11.592  0.2340 -0.0553 -0.1346
  579loPI   GL1 9253  16.068   0.823  11.136  0.1718  0.2043  0.0631
  579loPI   GL2 9254  16.091   1.229  11.144  0.0557 -0.1717 -0.1847
  579loPI   C1A 9255  16.230   0.586  10.867 -0.1138 -0.0191  0.1529
  579loPI   C2A 9256  16.240   0.622  10.416 -0.1029 -0.1273 -0.3388
  579loPI   C3A 9257  16.252   0.498   9.972 -0.0991 -0.1333 -0.1054
  579loPI   C4A 9258  16.252   0.579   9.548 -0.0096 -0.0631 -0.1622
  579loPI   C5A 9259  16.229   0.502   9.146  0.0134  0.3318 -0.0013
  579loPI   C6A 9260  16.260   0.385   8.799 -0.0844 -0.1212  0.0032
  579loPI   C1B 9261  16.013   1.071  10.670 -0.2396  0.0392 -0.0700
  579loPI   C2B 9262  15.953   0.988  10.194 -0.0417 -0.0124 -0.2799
  579loPI   C3B 9263  15.995   0.926   9.755  0.1040 -0.2540  0.2176
  579loPI   C4B 9264  15.959   0.950   9.306  0.1248  0.1801  0.0144
  580loPI    C1 9265  16.376   5.966  11.811  0.0779  0.0264  0.1624
  580loPI    C2 9266  16.517   6.335  11.868 -0.1523  0.1031  0.2471
  580loPI    C3 9267  16.178   6.221  12.047 -0.0854 -0.1484  0.2174
  580loPI   PO4 9268  16.377   5.874  11.545 -0.2810  0.1969  0.0529
  580loPI   GL1 9269  16.466   5.943  11.017  0.0911 -0.1660 -0.0801
  580loPI   GL2 9270  16.136   5.958  11.125 -0.0861 -0.1389 -0.1758
  580loPI   C1A 9271  16.498   5.938  10.590  0.1808 -0.2956  0.0158
  580loPI   C2A 9272  16.522   6.013  10.163 -0.0687  0.2319 -0.2308
  580loPI   C3A 9273  16.534   5.959   9.721 -0.1494  0.0001 -0.2956
  580loPI   C4A 9274  16.379   5.923   9.284 -0.0057  0.2383 -0.1000
  580loPI   C5A 9275  16.410   5.878   8.855  0.0662  0.0204  0.3251
  580loPI   C6A 9276  16.244   5.684   8.590 -0.0688  0.1576  0.0669
  580loPI   C1B 9277  16.184   5.586  10.831 -0.3296 -0.0935 -0.1047
  580loPI   C2B 9278  16.322   5.488  10.411  0.2550  0.0170 -0.0580
  580loPI   C3B 9279  16.432   5.535  10.016 -0.1371  0.1318  0.0761
  580loPI   C4B 9280  16.592   5.490   9.581 -0.0549  0.2169  0.3975
  581loPI    C1 9281  12.871  12.999  11.345  0.0564  0.1831  0.0990
  581loPI    C2 9282  13.082  12.675  11.244 -0.2113 -0.0448  0.2570
  581loPI    C3 9283  12.999  12.748  11.629 -0.2508  0.1500  0.2124
  581loPI   PO4 9284  12.759  13.052  11.127 -0.2470  0.1199 -0.2681
  581loPI   GL1 9285  12.918  12.783  10.771 -0.1117 -0.1418  0.2006
  581loPI   GL2 9286  13.143  12.524  10.758 -0.2344 -0.1062  0.1263
  581loPI   C1A 9287  12.688  12.672  10.395  0.0415  0.1796 -0.0099
  581loPI   C2A 9288  12.521  12.726   9.923 -0.0570  0.0284  0.1524
  581loPI   C3A 9289  12.581  12.523   9.522  0.0412  0.0908 -0.1430
  581loPI   C4A 9290  12.562  12.590   9.197 -0.1182  0.0786  0.1388
  581loPI   C5A 9291  12.270  12.622   8.917 -0.1109 -0.0421 -0.1166
  581loPI   C6A 9292  12.084  12.770   8.628 -0.0197 -0.1437 -0.0998
  581loPI   C1B 9293  13.113  12.484  10.324  0.2889 -0.1318 -0.0641
  581loPI   C2B 9294  12.994  12.449   9.882  0.0500 -0.1227  0.1830
  581loPI   C3B 9295  13.055  12.581   9.523 -0.0126  0.0040  0.0194
  581loPI   C4B 9296  13.065  12.501   9.146  0.2268 -0.1194  0.1751
  582loPI    C1 9297   2.561   6.396  11.633 -0.0431  0.1171  0.1397
  582loPI    C2 9298   2.742   6.550  11.956 -0.0527  0.0198  0.1917
  582loPI    C3 9299   2.574   6.187  11.974 -0.1226  0.0472  0.1000
  582loPI   PO4 9300   2.699   6.380  11.457 -0.2549  0.4257 -0.0941
  582loPI   GL1 9301   2.818   6.335  10.988 -0.1636  0.2863 -0.3397
  582loPI   GL2 9302   2.736   6.101  10.812  0.1881  0.2481  0.0315
  582loPI   C1A 9303   2.694   6.585  10.663 -0.0198 -0.0242 -0.0727
  582loPI   C2A 9304   2.703   6.569  10.170 -0.2848  0.3738 -0.1901
  582loPI   C3A 9305   2.622   6.657   9.751  0.4337 -0.1562 -0.1340
  582loPI   C4A 9306   2.650   6.576   9.384 -0.0284  0.0177 -0.3472
  582loPI   C5A 9307   2.693   6.496   9.060 -0.0669 -0.1883  0.0810
  582loPI   C6A 9308   2.509   6.206   8.722 -0.0991 -0.3430  0.1341
  582loPI   C1B 9309   2.713   6.015  10.327 -0.0576  0.0236  0.4101
  582loPI   C2B 9310   2.684   5.985   9.808 -0.4799  0.2871 -0.1222
  582loPI   C3B 9311   2.730   6.059   9.318  0.3491 -0.3081  0.0691
  582loPI   C4B 9312   3.150   5.916   9.142  0.4311 -0.1006  0.3782
  583loPI    C1 9313   5.989  10.723  11.407  0.0206 -0.1317  0.0697
  583loPI    C2 9314   5.841  10.977  11.678 -0.0874 -0.0472 -0.0674
  583loPI    C3 9315   5.904  10.595  11.777 -0.1040 -0.0118  0.0832
  583loPI   PO4 9316   5.880  10.811  11.240 -0.0385 -0.1862  0.3165
  583loPI   GL1 9317   5.882  10.926  10.852  0.1986  0.0264 -0.2760
  583loPI   GL2 9318   6.170  11.114  10.840  0.2251  0.0641 -0.3113
  583loPI   C1A 9319   5.993  10.772  10.364 -0.2445  0.0493  0.3537
  583loPI   C2A 9320   5.981  10.856   9.987  0.0081  0.2730  0.2966
  583loPI   C3A 9321   5.940  11.013   9.568 -0.0074  0.0698  0.0617
  583loPI   C4A 9322   5.976  11.077   9.089  0.0141  0.2960  0.1127
  583loPI   C5A 9323   6.136  11.183   8.690  0.0258  0.3408  0.1629
  583loPI   C6A 9324   6.099  11.458   8.351 -0.1199  0.1682 -0.1796
  583loPI   C1B 9325   6.284  11.135  10.480 -0.3680  0.3406 -0.0671
  583loPI   C2B 9326   6.410  11.225  10.087  0.1923  0.1057 -0.1609
  583loPI   C3B 9327   6.380  11.292   9.597 -0.1240 -0.1489 -0.1140
  583loPI   C4B 9328   6.349  11.335   9.266 -0.5714 -0.1353  0.3587
  584loPI    C1 9329  13.568  13.588  11.427  0.1390 -0.0520 -0.1209
  584loPI    C2 9330  13.907  13.762  11.548 -0.0147  0.2391 -0.0985
  584loPI    C3 9331  13.600  13.725  11.802 -0.0399  0.0773 -0.1514
  584loPI   PO4 9332  13.530  13.685  11.243  0.0937 -0.0802  0.2147
  584loPI   GL1 9333  13.635  13.811  10.793 -0.1225 -0.0184 -0.0310
  584loPI   GL2 9334  13.610  14.111  10.669 -0.0228 -0.1286 -0.0745
  584loPI   C1A 9335  13.794  13.761  10.418 -0.1495  0.0425  0.1500
  584loPI   C2A 9336  13.811  13.780   9.968 -0.3473 -0.0504 -0.0679
  584loPI   C3A 9337  13.949  13.748   9.544 -0.3117  0.4109  0.1008
  584loPI   C4A 9338  13.970  13.733   9.109  0.2768 -0.4484  0.1139
  584loPI   C5A 9339  14.006  13.956   8.713 -0.1452 -0.0203 -0.1581
  584loPI   C6A 9340  13.778  14.154   8.437  0.1588 -0.0874  0.1724
  584loPI   C1B 9341  13.529  14.221  10.326 -0.0669  0.1342  0.1365
  584loPI   C2B 9342  13.595  14.216   9.886 -0.1620  0.1819 -0.2828
  584loPI   C3B 9343  13.706  14.187   9.466 -0.2940 -0.0282 -0.1528
  584loPI   C4B 9344  13.702  14.162   9.036 -0.0882 -0.0672 -0.0136
  585loPI    C1 9345   6.404  10.589  11.694 -0.2293 -0.2460  0.0544
  585loPI    C2 9346   6.404  10.378  12.034  0.1363 -0.0389  0.1880
  585loPI    C3 9347   6.304  10.765  12.039  0.1991 -0.0205  0.0697
  585loPI   PO4 9348   6.323  10.375  11.489  0.1184  0.0686  0.1401
  585loPI   GL1 9349   6.369  10.223  11.096 -0.1945  0.1058  0.1236
  585loPI   GL2 9350   6.230  10.504  10.967  0.1711 -0.1030  0.1981
  585loPI   C1A 9351   6.530  10.168  10.672  0.2067 -0.1436  0.1214
  585loPI   C2A 9352   6.508  10.159  10.289  0.4750  0.2045 -0.1155
  585loPI   C3A 9353   6.461  10.206   9.867 -0.1400  0.0524 -0.0623
  585loPI   C4A 9354   6.460  10.288   9.478 -0.1899  0.0686 -0.1555
  585loPI   C5A 9355   6.434  10.240   9.084 -0.0204 -0.1479  0.1706
  585loPI   C6A 9356   6.438  10.260   8.563 -0.1859 -0.1413  0.0022
  585loPI   C1B 9357   6.098  10.318  10.593  0.0381 -0.1301  0.2828
  585loPI   C2B 9358   6.030  10.353  10.122  0.0490 -0.1944 -0.2969
  585loPI   C3B 9359   6.013  10.465   9.692 -0.1459  0.0233  0.4417
  585loPI   C4B 9360   6.065  10.575   9.313  0.1602 -0.0345  0.1607
  586loPI    C1 9361  10.155   2.865  11.349 -0.1928  0.0700 -0.0812
  586loPI    C2 9362  10.457   3.037  11.546 -0.0716 -0.1088 -0.1091
  586loPI    C3 9363  10.154   2.873  11.749  0.0349 -0.2602 -0.0711
  586loPI   PO4 9364  10.274   2.697  11.212 -0.1016 -0.0162  0.3102
  586loPI   GL1 9365  10.465   2.547  10.868  0.1634  0.3587  0.4948
  586loPI   GL2 9366  10.534   2.265  10.731  0.1283  0.2263 -0.1669
  586loPI   C1A 9367  10.251   2.675  10.506  0.0742  0.0220  0.0399
  586loPI   C2A 9368  10.321   2.820  10.102 -0.1776 -0.1083 -0.1601
  586loPI   C3A 9369  10.317   2.759   9.686  0.1724 -0.0141  0.0868
  586loPI   C4A 9370  10.256   2.714   9.256  0.4661  0.2112 -0.1200
  586loPI   C5A 9371  10.236   2.715   8.863 -0.1102 -0.0660  0.0453
  586loPI   C6A 9372   9.874   2.727   8.567  0.1164  0.1601  0.0444
  586loPI   C1B 9373  10.482   2.293  10.329 -0.1233 -0.1364  0.1277
  586loPI   C2B 9374  10.676   2.291   9.877 -0.0082  0.0961 -0.0365
  586loPI   C3B 9375  10.474   2.331   9.521 -0.0459  0.0475 -0.0154
  586loPI   C4B 9376  10.448   2.286   9.091  0.2054  0.0306 -0.2623
  587loPI    C1 9377   5.063   9.374  11.221 -0.0403  0.1322  0.0645
  587loPI    C2 9378   4.695   9.514  11.287 -0.0584  0.0082  0.2315
  587loPI    C3 9379   4.927   9.408  11.595  0.0605 -0.0581  0.1197
  587loPI   PO4 9380   5.257   9.553  11.032 -0.1828 -0.0992  0.1231
  587loPI   GL1 9381   5.393   9.668  10.713  0.3262 -0.3372 -0.1254
  587loPI   GL2 9382   5.142   9.806  10.615 -0.1398 -0.0450 -0.0375
  587loPI   C1A 9383   5.325   9.456  10.313  0.1080  0.1313  0.0257
  587loPI   C2A 9384   5.234   9.316   9.833 -0.2344  0.1109 -0.1578
  587loPI   C3A 9385   5.023   9.442   9.421 -0.0850  0.1717 -0.1965
  587loPI   C4A 9386   5.098   9.363   9.008 -0.4056 -0.0103  0.1892
  587loPI   C5A 9387   5.408   9.558   8.693 -0.1045 -0.3126  0.0778
  587loPI   C6A 9388   5.516   9.932   8.572  0.3337  0.0384  0.0553
  587loPI   C1B 9389   5.094   9.914  10.214  0.2720  0.5588  0.0663
  587loPI   C2B 9390   5.132   9.844   9.753 -0.1351 -0.0967  0.0020
  587loPI   C3B 9391   5.115   9.913   9.347 -0.1022  0.2929  0.2252
  587loPI   C4B 9392   5.054   9.848   8.961 -0.2547  0.1212 -0.2164
  588loPI    C1 9393  14.678   5.244  11.657  0.1286 -0.1671  0.1318
  588loPI    C2 9394  14.990   5.362  11.878  0.0422  0.3760 -0.0210
  588loPI    C3 9395  14.623   5.356  12.037  0.0775  0.0701  0.0560
  588loPI   PO4 9396  14.665   5.335  11.506 -0.1715 -0.1331 -0.0105
  588loPI   GL1 9397  14.772   5.421  11.033 -0.1131  0.0785 -0.0619
  588loPI   GL2 9398  14.645   5.156  11.108 -0.2528 -0.2660  0.1174
  588loPI   C1A 9399  14.896   5.544  10.627  0.1502 -0.0190 -0.4145
  588loPI   C2A 9400  15.011   5.476  10.173  0.1659  0.2593  0.0896
  588loPI   C3A 9401  15.131   5.599   9.812 -0.0074  0.1698 -0.0799
  588loPI   C4A 9402  15.228   5.521   9.384  0.0708  0.1933 -0.1803
  588loPI   C5A 9403  15.321   5.534   8.997  0.2610  0.2909  0.1223
  588loPI   C6A 9404  15.623   5.328   8.639 -0.0252  0.0133  0.1580
  588loPI   C1B 9405  14.561   5.176  10.684  0.1561  0.2396 -0.0737
  588loPI   C2B 9406  14.586   5.176  10.220 -0.0113 -0.3772  0.1877
  588loPI   C3B 9407  14.690   5.246   9.828  0.0169  0.1898 -0.0029
  588loPI   C4B 9408  14.715   5.283   9.404 -0.2459 -0.0554  0.2148
  589loPI    C1 9409   4.572  10.881  11.459 -0.0094  0.1968 -0.2130
  589loPI    C2 9410   4.927  10.767  11.602 -0.2106 -0.0333  0.1166
  589loPI    C3 9411   4.599  10.730  11.828 -0.4656  0.0568 -0.2299
  589loPI   PO4 9412   4.505  10.680  11.312 -0.2727  0.0484 -0.0512
  589loPI   GL1 9413   4.351  10.477  10.893  0.0083 -0.4585 -0.0005
  589loPI   GL2 9414   4.125  10.444  10.752 -0.0983 -0.0800 -0.1646
  589loPI   C1A 9415   4.578  10.637  10.494 -0.0047 -0.0633 -0.1028
  589loPI   C2A 9416   4.659  10.597  10.084 -0.0783 -0.0421  0.1491
  589loPI   C3A 9417   4.531  10.625   9.611  0.1454  0.2557  0.1821
  589loPI   C4A 9418   4.570  10.688   9.207 -0.3364 -0.0745  0.0585
  589loPI   C5A 9419   4.657  11.020   8.946  0.2912 -0.2275 -0.1075
  589loPI   C6A 9420   4.743  11.061   8.398 -0.1913  0.0665 -0.2296
  589loPI   C1B 9421   4.197  10.303  10.326  0.0079  0.0623 -0.2372
  589loPI   C2B 9422   4.167  10.365   9.836 -0.2111 -0.0645 -0.1205
  589loPI   C3B 9423   4.196  10.407   9.385 -0.4201  0.2469  0.0989
  589loPI   C4B 9424   4.377  10.298   9.002 -0.2049 -0.1409  0.1040
  590loPI    C1 9425   2.749   8.412  11.659  0.0825  0.0323 -0.0472
  590loPI    C2 9426   2.886   8.740  11.475 -0.1989  0.0912 -0.1572
  590loPI    C3 9427   2.678   8.773  11.815 -0.0124  0.0078 -0.0332
  590loPI   PO4 9428   2.608   8.313  11.449 -0.1886  0.1134 -0.2404
  590loPI   GL1 9429   2.691   8.447  11.044 -0.1614 -0.0090  0.0584
  590loPI   GL2 9430   2.978   8.469  11.031 -0.1931 -0.3358 -0.1084
  590loPI   C1A 9431   2.643   8.654  10.692 -0.0505 -0.1230 -0.2322
  590loPI   C2A 9432   2.592   8.612  10.228 -0.0034 -0.0534  0.1825
  590loPI   C3A 9433   2.505   8.632   9.888  0.1050  0.0595 -0.1002
  590loPI   C4A 9434   2.453   8.624   9.510 -0.0678 -0.1433  0.1626
  590loPI   C5A 9435   2.553   8.674   9.056 -0.0655  0.1916 -0.1018
  590loPI   C6A 9436   2.976   8.734   8.791 -0.3141 -0.2819 -0.3066
  590loPI   C1B 9437   3.106   8.406  10.617 -0.1259 -0.1377  0.0883
  590loPI   C2B 9438   3.139   8.331  10.205  0.3435  0.0126 -0.0831
  590loPI   C3B 9439   2.997   8.381   9.799  0.1251 -0.0836 -0.3023
  590loPI   C4B 9440   2.944   8.421   9.305  0.2611 -0.0193 -0.2776
  591loPI    C1 9441   0.134  16.537  11.406  0.0356 -0.3541  0.2173
  591loPI    C2 9442   0.323  16.583  11.755  0.1834  0.0863  0.0870
  591loPI    C3 9443  -0.064  16.678  11.724  0.2027  0.1688  0.0993
  591loPI   PO4 9444   0.231  16.652  11.231 -0.0939  0.1368 -0.0997
  591loPI   GL1 9445   0.206  16.917  10.892  0.1123  0.4251  0.3585
  591loPI   GL2 9446   0.447  16.843  10.782  0.0070 -0.2815  0.0308
  591loPI   C1A 9447  -0.116  16.933  10.625 -0.3279  0.2574  0.1686
  591loPI   C2A 9448  -0.119  16.973  10.208  0.1204  0.3023 -0.2176
  591loPI   C3A 9449  -0.072  16.949   9.732 -0.0922 -0.0223  0.2350
  591loPI   C4A 9450  -0.103  16.964   9.357  0.0381  0.1460  0.1227
  591loPI   C5A 9451  -0.186  17.014   8.983  0.0270 -0.1706  0.1679
  591loPI   C6A 9452  -0.329  16.771   8.609 -0.2309 -0.1105  0.0496
  591loPI   C1B 9453   0.407  16.984  10.385 -0.2376 -0.0369  0.0412
  591loPI   C2B 9454   0.308  16.968  10.024 -0.0179 -0.0015 -0.0390
  591loPI   C3B 9455   0.394  16.972   9.546 -0.0667  0.0947 -0.0647
  591loPI   C4B 9456   0.337  16.990   9.174  0.0992 -0.1990 -0.0805
  592loPI    C1 9457   2.929  16.866  11.347  0.0012  0.0922  0.0760
  592loPI    C2 9458   2.688  16.646  11.579 -0.0469  0.0655  0.0008
  592loPI    C3 9459   2.942  16.907  11.745 -0.0684  0.0334  0.0846
  592loPI   PO4 9460   2.811  16.930  11.091 -0.1993  0.1167  0.1800
  592loPI   GL1 9461   3.081  16.917  10.714  0.2489 -0.5691  0.3300
  592loPI   GL2 9462   3.406  17.086  10.659 -0.3129 -0.1713 -0.3471
  592loPI   C1A 9463   3.000  16.989  10.248 -0.1674 -0.1011  0.2801
  592loPI   C2A 9464   3.025  16.967   9.794  0.1228 -0.1941 -0.0851
  592loPI   C3A 9465   3.083  17.001   9.444  0.1342 -0.1389  0.1307
  592loPI   C4A 9466   3.002  17.010   9.084 -0.0937 -0.0978  0.1208
  592loPI   C5A 9467   3.199  17.232   8.730  0.0308  0.2259  0.0277
  592loPI   C6A 9468   3.107  17.679   8.717  0.1405  0.0097  0.0247
  592loPI   C1B 9469   3.502  16.985  10.262 -0.2871  0.1528  0.0265
  592loPI   C2B 9470   3.535  16.933   9.809 -0.0824 -0.0657 -0.2902
  592loPI   C3B 9471   3.642  16.991   9.388  0.2092 -0.1523 -0.1679
  592loPI   C4B 9472   3.570  16.909   8.926  0.1984  0.1881  0.3392
  593loPI    C1 9473   6.881   2.375  11.543  0.2970 -0.1123 -0.2039
  593loPI    C2 9474   6.862   2.013  11.713  0.1429 -0.0586 -0.1041
  593loPI    C3 9475   7.016   2.322  11.916  0.0178 -0.0081 -0.0851
  593loPI   PO4 9476   7.049   2.299  11.294 -0.1637  0.1423  0.0280
  593loPI   GL1 9477   7.365   2.233  11.132 -0.0903  0.1843 -0.0983
  593loPI   GL2 9478   7.375   2.616  11.126 -0.0787 -0.2169 -0.0774
  593loPI   C1A 9479   7.443   2.266  10.713  0.1803 -0.1733  0.2147
  593loPI   C2A 9480   7.481   2.187  10.258  0.2195 -0.1003 -0.0838
  593loPI   C3A 9481   7.573   2.219   9.932  0.2470  0.0726 -0.1467
  593loPI   C4A 9482   7.505   2.167   9.468  0.1566 -0.0108 -0.0263
  593loPI   C5A 9483   7.439   2.133   8.999  0.2808  0.3260 -0.0245
  593loPI   C6A 9484   7.529   2.023   8.547  0.0895 -0.2110 -0.1958
  593loPI   C1B 9485   7.256   2.699  10.625  0.0478  0.0111  0.1152
  593loPI   C2B 9486   7.291   2.677  10.228 -0.1141  0.0831 -0.1805
  593loPI   C3B 9487   7.269   2.659   9.738 -0.0283 -0.1068  0.0386
  593loPI   C4B 9488   7.249   2.544   9.326  0.1507  0.4034  0.0616
  594loPI    C1 9489  16.811   2.605  11.672 -0.1305 -0.0690 -0.0255
  594loPI    C2 9490  16.931   2.698  12.042 -0.2439 -0.1377  0.0290
  594loPI    C3 9491  16.690   2.384  11.983 -0.2992 -0.0730 -0.0928
  594loPI   PO4 9492  17.028   2.535  11.581 -0.2068 -0.1758  0.4792
  594loPI   GL1 9493  17.313   2.429  11.400  0.0898  0.2904 -0.0464
  594loPI   GL2 9494  17.423   2.165  11.236 -0.2121  0.0102  0.2932
  594loPI   C1A 9495  17.507   2.739  11.008  0.1164  0.0077 -0.1506
  594loPI   C2A 9496  17.544   2.828  10.641  0.2036  0.1308 -0.0351
  594loPI   C3A 9497  17.512   2.883  10.196  0.0198  0.1763  0.0397
  594loPI   C4A 9498  17.429   2.749   9.778  0.0396  0.1602 -0.2727
  594loPI   C5A 9499  17.388   2.822   9.368 -0.1307  0.3387  0.2081
  594loPI   C6A 9500  17.155   2.770   8.993  0.4056  0.2407 -0.0113
  594loPI   C1B 9501  17.233   2.343  10.857 -0.3198  0.3206 -0.1600
  594loPI   C2B 9502  17.178   2.356  10.386  0.2826  0.1295  0.1216
  594loPI   C3B 9503  17.115   2.304   9.908  0.0134 -0.0168 -0.4283
  594loPI   C4B 9504  17.182   2.351   9.460  0.1874 -0.0238  0.0017
  595loPI    C1 9505  17.032  13.850  11.270 -0.1905 -0.1940 -0.0302
  595loPI    C2 9506  16.976  14.076  11.595 -0.1198  0.0185 -0.1643
  595loPI    C3 9507  17.188  13.738  11.621 -0.2069 -0.0223  0.0325
  595loPI   PO4 9508  16.801  13.792  11.185 -0.2246  0.1301 -0.0823
  595loPI   GL1 9509  16.653  13.737  10.854  0.0813  0.1979 -0.1087
  595loPI   GL2 9510  16.447  13.850  10.680 -0.0145  0.0661 -0.2538
  595loPI   C1A 9511  16.595  13.343  10.683  0.1273  0.0086 -0.0383
  595loPI   C2A 9512  16.563  13.231  10.256  0.1169  0.2557  0.0005
  595loPI   C3A 9513  16.624  13.302   9.805  0.0530 -0.0371  0.1623
  595loPI   C4A 9514  16.645  13.239   9.382  0.1069  0.0395  0.1299
  595loPI   C5A 9515  16.711  13.362   8.953 -0.1480 -0.0490  0.0231
  595loPI   C6A 9516  17.123  13.539   8.759 -0.0900 -0.1733  0.1435
  595loPI   C1B 9517  16.512  13.725  10.241 -0.0713 -0.1813 -0.0720
  595loPI   C2B 9518  16.506  13.779   9.716 -0.1316 -0.2778 -0.0593
  595loPI   C3B 9519  16.468  13.800   9.256  0.2384 -0.1188 -0.1625
  595loPI   C4B 9520  16.390  13.758   8.842  0.0767  0.1638 -0.0469
  596loPI    C1 9521  16.074  17.127  11.762 -0.1180  0.0720 -0.0584
  596loPI    C2 9522  16.273  17.410  11.962  0.0582 -0.1793  0.1288
  596loPI    C3 9523  16.143  17.084  12.153  0.0900 -0.3499 -0.1352
  596loPI   PO4 9524  15.943  17.274  11.610  0.0141 -0.1001 -0.1870
  596loPI   GL1 9525  15.986  17.352  11.140  0.3128 -0.2202  0.1245
  596loPI   GL2 9526  16.335  17.425  10.918 -0.2254 -0.1552  0.2649
  596loPI   C1A 9527  15.837  17.314  10.702 -0.0808  0.1728 -0.0487
  596loPI   C2A 9528  15.790  17.378  10.305  0.1974 -0.1874 -0.0268
  596loPI   C3A 9529  15.797  17.377   9.893 -0.2514  0.1461  0.2297
  596loPI   C4A 9530  15.676  17.354   9.493  0.3390  0.0068  0.0782
  596loPI   C5A 9531  15.786  17.351   9.015  0.2240 -0.0144  0.3418
  596loPI   C6A 9532  15.770  17.312   8.548 -0.1241  0.5185 -0.2046
  596loPI   C1B 9533  16.319  17.429  10.508  0.0847 -0.2956  0.2116
  596loPI   C2B 9534  16.275  17.343  10.057 -0.0178  0.1474  0.1852
  596loPI   C3B 9535  16.273  17.326   9.637  0.0283 -0.2357 -0.2577
  596loPI   C4B 9536  16.228  17.325   9.294  0.0968 -0.3492 -0.3475
  597loPI    C1 9537  10.321  16.460  11.621  0.1002 -0.0327 -0.1293
  597loPI    C2 9538  10.578  16.663  11.851  0.0728 -0.1534  0.0083
  597loPI    C3 9539  10.197  16.619  11.966 -0.0036 -0.0005 -0.1807
  597loPI   PO4 9540  10.367  16.596  11.384  0.1161 -0.1956 -0.0672
  597loPI   GL1 9541  10.371  16.631  10.971  0.1967  0.2425 -0.1967
  597loPI   GL2 9542  10.733  16.521  11.071  0.2953  0.0862 -0.0523
  597loPI   C1A 9543  10.460  16.845  10.607  0.0150 -0.1236 -0.0556
  597loPI   C2A 9544  10.443  16.893  10.196 -0.0246 -0.0301  0.0668
  597loPI   C3A 9545  10.393  16.780   9.758 -0.3016  0.3791  0.0482
  597loPI   C4A 9546  10.409  16.779   9.326 -0.2462  0.0113  0.0660
  597loPI   C5A 9547  10.368  16.894   8.837  0.0809  0.3058  0.1282
  597loPI   C6A 9548   9.945  17.009   8.685  0.0587 -0.0974  0.2743
  597loPI   C1B 9549  10.750  16.404  10.717  0.1479  0.0655 -0.2483
  597loPI   C2B 9550  10.749  16.397  10.310 -0.1110  0.2571  0.0351
  597loPI   C3B 9551  10.661  16.344   9.831 -0.0834  0.0833 -0.0815
  597loPI   C4B 9552  10.644  16.332   9.500 -0.0231 -0.0380  0.0188
  598loPI    C1 9553  11.779   4.856  11.332  0.1894  0.0482 -0.0150
  598loPI    C2 9554  11.844   5.157  11.587  0.0537  0.0653  0.0006
  598loPI    C3 9555  11.549   4.897  11.657  0.0910  0.0013 -0.0782
  598loPI   PO4 9556  11.748   4.968  11.124 -0.2859 -0.1021  0.0417
  598loPI   GL1 9557  11.705   5.185  10.793  0.4464  0.1443 -0.0366
  598loPI   GL2 9558  11.429   4.905  10.786 -0.1967 -0.2814 -0.0966
  598loPI   C1A 9559  11.974   5.091  10.462  0.1515 -0.0360 -0.0818
  598loPI   C2A 9560  12.052   5.026  10.165  0.0365  0.0550 -0.5164
  598loPI   C3A 9561  12.075   5.067   9.730 -0.0286  0.1704 -0.1090
  598loPI   C4A 9562  12.145   4.972   9.354 -0.0905 -0.3780 -0.0486
  598loPI   C5A 9563  12.157   5.154   8.999 -0.0650  0.0960 -0.2284
  598loPI   C6A 9564  12.279   5.470   8.795  0.1931  0.2450 -0.2185
  598loPI   C1B 9565  11.268   4.696  10.485 -0.2657 -0.1438  0.0663
  598loPI   C2B 9566  11.251   4.518  10.052 -0.1755  0.1446 -0.1918
  598loPI   C3B 9567  11.309   4.484   9.699 -0.0627 -0.0883  0.0209
  598loPI   C4B 9568  11.305   4.593   9.329 -0.3790 -0.0925  0.0179
  599loPI    C1 9569   2.212   9.078  11.478 -0.1473  0.1074  0.0560
  599loPI    C2 9570   2.369   8.721  11.389 -0.1057  0.1591 -0.0819
  599loPI    C3 9571   2.164   8.771  11.729  0.1819  0.0921  0.1050
  599loPI   PO4 9572   2.082   9.121  11.242  0.0742 -0.0060 -0.0508
  599loPI   GL1 9573   1.980   9.357  10.820 -0.1106  0.0180  0.2351
  599loPI   GL2 9574   2.053   9.646  10.880 -0.1006 -0.0493 -0.2995
  599loPI   C1A 9575   2.128   9.331  10.437 -0.2382 -0.0880 -0.0522
  599loPI   C2A 9576   2.091   9.358  10.073  0.0813  0.0866 -0.3143
  599loPI   C3A 9577   2.017   9.431   9.685  0.0411 -0.0447 -0.0131
  599loPI   C4A 9578   2.033   9.391   9.277 -0.1338  0.0565  0.4328
  599loPI   C5A 9579   1.915   9.199   8.923 -0.0193 -0.0064 -0.5381
  599loPI   C6A 9580   2.090   8.808   8.808  0.2848  0.1474  0.0955
  599loPI   C1B 9581   2.066   9.857  10.429  0.0881  0.1177  0.0343
  599loPI   C2B 9582   2.014   9.937   9.891 -0.1132  0.3774  0.3875
  599loPI   C3B 9583   1.946   9.967   9.518  0.2564  0.2241 -0.2201
  599loPI   C4B 9584   1.933   9.876   9.169  0.2927  0.2171  0.0061
  600loPI    C1 9585   7.524  11.537  11.508 -0.0387 -0.0142  0.1333
  600loPI    C2 9586   7.196  11.336  11.617 -0.0505 -0.0367  0.0565
  600loPI    C3 9587   7.544  11.265  11.800 -0.0819 -0.0340  0.1176
  600loPI   PO4 9588   7.515  11.644  11.371 -0.0468 -0.2152  0.1469
  600loPI   GL1 9589   7.474  11.761  10.993 -0.2791 -0.2615  0.1757
  600loPI   GL2 9590   7.519  11.496  10.888  0.0874 -0.1423  0.1671
  600loPI   C1A 9591   7.742  11.946  10.721 -0.0345  0.0982 -0.1507
  600loPI   C2A 9592   7.682  12.073  10.285 -0.2751  0.0125  0.0168
  600loPI   C3A 9593   7.696  12.159   9.846  0.0916  0.1316  0.0043
  600loPI   C4A 9594   7.689  12.208   9.435  0.0235  0.1408 -0.1461
  600loPI   C5A 9595   7.720  12.179   9.039  0.5975  0.0086 -0.1253
  600loPI   C6A 9596   7.843  12.294   8.672  0.1252 -0.0410  0.1970
  600loPI   C1B 9597   7.704  11.577  10.377 -0.0876  0.1353  0.1665
  600loPI   C2B 9598   7.683  11.540  10.005  0.1505  0.1592 -0.3392
  600loPI   C3B 9599   7.692  11.620   9.617 -0.2120 -0.1166 -0.0540
  600loPI   C4B 9600   7.754  11.715   9.226 -0.0274 -0.0352  0.2913
  601loPI    C1 9601   3.849  13.186  11.496 -0.1055 -0.1251 -0.3602
  601loPI    C2 9602   4.222  13.247  11.628 -0.2411  0.1521 -0.0907
  601loPI    C3 9603   3.967  13.028  11.844 -0.2882  0.1111 -0.1871
  601loPI   PO4 9604   3.918  13.242  11.194 -0.1190 -0.3179 -0.1787
  601loPI   GL1 9605   4.051  13.330  10.814 -0.0501  0.0180  0.2004
  601loPI   GL2 9606   4.275  13.216  10.655 -0.0692  0.0138 -0.1796
  601loPI   C1A 9607   3.803  13.456  10.433 -0.1980  0.3493  0.0887
  601loPI   C2A 9608   3.861  13.429   9.929  0.0534 -0.0151 -0.1249
  601loPI   C3A 9609   3.823  13.338   9.516 -0.1116 -0.0270 -0.0812
  601loPI   C4A 9610   3.610  13.362   9.101 -0.1571 -0.1889 -0.2783
  601loPI   C5A 9611   3.679  13.494   8.630  0.0690  0.4412  0.0702
  601loPI   C6A 9612   3.842  13.410   8.224  0.1350 -0.2046 -0.1696
  601loPI   C1B 9613   4.377  13.221  10.234  0.1289 -0.2682  0.1170
  601loPI   C2B 9614   4.266  13.139   9.865  0.0727  0.1351  0.0788
  601loPI   C3B 9615   4.359  13.231   9.462  0.0953  0.1842  0.1011
  601loPI   C4B 9616   4.135  13.451   9.190  0.1538  0.0537 -0.0924
  602loPI    C1 9617  10.717   4.597  11.558 -0.2511  0.1479  0.0952
  602loPI    C2 9618  11.085   4.575  11.715 -0.2183 -0.3422 -0.0337
  602loPI    C3 9619  10.774   4.672  11.947 -0.0172  0.0492  0.0819
  602loPI   PO4 9620  10.767   4.670  11.287 -0.0439  0.0061 -0.0432
  602loPI   GL1 9621  10.656   4.418  11.011  0.1269 -0.1304 -0.0552
  602loPI   GL2 9622  10.341   4.286  10.969 -0.0424 -0.2171  0.1473
  602loPI   C1A 9623  10.797   4.534  10.588 -0.4459  0.1001 -0.1475
  602loPI   C2A 9624  10.739   4.653  10.235 -0.0877  0.0237  0.0893
  602loPI   C3A 9625  10.816   4.583   9.800 -0.1488 -0.1529  0.2157
  602loPI   C4A 9626  10.737   4.521   9.455  0.0896 -0.2853 -0.2272
  602loPI   C5A 9627  10.696   4.483   8.940 -0.1745  0.1196 -0.2537
  602loPI   C6A 9628  10.572   4.433   8.495  0.0190  0.0551 -0.1259
  602loPI   C1B 9629  10.514   4.134  10.545 -0.0005 -0.0853 -0.0679
  602loPI   C2B 9630  10.505   4.236  10.173 -0.0834 -0.1539  0.1059
  602loPI   C3B 9631  10.542   4.105   9.749  0.1000  0.1833  0.1742
  602loPI   C4B 9632  10.569   4.020   9.326  0.0670 -0.1236  0.3583
  603loPI    C1 9633   9.651  17.507  11.680 -0.1055  0.0774 -0.1409
  603loPI    C2 9634   9.653  17.184  11.444  0.0636 -0.1452  0.1604
  603loPI    C3 9635   9.590  17.145  11.838 -0.0378  0.2035  0.1821
  603loPI   PO4 9636   9.591  17.728  11.536 -0.0547 -0.0300 -0.0218
  603loPI   GL1 9637   9.810  17.728  11.193 -0.1806 -0.0611  0.3073
  603loPI   GL2 9638   9.662  17.430  11.040  0.0415  0.0297  0.1022
  603loPI   C1A 9639   9.931  17.794  10.757  0.2585 -0.1246 -0.3634
  603loPI   C2A 9640   9.964  17.681  10.268  0.3120  0.1470  0.1376
  603loPI   C3A 9641   9.896  17.734   9.875  0.2905 -0.0489  0.1499
  603loPI   C4A 9642   9.869  17.698   9.431 -0.1422  0.2373 -0.0243
  603loPI   C5A 9643   9.852  17.774   9.002  0.1609 -0.0032  0.0278
  603loPI   C6A 9644  10.014  17.641   8.628 -0.4173 -0.3055  0.2019
  603loPI   C1B 9645   9.669  17.252  10.651 -0.5829 -0.1229 -0.2932
  603loPI   C2B 9646   9.691  17.260  10.241 -0.1705  0.0559 -0.4005
  603loPI   C3B 9647   9.625  17.236   9.841 -0.0586  0.0841 -0.0341
  603loPI   C4B 9648   9.607  17.206   9.475 -0.1922  0.1213 -0.0801
  604loPI    C1 9649  16.367  11.950  11.545  0.1101 -0.2636  0.0121
  604loPI    C2 9650  16.011  11.858  11.702 -0.0267 -0.1342 -0.2163
  604loPI    C3 9651  16.248  12.123  11.886 -0.0867 -0.1534 -0.1102
  604loPI   PO4 9652  16.385  11.981  11.129  0.2027 -0.3542 -0.2257
  604loPI   GL1 9653  16.327  12.032  10.788  0.2586 -0.2917  0.0694
  604loPI   GL2 9654  16.645  12.159  10.685  0.0350  0.0078  0.0964
  604loPI   C1A 9655  16.289  11.910  10.369 -0.0856  0.4250 -0.0656
  604loPI   C2A 9656  16.211  11.901   9.950  0.3296  0.1499 -0.0730
  604loPI   C3A 9657  16.324  11.923   9.556 -0.0796  0.4303  0.0012
  604loPI   C4A 9658  16.311  11.808   9.180 -0.0577  0.1613  0.0172
  604loPI   C5A 9659  16.433  11.798   8.667  0.2161 -0.2783 -0.4235
  604loPI   C6A 9660  16.812  12.026   8.421 -0.0096  0.2133 -0.3340
  604loPI   C1B 9661  16.706  12.241  10.200 -0.0584 -0.0066  0.0349
  604loPI   C2B 9662  16.724  12.248   9.785 -0.2331 -0.2552  0.1921
  604loPI   C3B 9663  16.733  12.223   9.351 -0.2586  0.0005  0.0868
  604loPI   C4B 9664  16.689  12.246   8.990  0.1115 -0.2869  0.0825
  605loPI    C1 9665  14.835  15.790  11.685 -0.0645 -0.0853  0.0580
  605loPI    C2 9666  14.732  15.539  11.978  0.0410 -0.1074  0.0764
  605loPI    C3 9667  14.603  15.917  11.984  0.0760 -0.0967  0.1728
  605loPI   PO4 9668  14.787  15.731  11.424 -0.2378  0.1283 -0.2394
  605loPI   GL1 9669  14.920  15.757  11.054 -0.1186 -0.2815 -0.0146
  605loPI   GL2 9670  15.071  16.044  10.867 -0.2876  0.0668  0.2242
  605loPI   C1A 9671  14.821  15.610  10.622  0.0359  0.3298 -0.1284
  605loPI   C2A 9672  14.794  15.601  10.178 -0.2093  0.3751  0.2104
  605loPI   C3A 9673  14.864  15.557   9.834  0.0629  0.3390  0.0610
  605loPI   C4A 9674  14.770  15.601   9.511 -0.0402 -0.1324 -0.2902
  605loPI   C5A 9675  14.795  15.514   9.042 -0.2431 -0.0304  0.0414
  605loPI   C6A 9676  14.407  15.404   8.843  0.3410 -0.2312 -0.0830
  605loPI   C1B 9677  15.044  16.002  10.442 -0.0575  0.0200 -0.1792
  605loPI   C2B 9678  15.022  16.028  10.110  0.1562 -0.0360 -0.1909
  605loPI   C3B 9679  15.009  15.999   9.719 -0.1127 -0.0728 -0.2368
  605loPI   C4B 9680  15.003  16.010   9.221 -0.1807  0.2021  0.0628
  606loPI    C1 9681  17.461  12.195  11.331 -0.0244 -0.3183 -0.2052
  606loPI    C2 9682  17.463  11.925  11.626 -0.1253 -0.0034  0.0899
  606loPI    C3 9683  17.319  12.292  11.691  0.1609  0.1780 -0.2583
  606loPI   PO4 9684  17.728  12.176  11.232  0.0236 -0.2043 -0.0934
  606loPI   GL1 9685  17.855  12.192  10.803  0.0745  0.1543 -0.1619
  606loPI   GL2 9686  17.890  12.518  10.666  0.2529 -0.0576 -0.1849
  606loPI   C1A 9687  18.125  12.087  10.454  0.2868  0.1183  0.2111
  606loPI   C2A 9688  18.163  12.075  10.104  0.3998 -0.2133  0.1721
  606loPI   C3A 9689  18.044  12.043   9.696  0.1675  0.1898  0.1264
  606loPI   C4A 9690  18.192  12.116   9.361  0.2119  0.0396 -0.1134
  606loPI   C5A 9691  18.148  12.264   9.021 -0.2611 -0.0425 -0.0342
  606loPI   C6A 9692  18.076  12.476   8.617  0.1435 -0.1242 -0.2242
  606loPI   C1B 9693  17.931  12.607  10.259  0.2025  0.2359 -0.2065
  606loPI   C2B 9694  18.049  12.528   9.883 -0.0313 -0.0406 -0.0424
  606loPI   C3B 9695  18.070  12.625   9.407  0.0846  0.1295 -0.0137
  606loPI   C4B 9696  17.965  12.820   9.050  0.1142 -0.0066 -0.0100
  607loPI    C1 9697   4.693   3.623  11.856 -0.1406 -0.2509  0.1577
  607loPI    C2 9698   4.753   3.875  12.161 -0.0576 -0.0095 -0.0551
  607loPI    C3 9699   4.432   3.636  12.160 -0.1235  0.0757  0.1611
  607loPI   PO4 9700   4.660   3.719  11.511 -0.1052  0.3479 -0.2868
  607loPI   GL1 9701   4.782   3.793  11.083 -0.3499 -0.1036 -0.0062
  607loPI   GL2 9702   4.443   3.796  11.033  0.1563  0.3364 -0.1887
  607loPI   C1A 9703   4.876   3.856  10.649 -0.1829 -0.1987 -0.2228
  607loPI   C2A 9704   4.855   3.880  10.230  0.0150 -0.3168  0.0221
  607loPI   C3A 9705   4.922   3.936   9.795  0.0147  0.4432  0.0475
  607loPI   C4A 9706   4.927   3.814   9.378  0.3070  0.2483  0.2403
  607loPI   C5A 9707   5.085   3.597   9.031  0.2209 -0.2053  0.1694
  607loPI   C6A 9708   5.120   3.560   8.635  0.0624 -0.2316 -0.1331
  607loPI   C1B 9709   4.425   3.796  10.662  0.0193  0.1334 -0.0872
  607loPI   C2B 9710   4.346   3.820  10.247 -0.0485  0.1685 -0.2876
  607loPI   C3B 9711   4.415   3.845   9.777 -0.1798  0.0191 -0.0722
  607loPI   C4B 9712   4.411   3.876   9.348 -0.0023 -0.2195  0.1270
  608loPI    C1 9713  10.511  14.256  11.849 -0.0614 -0.1141 -0.0169
  608loPI    C2 9714  10.480  14.438  12.204  0.1503 -0.1379  0.0153
  608loPI    C3 9715  10.255  14.117  12.123 -0.1019  0.0347  0.0219
  608loPI   PO4 9716  10.611  14.457  11.668 -0.0805 -0.1077  0.1150
  608loPI   GL1 9717  10.658  14.538  11.099  0.1978  0.1468 -0.1162
  608loPI   GL2 9718  10.843  14.473  10.895  0.1215 -0.2589  0.3177
  608loPI   C1A 9719  10.410  14.797  10.884 -0.0891  0.2422 -0.0236
  608loPI   C2A 9720  10.425  15.059  10.428  0.5790 -0.1234  0.1765
  608loPI   C3A 9721  10.534  15.030   9.983  0.0870  0.0864  0.0709
  608loPI   C4A 9722  10.524  14.882   9.530 -0.1331 -0.1231  0.1740
  608loPI   C5A 9723  10.536  14.915   9.043 -0.0368  0.0305 -0.0308
  608loPI   C6A 9724  10.363  15.081   8.746  0.0838  0.0787  0.0948
  608loPI   C1B 9725  10.741  14.598  10.429 -0.3159  0.0616 -0.2444
  608loPI   C2B 9726  10.688  14.562   9.974  0.0291 -0.2592  0.2632
  608loPI   C3B 9727  10.829  14.474   9.534 -0.2771 -0.0616  0.0346
  608loPI   C4B 9728  10.760  14.427   9.037 -0.0181  0.2179  0.0986
  609POPI    C1 9729   6.442  17.530  11.392  0.2899 -0.0565  0.0447
  609POPI    C2 9730   6.157  17.747  11.571  0.1275 -0.2120 -0.0227
  609POPI    C3 9731   6.303  17.421  11.751  0.2865 -0.1155  0.0256
  609POPI   PO4 9732   6.392  17.531  11.190 -0.0609 -0.0609 -0.1651
  609POPI   GL1 9733   6.303  17.446  10.852 -0.1768 -0.2690  0.0472
  609POPI   GL2 9734   6.048  17.468  10.745  0.4414 -0.1538 -0.2067
  609POPI   C1A 9735   6.340  17.478  10.377  0.1779 -0.1388 -0.0356
  609POPI   D2A 9736   6.214  17.588   9.998 -0.0800 -0.1128 -0.1053
  609POPI   C3A 9737   6.223  17.480   9.663 -0.1613  0.0174  0.0533
  609POPI   C4A 9738   6.246  17.511   9.165 -0.1585  0.3985 -0.1463
  609POPI   C1B 9739   5.841  17.532  10.332  0.3014 -0.0367  0.1161
  609POPI   C2B 9740   5.780  17.543   9.893 -0.2223  0.1200  0.1490
  609POPI   C3B 9741   5.768  17.394   9.457 -0.1322 -0.2912  0.0102
  609POPI   C4B 9742   5.803  17.436   9.047 -0.0001  0.1816  0.0558
  610POPI    C1 9743  15.837  14.920  11.495 -0.0360 -0.0385  0.0491
  610POPI    C2 9744  15.883  14.538  11.602  0.1807  0.0147  0.1499
  610POPI    C3 9745  15.925  14.828  11.874 -0.1891  0.1008  0.1196
  610POPI   PO4 9746  15.928  14.912  11.282  0.3043  0.0224 -0.0996
  610POPI   GL1 9747  15.935  14.784  10.849 -0.2119 -0.2659  0.0766
  610POPI   GL2 9748  16.010  15.175  10.868 -0.2274 -0.0466 -0.0023
  610POPI   C1A 9749  15.939  14.794  10.462  0.3336  0.0799 -0.1015
  610POPI   D2A 9750  15.895  14.779  10.155 -0.1118  0.0973 -0.3570
  610POPI   C3A 9751  15.556  14.799   9.851 -0.0684  0.0003  0.4642
  610POPI   C4A 9752  15.345  14.798   9.377  0.0451 -0.0556  0.0449
  610POPI   C1B 9753  16.134  15.237  10.449 -0.1119  0.1741 -0.1385
  610POPI   C2B 9754  16.181  15.127  10.073 -0.0876 -0.2446 -0.0158
  610POPI   C3B 9755  16.031  15.056   9.770  0.0598 -0.1045  0.1084
  610POPI   C4B 9756  16.070  15.173   9.345  0.1302  0.1229  0.0850
  611POPI    C1 9757  15.291  14.443  11.599  0.2148  0.0519 -0.1797
  611POPI    C2 9758  15.502  14.344  11.924  0.0646 -0.2236 -0.1636
  611POPI    C3 9759  15.378  14.721  11.874 -0.0725 -0.2179  0.1935
  611POPI   PO4 9760  15.427  14.398  11.425  0.1244  0.1201  0.2878
  611POPI   GL1 9761  15.345  14.573  11.103 -0.3474 -0.2543  0.0557
  611POPI   GL2 9762  15.072  14.353  11.072  0.0807  0.0867  0.3197
  611POPI   C1A 9763  15.418  14.773  10.729  0.1766  0.2348 -0.5740
  611POPI   D2A 9764  15.417  14.695  10.332 -0.3416  0.1603  0.2581
  611POPI   C3A 9765  15.224  14.390  10.068 -0.2313 -0.2076  0.1952
  611POPI   C4A 9766  15.275  14.290   9.548  0.1040 -0.0054  0.1665
  611POPI   C1B 9767  15.248  14.314  10.695 -0.0119 -0.0396  0.2410
  611POPI   C2B 9768  15.119  13.977  10.410  0.0243 -0.0265  0.0596
  611POPI   C3B 9769  14.971  13.986  10.051  0.2102 -0.1172 -0.1586
  611POPI   C4B 9770  15.022  13.858   9.721  0.2774 -0.1164 -0.0002
  612POPI    C1 9771   1.077   2.451  11.846  0.1040  0.1276  0.0676
  612POPI    C2 9772   1.362   2.386  12.118  0.1699 -0.0703 -0.0464
  612POPI    C3 9773   0.977   2.379  12.227  0.2030  0.0879  0.0864
  612POPI   PO4 9774   1.046   2.626  11.692  0.2610 -0.0109 -0.0228
  612POPI   GL1 9775   1.196   2.836  11.454 -0.0595 -0.2988 -0.0368
  612POPI   GL2 9776   1.258   2.478  11.252 -0.1307 -0.1385 -0.0598
  612POPI   C1A 9777   1.371   2.939  11.033 -0.0157  0.0800  0.0177
  612POPI   D2A 9778   1.359   2.930  10.489 -0.0949 -0.0849 -0.2539
  612POPI   C3A 9779   1.319   2.974  10.068  0.0003 -0.0146 -0.1236
  612POPI   C4A 9780   1.284   2.865   9.607 -0.7979 -0.2068 -0.1690
  612POPI   C1B 9781   1.105   2.546  10.911 -0.0424  0.0191 -0.0909
  612POPI   C2B 9782   1.066   2.490  10.485 -0.1149 -0.0151  0.0167
  612POPI   C3B 9783   1.109   2.454  10.044 -0.0490 -0.0022  0.0694
  612POPI   C4B 9784   1.069   2.444   9.605 -0.0607 -0.1143 -0.0031
  613POPI    C1 9785   4.644  14.711  11.433  0.1789 -0.1060  0.0221
  613POPI    C2 9786   4.714  15.075  11.583  0.1508 -0.0579 -0.0807
  613POPI    C3 9787   4.575  14.785  11.820  0.4193 -0.0744  0.0608
  613POPI   PO4 9788   4.500  14.696  11.243  0.0791 -0.1320 -0.1560
  613POPI   GL1 9789   4.484  14.783  10.761 -0.3046 -0.0504 -0.0540
  613POPI   GL2 9790   4.637  14.484  10.598 -0.3274  0.0911 -0.0990
  613POPI   C1A 9791   4.173  14.563  10.540  0.2338 -0.1097 -0.1208
  613POPI   D2A 9792   3.743  14.589  10.389  0.0007  0.1394  0.0009
  613POPI   C3A 9793   3.742  14.722   9.975 -0.1397  0.2175  0.0674
  613POPI   C4A 9794   3.833  14.763   9.553 -0.0321  0.0957 -0.0150
  613POPI   C1B 9795   4.720  14.577  10.218 -0.1066 -0.1461  0.1405
  613POPI   C2B 9796   4.749  14.547   9.776 -0.3045  0.3297 -0.0764
  613POPI   C3B 9797   4.931  14.611   9.500  0.1301  0.0622  0.0338
  613POPI   C4B 9798   4.833  14.730   9.031 -0.2228  0.3073 -0.1558
  614POPI    C1 9799   7.799  14.385  11.576  0.0088  0.1287 -0.1981
  614POPI    C2 9800   7.935  14.292  11.940  0.0360  0.0084 -0.2387
  614POPI    C3 9801   7.693  14.606  11.892 -0.0168 -0.0115 -0.1077
  614POPI   PO4 9802   8.002  14.402  11.376 -0.4204 -0.1236 -0.1242
  614POPI   GL1 9803   8.123  14.546  11.026  0.2715 -0.1592 -0.1882
  614POPI   GL2 9804   8.295  14.765  10.959 -0.0218  0.0127  0.3505
  614POPI   C1A 9805   7.970  14.539  10.569 -0.4205 -0.1070 -0.1635
  614POPI   D2A 9806   7.971  14.794  10.121  0.0581 -0.3925  0.3884
  614POPI   C3A 9807   7.824  15.105  10.212  0.0179  0.1255  0.1912
  614POPI   C4A 9808   7.652  15.351   9.915 -0.2692  0.1538  0.0942
  614POPI   C1B 9809   8.392  14.980  10.530 -0.0594  0.0781  0.1903
  614POPI   C2B 9810   8.469  15.032  10.071 -0.0078 -0.0766 -0.3146
  614POPI   C3B 9811   8.356  15.066   9.741  0.0670 -0.0485  0.1512
  614POPI   C4B 9812   8.455  14.864   9.517  0.0665 -0.2658 -0.1342
  615POPI    C1 9813   9.531   2.288  11.421 -0.3968 -0.0412  0.0548
  615POPI    C2 9814   9.231   2.389  11.665 -0.1158 -0.0310  0.4040
  615POPI    C3 9815   9.579   2.263  11.817  0.0367 -0.1084  0.0032
  615POPI   PO4 9816   9.504   2.190  11.284  0.0576 -0.1877  0.0336
  615POPI   GL1 9817   9.414   2.047  10.925  0.1524 -0.0427 -0.1421
  615POPI   GL2 9818   9.244   1.801  10.726  0.1902 -0.0478 -0.1063
  615POPI   C1A 9819   9.546   2.239  10.470  0.0366 -0.0631 -0.0861
  615POPI   D2A 9820   9.532   2.259  10.050 -0.0253  0.2080  0.1490
  615POPI   C3A 9821   9.505   2.294   9.671 -0.1735 -0.0199 -0.1339
  615POPI   C4A 9822   9.500   2.302   9.200 -0.0229  0.1801 -0.0525
  615POPI   C1B 9823   9.144   1.849  10.283  0.0452 -0.0045  0.0700
  615POPI   C2B 9824   9.313   1.824   9.858 -0.2440  0.5022  0.2803
  615POPI   C3B 9825   9.311   1.827   9.399  0.1316 -0.1085  0.1069
  615POPI   C4B 9826   9.249   1.629   8.996  0.2656 -0.0146 -0.1139
  616POPI    C1 9827   9.384   4.493  11.500 -0.3514 -0.2715 -0.1792
  616POPI    C2 9828   9.074   4.566  11.742 -0.1435 -0.0593  0.0284
  616POPI    C3 9829   9.392   4.365  11.879 -0.0104  0.0911 -0.0571
  616POPI   PO4 9830   9.285   4.446  11.302  0.0329  0.0000  0.0902
  616POPI   GL1 9831   9.292   4.632  10.930  0.3158 -0.3320  0.0367
  616POPI   GL2 9832   9.407   4.851  11.021  0.0316 -0.2095 -0.0542
  616POPI   C1A 9833   9.231   4.581  10.439 -0.1347 -0.2216 -0.0632
  616POPI   D2A 9834   9.329   4.532  10.097 -0.0622  0.3314  0.0046
  616POPI   C3A 9835   9.247   4.521   9.643 -0.0709  0.0544  0.1431
  616POPI   C4A 9836   9.236   4.468   9.199  0.1950  0.0213  0.1158
  616POPI   C1B 9837   9.511   5.083  10.591 -0.1162  0.1660  0.0470
  616POPI   C2B 9838   9.499   4.985  10.138  0.1971 -0.1935  0.0901
  616POPI   C3B 9839   9.557   4.939   9.726 -0.0857 -0.1476  0.2261
  616POPI   C4B 9840   9.498   4.972   9.271 -0.1550 -0.0257 -0.2633
  617POPI    C1 9841  17.659   2.437  11.786  0.0944 -0.1224  0.0384
  617POPI    C2 9842  17.511   2.582  12.129 -0.0210  0.0669 -0.0894
  617POPI    C3 9843  17.295   2.325  11.911  0.1105 -0.1646  0.0479
  617POPI   PO4 9844  17.780   2.706  11.647 -0.0875  0.0673 -0.0630
  617POPI   GL1 9845  17.872   2.922  11.294  0.1767  0.0039 -0.0112
  617POPI   GL2 9846  18.061   3.230  11.269  0.0580 -0.0955  0.1539
  617POPI   C1A 9847  17.980   2.799  10.890 -0.1534 -0.0196  0.1793
  617POPI   D2A 9848  17.964   2.777  10.427  0.0077 -0.1684 -0.0010
  617POPI   C3A 9849  17.984   2.850   9.956 -0.2464  0.0731 -0.1528
  617POPI   C4A 9850  17.895   2.743   9.528 -0.3059 -0.2918  0.0926
  617POPI   C1B 9851  18.332   3.373  10.903 -0.0446  0.3552  0.0022
  617POPI   C2B 9852  18.314   3.411  10.439  0.2092 -0.0791  0.1001
  617POPI   C3B 9853  18.229   3.300  10.043 -0.0120  0.0515 -0.1309
  617POPI   C4B 9854  18.190   3.180   9.646 -0.0690 -0.2779 -0.1965
  618POPI    C1 9855  17.580   0.891  11.987  0.0370 -0.1899  0.1306
  618POPI    C2 9856  17.838   0.594  12.060  0.2424 -0.0092  0.1530
  618POPI    C3 9857  17.528   0.656  12.306  0.0805 -0.3293  0.0361
  618POPI   PO4 9858  17.499   0.804  11.709 -0.0175  0.0109  0.0046
  618POPI   GL1 9859  17.389   0.909  11.360 -0.0051 -0.0377  0.0891
  618POPI   GL2 9860  17.150   1.012  11.369  0.0445 -0.2334  0.1251
  618POPI   C1A 9861  17.513   1.005  10.860  0.0605  0.0507  0.1174
  618POPI   D2A 9862  17.493   1.087  10.416 -0.0458 -0.1900  0.2371
  618POPI   C3A 9863  17.486   1.085  10.023  0.2641  0.1833  0.0641
  618POPI   C4A 9864  17.472   1.002   9.670 -0.1001  0.2700 -0.0693
  618POPI   C1B 9865  17.006   0.937  10.933  0.0546  0.2831 -0.1945
  618POPI   C2B 9866  16.996   1.053  10.565 -0.0745  0.0514 -0.0345
  618POPI   C3B 9867  16.951   1.085  10.118 -0.1892 -0.0391  0.0380
  618POPI   C4B 9868  16.968   1.099   9.704 -0.1643 -0.1176  0.3028
  619POPI    C1 9869  15.448  17.147  11.709 -0.0332  0.1307 -0.0695
  619POPI    C2 9870  15.413  17.514  11.864 -0.0203  0.1523 -0.1178
  619POPI    C3 9871  15.661  17.250  12.032  0.0788  0.2126 -0.1686
  619POPI   PO4 9872  15.348  17.166  11.525  0.1600  0.0465 -0.1802
  619POPI   GL1 9873  15.512  17.218  11.126  0.0690  0.2593 -0.1625
  619POPI   GL2 9874  15.173  17.302  11.025  0.3552  0.1512 -0.0292
  619POPI   C1A 9875  15.487  16.921  10.800 -0.2129 -0.1517  0.1702
  619POPI   D2A 9876  15.540  16.926  10.356 -0.1113 -0.0586  0.0069
  619POPI   C3A 9877  15.514  16.915   9.884 -0.1864 -0.0359 -0.1765
  619POPI   C4A 9878  15.497  16.827   9.406  0.0871 -0.1618 -0.1109
  619POPI   C1B 9879  15.310  17.343  10.642  0.2936  0.1916  0.0951
  619POPI   C2B 9880  15.316  17.329  10.193  0.1418  0.0487  0.1418
  619POPI   C3B 9881  15.249  17.347   9.700  0.0285 -0.1004 -0.0702
  619POPI   C4B 9882  15.187  17.281   9.263 -0.3007  0.2458 -0.3175
  620POPI    C1 9883   2.270   2.845  11.775 -0.0252  0.0345  0.1111
  620POPI    C2 9884   1.970   2.790  11.517  0.2428 -0.0720 -0.1848
  620POPI    C3 9885   1.891   2.865  11.902 -0.1605 -0.0540 -0.2658
  620POPI   PO4 9886   2.449   2.676  11.615  0.2395  0.0660 -0.0393
  620POPI   GL1 9887   2.658   2.604  11.245 -0.0955  0.1654 -0.1711
  620POPI   GL2 9888   2.286   2.479  11.160  0.0543  0.0167 -0.2517
  620POPI   C1A 9889   2.647   2.497  10.780  0.0805 -0.0178  0.2218
  620POPI   D2A 9890   2.505   2.431  10.363 -0.0852  0.0563  0.2540
  620POPI   C3A 9891   2.679   2.481   9.937  0.4425  0.1011  0.1375
  620POPI   C4A 9892   2.617   2.486   9.512 -0.2326  0.1149  0.0148
  620POPI   C1B 9893   2.077   2.472  10.775 -0.0217 -0.2917 -0.0393
  620POPI   C2B 9894   2.024   2.451  10.237  0.0074  0.0025 -0.1985
  620POPI   C3B 9895   2.081   2.519   9.916  0.2275  0.0885 -0.0407
  620POPI   C4B 9896   2.129   2.415   9.514 -0.2105  0.0338 -0.0762
  621POPI    C1 9897   5.323   0.478  11.662 -0.0214  0.1446 -0.0482
  621POPI    C2 9898   5.000   0.709  11.711  0.0976  0.2809  0.1089
  621POPI    C3 9899   5.152   0.510  12.023 -0.0646 -0.0948 -0.0465
  621POPI   PO4 9900   5.452   0.638  11.452 -0.1489  0.2115  0.0762
  621POPI   GL1 9901   5.447   0.767  11.093 -0.0716 -0.1318  0.0840
  621POPI   GL2 9902   5.746   0.636  11.057 -0.4307 -0.0759 -0.2105
  621POPI   C1A 9903   5.256   0.768  10.686 -0.1152  0.0927  0.0584
  621POPI   D2A 9904   5.223   0.760  10.185  0.1068 -0.1386 -0.0697
  621POPI   C3A 9905   5.256   0.685   9.764  0.1916 -0.1785 -0.2019
  621POPI   C4A 9906   5.313   0.715   9.257 -0.0085 -0.3098 -0.0805
  621POPI   C1B 9907   5.777   0.754  10.580  0.2127  0.0778 -0.3081
  621POPI   C2B 9908   5.704   0.809  10.131  0.3295  0.1170  0.0821
  621POPI   C3B 9909   5.772   0.810   9.779 -0.1283  0.0882  0.2417
  621POPI   C4B 9910   5.745   0.657   9.500  0.2449 -0.1196 -0.2133
  622POPI    C1 9911  11.732   8.950  11.396  0.2314 -0.1180 -0.0012
  622POPI    C2 9912  11.481   8.693  11.571 -0.0233  0.1302  0.0065
  622POPI    C3 9913  11.840   8.763  11.732 -0.0511 -0.0315  0.1417
  622POPI   PO4 9914  11.540   9.047  11.128 -0.0119 -0.0582 -0.4937
  622POPI   GL1 9915  11.410   8.934  10.721 -0.3596  0.0584  0.0123
  622POPI   GL2 9916  11.129   9.053  10.593  0.2427 -0.4071 -0.1542
  622POPI   C1A 9917  11.550   8.721  10.340  0.0164  0.2850  0.0699
  622POPI   D2A 9918  11.621   8.808   9.909 -0.1041  0.1660 -0.2469
  622POPI   C3A 9919  11.531   8.590   9.630  0.1266 -0.0996 -0.0065
  622POPI   C4A 9920  11.575   8.559   9.161 -0.1749  0.1432 -0.1445
  622POPI   C1B 9921  11.156   9.004  10.158 -0.2082  0.3005 -0.0201
  622POPI   C2B 9922  11.078   8.830   9.730  0.3019 -0.0543  0.2579
  622POPI   C3B 9923  11.091   8.795   9.380  0.1929  0.4133  0.1007
  622POPI   C4B 9924  10.898   8.794   8.978  0.0668 -0.2495  0.0983
  623POPI    C1 9925  12.265  12.305  11.476 -0.1110  0.0681  0.0951
  623POPI    C2 9926  12.375  12.053  11.767 -0.0794 -0.0810 -0.0445
  623POPI    C3 9927  12.623  12.345  11.651 -0.0215 -0.1279 -0.0393
  623POPI   PO4 9928  12.172  12.210  11.325 -0.3797  0.1862  0.0047
  623POPI   GL1 9929  12.264  12.242  10.962  0.0652 -0.1453  0.1429
  623POPI   GL2 9930  12.294  11.909  10.860  0.4003 -0.4251  0.1291
  623POPI   C1A 9931  12.246  12.425  10.506 -0.1443  0.2678  0.0229
  623POPI   D2A 9932  12.178  12.541  10.141  0.2728  0.4133 -0.0575
  623POPI   C3A 9933  12.185  12.332   9.803  0.1201  0.0628 -0.1618
  623POPI   C4A 9934  12.127  12.272   9.380 -0.2273  0.0733  0.1479
  623POPI   C1B 9935  12.236  11.957  10.415  0.4617 -0.0138 -0.2231
  623POPI   C2B 9936  12.257  11.814   9.939  0.0566 -0.1771 -0.2413
  623POPI   C3B 9937  12.097  11.786   9.508  0.2592 -0.0613  0.3348
  623POPI   C4B 9938  12.146  11.829   9.053  0.0095 -0.1439 -0.0214
  624POPI    C1 9939  15.124   8.280  11.499  0.1267 -0.1147 -0.1164
  624POPI    C2 9940  14.844   8.472  11.711  0.1126 -0.2291 -0.0309
  624POPI    C3 9941  15.151   8.296  11.898  0.3440  0.0552 -0.1358
  624POPI   PO4 9942  14.991   8.076  11.340  0.1045  0.0126 -0.4079
  624POPI   GL1 9943  15.057   7.897  10.898  0.1043  0.0235 -0.0751
  624POPI   GL2 9944  15.136   8.241  10.805 -0.0935  0.2258 -0.0580
  624POPI   C1A 9945  15.210   7.848  10.533  0.2216 -0.0054 -0.0607
  624POPI   D2A 9946  15.249   7.844  10.073  0.2741 -0.2839 -0.4995
  624POPI   C3A 9947  15.243   7.835   9.626  0.0239 -0.0083 -0.1239
  624POPI   C4A 9948  15.301   7.857   9.239 -0.0563  0.1566  0.2108
  624POPI   C1B 9949  15.288   8.356  10.350 -0.2818  0.2200  0.0891
  624POPI   C2B 9950  15.298   8.380   9.821  0.1411  0.1386 -0.2476
  624POPI   C3B 9951  15.163   8.342   9.412 -0.0736 -0.1437 -0.4540
  624POPI   C4B 9952  15.174   8.428   9.038 -0.1807  0.2123  0.0940
  625DPPI    C1 9953  17.475   3.901  11.790 -0.0303  0.2989  0.0810
  625DPPI    C2 9954  17.599   4.186  11.538 -0.0143  0.0850 -0.1572
  625DPPI    C3 9955  17.208   4.136  11.608 -0.0292  0.0334 -0.2750
  625DPPI   PO4 9956  17.700   3.736  11.759 -0.0343  0.0255  0.5656
  625DPPI   GL1 9957  17.675   3.591  11.346 -0.1561  0.0973 -0.0473
  625DPPI   GL2 9958  17.358   3.763  11.306  0.0583 -0.2475 -0.0993
  625DPPI   C1A 9959  17.937   3.639  11.035  0.0463 -0.0089 -0.0009
  625DPPI   C2A 9960  17.962   3.754  10.600  0.0047 -0.1823  0.1197
  625DPPI   C3A 9961  17.963   3.788  10.202  0.0385 -0.1208 -0.0498
  625DPPI   C4A 9962  17.890   3.788   9.759 -0.1417  0.0531 -0.1453
  625DPPI   C1B 9963  17.456   3.715  10.911  0.0279  0.4746  0.3631
  625DPPI   C2B 9964  17.451   3.725  10.477  0.3457  0.1672  0.1231
  625DPPI   C3B 9965  17.512   3.715  10.062  0.2454  0.0126  0.3438
  625DPPI   C4B 9966  17.413   3.674   9.660  0.2337 -0.0782 -0.0570
  626DPPI    C1 9967  12.155  15.265  11.774  0.0744  0.0765  0.1178
  626DPPI    C2 9968  12.463  15.026  11.687 -0.0123 -0.0046  0.0322
  626DPPI    C3 9969  12.469  15.245  12.021  0.1650  0.0407  0.0007
  626DPPI   PO4 9970  12.134  15.298  11.489 -0.2195 -0.1836  0.0502
  626DPPI   GL1 9971  12.052  15.714  11.262 -0.1976 -0.2145 -0.0238
  626DPPI   GL2 9972  12.457  15.723  11.126  0.2600 -0.0071  0.4133
  626DPPI   C1A 9973  12.031  15.990  10.870  0.2007 -0.0473 -0.1695
  626DPPI   C2A 9974  11.960  15.952  10.430 -0.3579  0.1407 -0.1798
  626DPPI   C3A 9975  11.984  15.932  10.028 -0.2498  0.1807 -0.1521
  626DPPI   C4A 9976  11.998  15.848   9.521 -0.1624  0.0285  0.0007
  626DPPI   C1B 9977  12.520  15.911  10.746  0.0174 -0.1275  0.2218
  626DPPI   C2B 9978  12.458  15.978  10.301 -0.0871 -0.3562  0.2118
  626DPPI   C3B 9979  12.459  15.947   9.758 -0.3734 -0.1484 -0.0728
  626DPPI   C4B 9980  12.467  15.838   9.292 -0.0096 -0.0021 -0.0010
  627DPPI    C1 9981  13.998  15.541  11.460 -0.0060  0.2638  0.1636
  627DPPI    C2 9982  14.370  15.483  11.596  0.0816 -0.0305 -0.1845
  627DPPI    C3 9983  14.061  15.303  11.775  0.0899  0.2851  0.1607
  627DPPI   PO4 9984  14.032  15.561  11.226 -0.2966  0.1876  0.0312
  627DPPI   GL1 9985  14.366  15.546  11.056 -0.0539  0.0144  0.0968
  627DPPI   GL2 9986  14.554  15.377  11.057  0.0906 -0.0278  0.1888
  627DPPI   C1A 9987  14.303  15.542  10.575  0.0257  0.0391 -0.1228
  627DPPI   C2A 9988  14.302  15.507  10.172 -0.0990 -0.0774 -0.0545
  627DPPI   C3A 9989  14.277  15.571   9.750 -0.0152  0.0690  0.0207
  627DPPI   C4A 9990  14.284  15.547   9.315  0.1623 -0.1121  0.0658
  627DPPI   C1B 9991  14.626  15.165  10.740  0.1504 -0.1552 -0.2136
  627DPPI   C2B 9992  14.602  15.105  10.369 -0.1846 -0.1018 -0.0336
  627DPPI   C3B 9993  14.513  15.152   9.856  0.2077 -0.0886 -0.0556
  627DPPI   C4B 9994  14.549  15.135   9.431 -0.0189  0.0900  0.2266
  628DPPI    C1 9995  17.123  15.247  11.160  0.2700  0.1864 -0.1510
  628DPPI    C2 9996  17.277  15.322  11.522  0.0468 -0.1469  0.0186
  628DPPI    C3 9997  16.901  15.430  11.439  0.1341  0.0302 -0.1553
  628DPPI   PO4 9998  17.274  15.333  10.988  0.3803  0.1970 -0.0209
  628DPPI   GL1 9999  17.329  15.598  10.690 -0.0786  0.1213  0.0887
  628DPPI   GL210000  17.000  15.538  10.507  0.3518 -0.1105 -0.0836
  628DPPI   C1A10001  17.410  15.536  10.257  0.0342 -0.0408 -0.0045
  628DPPI   C2A10002  17.347  15.643   9.782 -0.1297  0.0084  0.0624
  628DPPI   C3A10003  17.340  15.615   9.336 -0.0225  0.1238  0.1463
  628DPPI   C4A10004  17.268  15.444   8.955 -0.0534 -0.5454  0.3362
  628DPPI   C1B10005  16.896  15.561  10.155 -0.0859  0.1871  0.1043
  628DPPI   C2B10006  16.896  15.547   9.687  0.1463  0.0235 -0.1382
  628DPPI   C3B10007  16.749  15.601   9.275 -0.3111  0.0856 -0.2514
  628DPPI   C4B10008  16.784  15.664   8.866 -0.3404 -0.1160  0.3169
  629DPPI    C110009  16.451  15.857  11.331  0.0486  0.3052  0.0650
  629DPPI    C210010  16.399  16.098  11.646 -0.5125  0.3511 -0.0530
  629DPPI    C310011  16.114  15.836  11.545  0.0957 -0.4026  0.0932
  629DPPI   PO410012  16.529  15.997  11.132  0.5892  0.0236  0.0756
  629DPPI   GL110013  16.334  15.938  10.750 -0.0390 -0.4016  0.0318
  629DPPI   GL210014  16.730  15.986  10.647  0.0240  0.4008 -0.2572
  629DPPI   C1A10015  16.095  15.981  10.459 -0.0004  0.2524  0.0293
  629DPPI   C2A10016  16.096  16.025  10.055  0.0284  0.0406  0.3868
  629DPPI   C3A10017  16.125  16.039   9.578 -0.0008 -0.0353 -0.2914
  629DPPI   C4A10018  16.071  15.999   9.175 -0.4242  0.1290 -0.0752
  629DPPI   C1B10019  16.628  15.992  10.211 -0.2513  0.3904 -0.0377
  629DPPI   C2B10020  16.563  16.008   9.831 -0.2126  0.0712 -0.0438
  629DPPI   C3B10021  16.569  16.044   9.360 -0.1501 -0.2682 -0.1226
  629DPPI   C4B10022  16.558  16.136   8.980  0.1433  0.0053 -0.4088
  630DPPI    C110023  11.399  16.130  11.892 -0.2175 -0.0270 -0.0887
  630DPPI    C210024  11.521  16.259  12.250 -0.0041 -0.0702 -0.1443
  630DPPI    C310025  11.268  16.480  12.033  0.0220  0.0500 -0.0528
  630DPPI   PO410026  11.680  16.029  11.697  0.2248  0.0458 -0.1171
  630DPPI   GL110027  11.711  16.172  11.281  0.0507  0.1455 -0.0297
  630DPPI   GL210028  11.480  15.937  11.199  0.0685 -0.0338  0.0135
  630DPPI   C1A10029  11.706  16.320  10.928 -0.3695 -0.1537 -0.2015
  630DPPI   C2A10030  11.733  16.359  10.522  0.2182 -0.0141 -0.1254
  630DPPI   C3A10031  11.690  16.380  10.162  0.0731 -0.0850 -0.1103
  630DPPI   C4A10032  11.739  16.329   9.728 -0.0985  0.2912 -0.1697
  630DPPI   C1B10033  11.513  15.948  10.731  0.1411 -0.2097 -0.2828
  630DPPI   C2B10034  11.465  15.921  10.323 -0.0634  0.2587 -0.0050
  630DPPI   C3B10035  11.494  15.873   9.944  0.0532  0.0117 -0.0310
  630DPPI   C4B10036  11.489  15.940   9.490 -0.1478 -0.1123 -0.1236
  631DPPI    C110037  12.935  17.002  11.681 -0.0334 -0.2028  0.0599
  631DPPI    C210038  12.752  17.302  11.873  0.2269 -0.1224  0.1877
  631DPPI    C310039  12.697  16.925  11.993 -0.0460 -0.1226  0.0706
  631DPPI   PO410040  12.849  17.059  11.440 -0.3690 -0.0742 -0.1575
  631DPPI   GL110041  12.977  17.197  11.072 -0.0487 -0.0719 -0.1746
  631DPPI   GL210042  12.665  17.304  11.016 -0.1332  0.1481 -0.1622
  631DPPI   C1A10043  13.224  17.336  10.642  0.2009 -0.1244 -0.1902
  631DPPI   C2A10044  13.184  17.267  10.242  0.1385  0.1421 -0.2339
  631DPPI   C3A10045  13.145  17.313   9.838  0.0346  0.0391 -0.1969
  631DPPI   C4A10046  13.152  17.284   9.373  0.0388  0.0680 -0.0029
  631DPPI   C1B10047  12.747  17.286  10.579  0.0283 -0.1616  0.1789
  631DPPI   C2B10048  12.717  17.271  10.119  0.2855  0.0584 -0.0394
  631DPPI   C3B10049  12.673  17.302   9.710  0.1028 -0.0646  0.1264
  631DPPI   C4B10050  12.620  17.284   9.303  0.1292  0.3097  0.0663
  632DPPI    C110051  10.947   8.811  11.451 -0.0604  0.2371 -0.1413
  632DPPI    C210052  11.193   9.122  11.506  0.2205  0.0155 -0.1204
  632DPPI    C310053  11.079   8.898  11.818  0.2547 -0.0777 -0.1743
  632DPPI   PO410054  11.086   8.743  11.216 -0.2603 -0.2297  0.1925
  632DPPI   GL110055  10.752   8.757  10.909 -0.2906 -0.4640 -0.0090
  632DPPI   GL210056  10.483   8.628  10.830 -0.3500  0.0786  0.0606
  632DPPI   C1A10057  10.815   8.780  10.458  0.1153  0.1131 -0.1782
  632DPPI   C2A10058  10.668   8.650  10.057  0.2271 -0.3340  0.0194
  632DPPI   C3A10059  10.670   8.585   9.669 -0.0885 -0.0063 -0.0615
  632DPPI   C4A10060  10.517   8.575   9.239 -0.5615  0.1834  0.2410
  632DPPI   C1B10061  10.330   8.528  10.458 -0.1183 -0.1808 -0.1127
  632DPPI   C2B10062  10.228   8.407  10.101  0.1624  0.1355 -0.0489
  632DPPI   C3B10063  10.225   8.337   9.714  0.2111 -0.1438  0.2488
  632DPPI   C4B10064  10.066   8.360   9.318  0.2919  0.1842  0.1729
  633DPPI    C110065   0.880   8.569  11.645  0.0183 -0.0336 -0.0619
  633DPPI    C210066   1.140   8.349  11.854  0.1272  0.0890 -0.0675
  633DPPI    C310067   1.092   8.737  11.940 -0.0742  0.0603 -0.0483
  633DPPI   PO410068   0.876   8.580  11.380 -0.2439 -0.0200  0.0885
  633DPPI   GL110069   1.094   8.431  11.025 -0.0728  0.0426 -0.3185
  633DPPI   GL210070   1.177   8.157  10.901  0.2001  0.1002  0.1262
  633DPPI   C1A10071   0.776   8.515  10.708 -0.3246  0.0125  0.3145
  633DPPI   C2A10072   0.722   8.497  10.230  0.0597 -0.0395  0.0935
  633DPPI   C3A10073   0.771   8.510   9.795 -0.0251  0.0083 -0.2048
  633DPPI   C4A10074   0.713   8.568   9.305  0.2296  0.1163 -0.2273
  633DPPI   C1B10075   1.217   8.302  10.501 -0.1202  0.1254  0.0550
  633DPPI   C2B10076   1.194   8.300  10.093 -0.2706 -0.1171 -0.2873
  633DPPI   C3B10077   1.213   8.307   9.637 -0.1244 -0.0251  0.0701
  633DPPI   C4B10078   1.211   8.367   9.258  0.0086  0.1049  0.2298
  634DPPI    C110079   9.264  13.800  11.391 -0.0079  0.0423 -0.2125
  634DPPI    C210080   9.392  14.122  11.591 -0.1920 -0.0320  0.0299
  634DPPI    C310081   9.589  13.775  11.624  0.0223  0.0595 -0.2527
  634DPPI   PO410082   9.293  13.899  11.145 -0.1256  0.1158 -0.0868
  634DPPI   GL110083   9.486  13.830  10.747  0.0075  0.0335 -0.0694
  634DPPI   GL210084   9.516  14.163  10.771 -0.0653  0.1450 -0.4339
  634DPPI   C1A10085   9.299  13.651  10.365  0.0526  0.3565  0.1784
  634DPPI   C2A10086   9.294  13.643   9.912 -0.1384  0.4223 -0.0890
  634DPPI   C3A10087   9.331  13.269   9.690 -0.0475  0.0146 -0.0662
  634DPPI   C4A10088   9.491  13.200   9.315  0.2123 -0.1731 -0.0099
  634DPPI   C1B10089   9.557  14.127  10.315  0.2339 -0.2232 -0.0254
  634DPPI   C2B10090   9.511  14.108   9.859 -0.0407  0.3310  0.0868
  634DPPI   C3B10091   9.414  14.096   9.397  0.0745 -0.1486 -0.0893
  634DPPI   C4B10092   9.468  14.002   8.991 -0.2444 -0.3343 -0.2169
  635PYPI    C110093  12.020   8.663  11.088  0.1990 -0.0361 -0.0539
  635PYPI    C210094  12.314   8.502  10.870 -0.0424 -0.2371 -0.2369
  635PYPI    C310095  11.989   8.286  10.958 -0.0243 -0.1018  0.1818
  635PYPI   PO410096  11.957   8.844  10.918  0.1358  0.0135 -0.0268
  635PYPI   GL110097  11.917   9.033  10.580  0.1297 -0.3241  0.0025
  635PYPI   GL210098  12.250   8.880  10.525 -0.2424 -0.1356  0.0382
  635PYPI   C1A10099  12.059   9.058  10.157 -0.2057  0.0242 -0.0563
  635PYPI   C2A10100  12.054   8.970   9.758 -0.2921  0.0629 -0.3365
  635PYPI   D3A10101  11.951   8.848   9.340 -0.0926 -0.1273  0.1382
  635PYPI   C4A10102  11.829   9.058   8.978  0.0920  0.2215  0.2661
  635PYPI   C1B10103  12.459   8.734  10.122 -0.0624  0.0787  0.1081
  635PYPI   C2B10104  12.487   8.698   9.726  0.1765  0.0999 -0.3648
  635PYPI   C3B10105  12.452   8.726   9.282  0.0854  0.0398  0.0303
  635PYPI   C4B10106  12.242   8.750   8.929 -0.0159  0.0045 -0.1265
  636PYPI    C110107   7.218   6.730  11.422  0.0623 -0.1167  0.0406
  636PYPI    C210108   6.881   6.846  11.604  0.0113  0.0099 -0.1318
  636PYPI    C310109   7.236   6.973  11.739 -0.0307  0.1641 -0.1649
  636PYPI   PO410110   7.246   6.788  11.203 -0.0120 -0.2856  0.2455
  636PYPI   GL110111   7.086   6.773  10.769  0.0024  0.2245 -0.0871
  636PYPI   GL210112   7.250   6.926  10.628 -0.1339  0.0423 -0.0128
  636PYPI   C1A10113   7.169   6.455  10.367 -0.2243  0.1896 -0.0093
  636PYPI   C2A10114   7.095   6.359  10.065 -0.0087 -0.3027 -0.2183
  636PYPI   D3A10115   6.907   6.220   9.590 -0.1578 -0.0808  0.0073
  636PYPI   C4A10116   7.062   6.457   9.328 -0.1644  0.1822  0.0261
  636PYPI   C1B10117   7.290   6.883  10.221  0.0947  0.0670  0.0485
  636PYPI   C2B10118   7.168   6.798   9.875 -0.3451 -0.0740 -0.0730
  636PYPI   C3B10119   7.091   6.914   9.472  0.0414  0.0896  0.0546
  636PYPI   C4B10120   6.856   6.880   9.084  0.3577 -0.2374  0.0234
  637PYPI    C110121   1.873   0.383  11.470  0.2061 -0.1374  0.1334
  637PYPI    C210122   1.872   0.124  11.775  0.0746 -0.2868  0.0073
  637PYPI    C310123   1.538   0.324  11.681  0.0154 -0.5040 -0.2581
  637PYPI   PO410124   1.912   0.195  11.260  0.0616  0.1344  0.0278
  637PYPI   GL110125   2.146   0.120  10.853  0.0796 -0.0476 -0.2797
  637PYPI   GL210126   2.050  -0.077  10.845 -0.2493 -0.0361 -0.0420
  637PYPI   C1A10127   1.902   0.289  10.413  0.0228  0.2175 -0.2656
  637PYPI   C2A10128   1.804   0.276   9.990  0.1531 -0.3280  0.0625
  637PYPI   D3A10129   1.926   0.276   9.556  0.2651 -0.1452  0.4094
  637PYPI   C4A10130   1.828   0.274   9.090  0.0930 -0.0460  0.3283
  637PYPI   C1B10131   2.258  -0.262  10.518 -0.0332  0.0684  0.1149
  637PYPI   C2B10132   2.211  -0.178  10.110  0.0707  0.0060  0.3337
  637PYPI   C3B10133   2.159  -0.175   9.727 -0.3594 -0.0041 -0.1169
  637PYPI   C4B10134   2.265  -0.194   9.339 -0.1058 -0.2567  0.2901
  638PYPI    C110135  13.073  12.166  11.463 -0.1832  0.2566 -0.4375
  638PYPI    C210136  13.413  12.371  11.509  0.0964 -0.2717 -0.0163
  638PYPI    C310137  13.168  12.319  11.821 -0.1906 -0.2119 -0.2272
  638PYPI   PO410138  13.032  12.172  11.205 -0.1013  0.2930  0.0994
  638PYPI   GL110139  12.926  12.002  10.841 -0.3020  0.1195 -0.3281
  638PYPI   GL210140  12.673  12.223  10.734 -0.0782 -0.2904 -0.0360
  638PYPI   C1A10141  13.104  11.989  10.400 -0.1149  0.4303 -0.0042
  638PYPI   C2A10142  13.136  11.952   9.905 -0.2565 -0.0387 -0.0994
  638PYPI   D3A10143  13.038  12.101   9.506 -0.0680  0.1088  0.1492
  638PYPI   C4A10144  13.166  12.044   9.085  0.0641  0.0926 -0.1079
  638PYPI   C1B10145  12.598  12.163  10.180 -0.0559  0.0509  0.0865
  638PYPI   C2B10146  12.668  12.104   9.828 -0.1119  0.1477 -0.0257
  638PYPI   C3B10147  12.549  12.044   9.391 -0.1518 -0.2521 -0.0950
  638PYPI   C4B10148  12.601  12.101   8.927 -0.0235 -0.0805 -0.2363
  639PYPI    C110149   5.513  16.477  11.421  0.2351 -0.1305 -0.2549
  639PYPI    C210150   5.843  16.252  11.449  0.1712 -0.2034 -0.0718
  639PYPI    C310151   5.769  16.534  11.723  0.0855 -0.1814 -0.1171
  639PYPI   PO410152   5.355  16.526  11.198  0.0115 -0.0507 -0.0633
  639PYPI   GL110153   5.243  16.759  10.901  0.0715 -0.2772  0.1923
  639PYPI   GL210154   5.103  17.063  10.661 -0.1483  0.2346 -0.2690
  639PYPI   C1A10155   5.269  16.696  10.411 -0.2787  0.2285  0.0385
  639PYPI   C2A10156   5.311  16.693   9.979  0.1451 -0.0871  0.3757
  639PYPI   D3A10157   5.318  16.421   9.683  0.0782 -0.0642 -0.2224
  639PYPI   C4A10158   5.293  16.547   9.288 -0.1983  0.1752  0.1785
  639PYPI   C1B10159   4.991  17.006  10.183 -0.1859  0.0373  0.1260
  639PYPI   C2B10160   5.038  16.995   9.726  0.2952  0.2570  0.3118
  639PYPI   C3B10161   5.078  17.018   9.252 -0.1734 -0.1304 -0.0670
  639PYPI   C4B10162   4.968  16.893   8.874  0.2867 -0.0659 -0.1480
  640PYPI    C110163   9.701  14.530  11.639  0.3223  0.1753 -0.0926
  640PYPI    C210164  10.027  14.476  11.864  0.2826 -0.0740 -0.0929
  640PYPI    C310165   9.666  14.385  12.010  0.2402 -0.0688 -0.1935
  640PYPI   PO410166   9.755  14.447  11.413 -0.0405 -0.0620 -0.1076
  640PYPI   GL110167  10.004  14.649  11.015  0.3015  0.0817  0.1820
  640PYPI   GL210168   9.716  14.718  10.800  0.1272  0.0707 -0.2471
  640PYPI   C1A10169  10.183  14.479  10.633 -0.3010  0.2895 -0.2280
  640PYPI   C2A10170  10.193  14.508  10.134 -0.3947  0.0031 -0.1327
  640PYPI   D3A10171  10.286  14.458   9.678 -0.1486 -0.1067 -0.1537
  640PYPI   C4A10172  10.200  14.508   9.229 -0.1824 -0.1770 -0.0606
  640PYPI   C1B10173   9.729  14.577  10.386 -0.0930  0.1415  0.4131
  640PYPI   C2B10174   9.691  14.534   9.965  0.1434  0.0452 -0.2361
  640PYPI   C3B10175   9.815  14.485   9.638 -0.3448 -0.0229 -0.1583
  640PYPI   C4B10176   9.659  14.524   9.213  0.1046  0.1836 -0.1394
  641ERGO   ROH10177   1.168   5.650  10.724 -0.1764  0.1000 -0.2610
  641ERGO    R110178   1.224   5.734  10.460  0.1193 -0.0041 -0.2360
  641ERGO    R210179   1.445   5.645  10.319  0.0477 -0.4031 -0.1146
  641ERGO    R310180   1.258   5.577  10.134  0.0178 -0.0791 -0.2096
  641ERGO    R410181   1.497   5.640   9.977  0.1743 -0.3868 -0.0957
  641ERGO    R510182   1.298   5.725   9.950  0.3077 -0.0873 -0.1546
  641ERGO    C110183   1.351   5.573   9.604  0.2200 -0.0732 -0.1738
  641ERGO    C210184   1.294   5.536   9.168 -0.0335 -0.0169 -0.0894
  642ERGO   ROH10185   6.437  14.639  10.684 -0.0188 -0.0619  0.0085
  642ERGO    R110186   6.543  14.776  10.460 -0.1069  0.0887  0.0571
  642ERGO    R210187   6.658  14.645  10.246  0.1462  0.2432  0.0905
  642ERGO    R310188   6.478  14.790  10.103  0.0100  0.0222  0.0331
  642ERGO    R410189   6.635  14.649   9.901  0.0868  0.0320  0.0908
  642ERGO    R510190   6.599  14.863   9.910 -0.0791  0.0089 -0.0267
  642ERGO    C110191   6.453  14.787   9.566 -0.0757 -0.2984  0.0374
  642ERGO    C210192   6.362  14.818   9.280 -0.0094  0.1374  0.2393
  643ERGO   ROH10193   4.950  13.528  10.547  0.1089  0.1505 -0.0558
  643ERGO    R110194   4.821  13.467  10.303  0.0471  0.0862 -0.0092
  643ERGO    R210195   4.785  13.655  10.104 -0.0817  0.0608 -0.0197
  643ERGO    R310196   4.910  13.468   9.950 -0.0662  0.0868 -0.0359
  643ERGO    R410197   4.752  13.628   9.760 -0.1502  0.0187 -0.0090
  643ERGO    R510198   4.747  13.411   9.783 -0.0822  0.0253  0.0072
  643ERGO    C110199   4.850  13.437   9.416 -0.1754  0.0185 -0.0181
  643ERGO    C210200   4.702  13.449   9.097  0.1759  0.0132 -0.0833
  644ERGO   ROH10201   4.047   5.342  10.939 -0.0508 -0.0117 -0.0048
  644ERGO    R110202   4.187   5.332  10.694 -0.0191  0.1732  0.0028
  644ERGO    R210203   4.146   5.134  10.506  0.2553  0.1068 -0.0058
  644ERGO    R310204   4.103   5.345  10.340 -0.0207  0.0577  0.0017
  644ERGO    R410205   4.167   5.122  10.161  0.1603  0.1414 -0.0118
  644ERGO    R510206   4.263   5.317  10.165 -0.0515  0.2376 -0.0460
  644ERGO    C110207   4.138   5.314   9.805 -0.1540  0.1154 -0.0082
  644ERGO    C210208   4.103   5.374   9.402  0.1494 -0.1395  0.2000
  645ERGO   ROH10209  12.903  13.348  10.745  0.0279  0.0685  0.1003
  645ERGO    R110210  13.086  13.324  10.531 -0.0729  0.3280 -0.0188
  645ERGO    R210211  13.104  13.096  10.375  0.2486  0.2906  0.0680
  645ERGO    R310212  13.067  13.271  10.171 -0.2315  0.1413  0.0149
  645ERGO    R410213  13.069  13.007  10.043  0.3210  0.0853  0.1140
  645ERGO    R510214  13.193  13.178   9.989 -0.0829  0.3576  0.0027
  645ERGO    C110215  13.014  13.119   9.658 -0.0875 -0.1745  0.0909
  645ERGO    C210216  12.889  13.006   9.316  0.0820  0.3426  0.0813
  646ERGO   ROH10217  17.111  15.019  10.629  0.1967 -0.0921 -0.1344
  646ERGO    R110218  17.243  15.105  10.393  0.0750  0.0187 -0.1626
  646ERGO    R210219  17.281  14.939  10.176  0.0867  0.0797 -0.2047
  646ERGO    R310220  17.157  15.140  10.041 -0.0594  0.0423 -0.1292
  646ERGO    R410221  17.181  14.923   9.845  0.0225  0.0967 -0.1864
  646ERGO    R510222  17.249  15.128   9.820 -0.0998  0.1448 -0.1538
  646ERGO    C110223  17.007  15.102   9.526 -0.1522  0.0715 -0.1051
  646ERGO    C210224  16.968  15.162   9.200 -0.0980  0.2248 -0.1576
  647ERGO   ROH10225   7.630   1.612  11.361  0.1908  0.0317 -0.0721
  647ERGO    R110226   7.538   1.715  11.114  0.2197  0.1224 -0.0460
  647ERGO    R210227   7.703   1.852  10.938  0.3368 -0.1364 -0.1470
  647ERGO    R310228   7.615   1.666  10.761 -0.0115 -0.0480 -0.0738
  647ERGO    R410229   7.782   1.846  10.602  0.2472 -0.3658 -0.1649
  647ERGO    R510230   7.576   1.788  10.560  0.1405 -0.0429 -0.0987
  647ERGO    C110231   7.745   1.667  10.240 -0.1320 -0.4165 -0.1067
  647ERGO    C210232   7.835   1.730   9.908 -0.0587 -0.0140  0.0326
  648ERGO   ROH10233   7.979  16.680  10.711 -0.0932 -0.0622 -0.0353
  648ERGO    R110234   7.834  16.653  10.469 -0.1028  0.0824 -0.0471
  648ERGO    R210235   7.816  16.856  10.283  0.0836  0.1148 -0.0337
  648ERGO    R310236   7.907  16.664  10.113 -0.0696  0.0476 -0.0412
  648ERGO    R410237   7.848  16.894   9.941  0.2159  0.1418 -0.0181
  648ERGO    R510238   7.774  16.691   9.916  0.0099  0.2216 -0.0731
  648ERGO    C110239   7.953  16.737   9.583  0.1492  0.0943 -0.0160
  648ERGO    C210240   7.940  16.702   9.246 -0.0113  0.2382 -0.0825
  649ERGO   ROH10241  17.127  14.077  10.834  0.1573 -0.2468 -0.0028
  649ERGO    R110242  17.026  13.997  10.582  0.1347 -0.1513 -0.0250
  649ERGO    R210243  16.818  14.129  10.455  0.1180 -0.1055  0.0447
  649ERGO    R310244  16.995  14.144  10.251  0.1004 -0.0221  0.0360
  649ERGO    R410245  16.737  14.106  10.120  0.1042 -0.0308  0.0431
  649ERGO    R510246  16.916  13.987  10.090  0.1195  0.0091 -0.0005
  649ERGO    C110247  16.857  14.107   9.733  0.0797  0.0910  0.0340
  649ERGO    C210248  16.701  14.177   9.448 -0.1790  0.0816 -0.2232
  650ERGO   ROH10249  15.595   4.958  10.642  0.0249  0.1176 -0.0357
  650ERGO    R110250  15.530   4.952  10.367  0.0027  0.0727 -0.0289
  650ERGO    R210251  15.498   5.182  10.217  0.0441  0.0448 -0.0738
  650ERGO    R310252  15.683   5.064  10.057  0.0032 -0.0305 -0.0675
  650ERGO    R410253  15.523   5.232   9.876  0.1724  0.1667 -0.0481
  650ERGO    R510254  15.565   5.019   9.853  0.0205  0.1395 -0.1208
  650ERGO    C110255  15.712   5.150   9.527  0.2089  0.1671 -0.0272
  650ERGO    C210256  15.802   5.185   9.100  0.3186  0.0134  0.0501
  651ERGO   ROH10257   9.131  12.466  10.887  0.1712 -0.2278 -0.0780
  651ERGO    R110258   8.985  12.466  10.644  0.1311 -0.0811 -0.0549
  651ERGO    R210259   9.042  12.637  10.435  0.1312  0.0088  0.0176
  651ERGO    R310260   9.056  12.406  10.292  0.0614  0.0739 -0.0959
  651ERGO    R410261   9.054  12.619  10.090 -0.1207  0.1609 -0.0012
  651ERGO    R510262   8.920  12.448  10.100 -0.0871  0.1374  0.0222
  651ERGO    C110263   9.073  12.392   9.755 -0.3329  0.3107 -0.1187
  651ERGO    C210264   8.989  12.449   9.341 -0.1479  0.1667 -0.0529
  652ERGO   ROH10265   9.342   1.124  10.907 -0.0165 -0.0727 -0.0065
  652ERGO    R110266   9.392   0.979  10.669  0.0807 -0.0190 -0.0196
  652ERGO    R210267   9.190   0.902  10.497  0.1326 -0.1309 -0.0328
  652ERGO    R310268   9.341   1.032  10.312  0.0552 -0.0163 -0.0154
  652ERGO    R410269   9.158   0.868  10.154  0.0882 -0.0295 -0.0386
  652ERGO    R510270   9.375   0.872  10.138  0.0838  0.0534 -0.0736
  652ERGO    C110271   9.281   0.972   9.782 -0.0102  0.1372 -0.0256
  652ERGO    C210272   9.364   0.902   9.408 -0.1645  0.0940  0.4333
  653ERGO   ROH10273   5.168   9.199  10.722 -0.1169 -0.1780  0.1853
  653ERGO    R110274   5.072   9.046  10.503 -0.2363 -0.0995  0.1810
  653ERGO    R210275   4.821   9.085  10.393 -0.1495  0.2102  0.0751
  653ERGO    R310276   4.963   9.112  10.162 -0.0194 -0.0228  0.1256
  653ERGO    R410277   4.686   9.074  10.075 -0.0738  0.5307  0.0290
  653ERGO    R510278   4.860   8.959  10.010 -0.2718  0.2021  0.0659
  653ERGO    C110279   4.741   9.093   9.674  0.0925  0.4987  0.0495
  653ERGO    C210280   4.627   9.118   9.333 -0.3502  0.3992 -0.2418
  654ERGO   ROH10281   5.726  14.088  10.352 -0.0486 -0.0424 -0.0223
  654ERGO    R110282   5.633  14.119  10.087  0.1105  0.0329 -0.0695
  654ERGO    R210283   5.753  14.289   9.906  0.4053 -0.1435 -0.0384
  654ERGO    R310284   5.766  14.065   9.752  0.1982 -0.1828 -0.0031
  654ERGO    R410285   5.685  14.277   9.567  0.2706 -0.1526 -0.0124
  654ERGO    R510286   5.584  14.087   9.599  0.1512 -0.0834  0.0603
  654ERGO    C110287   5.657  14.059   9.226 -0.0023 -0.1947  0.0360
  654ERGO    C210288   5.802  14.241   8.851  0.2959  0.1467  0.1043
  655ERGO   ROH10289   7.564  13.003  10.490 -0.2655 -0.0284  0.0857
  655ERGO    R110290   7.541  13.166  10.260 -0.0374  0.0204  0.0943
  655ERGO    R210291   7.748  13.200  10.080  0.0274 -0.2279  0.1159
  655ERGO    R310292   7.561  13.119   9.900 -0.0614  0.0186  0.0934
  655ERGO    R410293   7.766  13.253   9.739  0.1812 -0.3247  0.1085
  655ERGO    R510294   7.552  13.296   9.739  0.2432  0.0021  0.0540
  655ERGO    C110295   7.601  13.207   9.371  0.1875 -0.1496  0.0830
  655ERGO    C210296   7.490  13.308   8.932  0.2816 -0.0033  0.0841
  656ERGO   ROH10297   6.317   2.140  10.895  0.0372  0.0429 -0.0742
  656ERGO    R110298   6.457   2.195  10.654  0.0348 -0.0737 -0.1013
  656ERGO    R210299   6.593   2.001  10.513 -0.1340 -0.1786 -0.1085
  656ERGO    R310300   6.438   2.087  10.308 -0.1016 -0.0809 -0.0947
  656ERGO    R410301   6.680   1.984  10.179 -0.1628 -0.2402 -0.1142
  656ERGO    R510302   6.592   2.181  10.151 -0.0454 -0.1769 -0.1073
  656ERGO    C110303   6.584   2.055   9.791 -0.1492 -0.1842 -0.1045
  656ERGO    C210304   6.557   2.114   9.480 -0.1231  0.1788 -0.1994
  657ERGO   ROH10305   2.581  16.994  10.595  0.1713 -0.0386  0.0227
  657ERGO    R110306   2.535  16.919  10.326  0.1372 -0.1103  0.0480
  657ERGO    R210307   2.369  17.062  10.158  0.1021 -0.1648  0.0359
  657ERGO    R310308   2.589  17.067   9.998  0.0785 -0.1894  0.0025
  657ERGO    R410309   2.362  17.047   9.813  0.0639 -0.4516  0.0471
  657ERGO    R510310   2.536  16.916   9.820  0.1285 -0.3618  0.1327
  657ERGO    C110311   2.563  17.043   9.461  0.0194 -0.6416  0.0223
  657ERGO    C210312   2.530  17.028   9.217 -0.3112 -0.1453  0.5080
  658ERGO   ROH10313   3.574   4.163  10.924 -0.0437  0.2844  0.0177
  658ERGO    R110314   3.631   4.317  10.694  0.0209  0.1973 -0.0243
  658ERGO    R210315   3.765   4.213  10.475 -0.0261  0.0806  0.0051
  658ERGO    R310316   3.547   4.303  10.340  0.0131  0.1390 -0.0211
  658ERGO    R410317   3.719   4.186  10.134 -0.1097 -0.1540  0.0326
  658ERGO    R510318   3.635   4.387  10.134  0.0397 -0.0865 -0.1067
  658ERGO    C110319   3.488   4.255   9.808 -0.1216 -0.2357  0.0239
  658ERGO    C210320   3.589   4.305   9.506 -0.2584  0.1840 -0.0820
  659ERGO   ROH10321  16.480   9.684  10.659 -0.1561 -0.1222  0.0797
  659ERGO    R110322  16.385   9.798  10.418 -0.1454 -0.0508  0.1089
  659ERGO    R210323  16.555   9.893  10.223 -0.1359  0.0954  0.1841
  659ERGO    R310324  16.412   9.726  10.062 -0.0425  0.1120  0.0834
  659ERGO    R410325  16.527   9.926   9.880 -0.0647  0.2151  0.1895
  659ERGO    R510326  16.316   9.871   9.897 -0.0487  0.1414  0.1157
  659ERGO    C110327  16.378   9.789   9.529  0.0642  0.3002  0.0981
  659ERGO    C210328  16.389   9.917   9.264  0.1227  0.0771  0.0086
  660ERGO   ROH10329  15.003   8.725  10.779 -0.0327  0.1060 -0.0142
  660ERGO    R110330  14.889   8.606  10.548 -0.0494  0.0731  0.0102
  660ERGO    R210331  14.722   8.744  10.377  0.0223  0.0808 -0.0569
  660ERGO    R310332  14.901   8.662  10.189  0.0161 -0.0474 -0.0068
  660ERGO    R410333  14.651   8.702  10.041  0.0354 -0.0596 -0.0422
  660ERGO    R510334  14.773   8.522  10.042 -0.0056 -0.0866  0.0500
  660ERGO    C110335  14.778   8.601   9.669  0.0372 -0.2616  0.0134
  660ERGO    C210336  14.786   8.649   9.341 -0.3757 -0.0628 -0.1579
  661ERGO   ROH10337   6.661  15.934  10.776  0.0603  0.1093  0.1714
  661ERGO    R110338   6.826  15.936  10.546 -0.0168  0.0731  0.1163
  661ERGO    R210339   6.882  15.708  10.400 -0.0890  0.0593  0.1188
  661ERGO    R310340   6.789  15.857  10.193 -0.1391  0.0481  0.1337
  661ERGO    R410341   6.963  15.658  10.068 -0.2709 -0.0484  0.0885
  661ERGO    R510342   6.975  15.874  10.043 -0.2038 -0.0549  0.0363
  661ERGO    C110343   6.923  15.768   9.680 -0.4238 -0.1217  0.0850
  661ERGO    C210344   6.859  15.819   9.248 -0.0790 -0.0687 -0.2630
  662ERGO   ROH10345  14.106   6.367  10.904  0.1307 -0.0875  0.0541
  662ERGO    R110346  13.976   6.412  10.657  0.1092  0.0128  0.0828
  662ERGO    R210347  14.072   6.591  10.469  0.1978 -0.0479  0.0654
  662ERGO    R310348  14.058   6.375  10.304  0.0091 -0.0365  0.0654
  662ERGO    R410349  14.075   6.605  10.124  0.2891 -0.0611  0.0659
  662ERGO    R510350  13.923   6.449  10.120  0.1278  0.0983  0.0344
  662ERGO    C110351  14.064   6.411   9.768  0.1653 -0.0580  0.0662
  662ERGO    C210352  14.008   6.338   9.415 -0.3660 -0.0076 -0.0015
  663ERGO   ROH10353   3.196   4.353  10.671  0.1031  0.0770 -0.0323
  663ERGO    R110354   3.076   4.248  10.438 -0.0675  0.2203 -0.0116
  663ERGO    R210355   2.964   4.409  10.242  0.1334  0.3608 -0.0151
  663ERGO    R310356   3.131   4.270  10.079 -0.0698  0.1121 -0.0187
  663ERGO    R410357   2.924   4.376   9.900  0.0437  0.3612 -0.0047
  663ERGO    R510358   2.986   4.168   9.918 -0.2290  0.2784  0.0168
  663ERGO    C110359   3.058   4.227   9.548 -0.1993  0.1280 -0.0020
  663ERGO    C210360   3.092   4.301   9.240 -0.0991  0.0607 -0.0646
  664ERGO   ROH10361   2.315  15.076  10.800 -0.2276 -0.1075  0.0266
  664ERGO    R110362   2.408  15.060  10.533 -0.1856 -0.2488  0.0495
  664ERGO    R210363   2.253  14.959  10.327 -0.2675 -0.0749  0.0257
  664ERGO    R310364   2.311  15.197  10.210  0.0597 -0.1542  0.0136
  664ERGO    R410365   2.345  14.999   9.996 -0.2399 -0.2127  0.0152
  664ERGO    R510366   2.491  15.148  10.060 -0.0202 -0.4143 -0.0027
  664ERGO    C110367   2.452  15.247   9.694  0.0832 -0.3674 -0.0021
  664ERGO    C210368   2.637  15.264   9.324 -0.0540 -0.3448 -0.1733
  665ERGO   ROH10369  10.378   7.205  10.505 -0.0227 -0.0157  0.0473
  665ERGO    R110370  10.491   7.233  10.247  0.1619  0.0286  0.1300
  665ERGO    R210371  10.338   7.234  10.017  0.3544 -0.3507 -0.0146
  665ERGO    R310372  10.466   7.470   9.972  0.0078 -0.1571 -0.0165
  665ERGO    R410373  10.480   7.328   9.716  0.1728 -0.1076 -0.0271
  665ERGO    R510374  10.647   7.412   9.827  0.0689  0.1246 -0.0513
  665ERGO    C110375  10.683   7.603   9.499 -0.2582  0.2158 -0.0361
  665ERGO    C210376  10.681   7.583   9.266 -0.0277 -0.0581  0.1572
  666ERGO   ROH10377  15.795   5.977  10.685  0.2210 -0.1828 -0.0349
  666ERGO    R110378  15.947   6.091  10.475  0.2297 -0.2201 -0.0489
  666ERGO    R210379  16.068   5.939  10.279  0.0154 -0.2394 -0.1679
  666ERGO    R310380  15.929   6.102  10.111  0.0827 -0.0452 -0.0382
  666ERGO    R410381  16.091   5.934   9.934 -0.0927 -0.0729 -0.1791
  666ERGO    R510382  16.084   6.152   9.935  0.0679 -0.0648 -0.0582
  666ERGO    C110383  15.975   6.084   9.576 -0.0923  0.2064 -0.0638
  666ERGO    C210384  15.957   6.156   9.152 -0.4522  0.1644 -0.3333
  667ERGO   ROH10385  10.920  12.662  10.833 -0.1191  0.0801  0.0175
  667ERGO    R110386  10.781  12.655  10.587 -0.1551 -0.0159  0.0398
  667ERGO    R210387  10.855  12.810  10.370 -0.2545 -0.0152  0.0039
  667ERGO    R310388  10.859  12.571  10.241 -0.1716 -0.0340  0.0411
  667ERGO    R410389  10.819  12.770  10.029 -0.1173 -0.0780 -0.0034
  667ERGO    R510390  10.695  12.594  10.068 -0.1063 -0.0869 -0.0252
  667ERGO    C110391  10.803  12.522   9.709  0.0404 -0.1323  0.0272
  667ERGO    C210392  10.789  12.453   9.459  0.2072 -0.1700 -0.1143
  668ERGO   ROH10393  14.026   5.387  10.710 -0.0000 -0.1628 -0.0561
  668ERGO    R110394  14.166   5.361  10.466  0.0286  0.1044 -0.0704
  668ERGO    R210395  14.096   5.176  10.273  0.2489  0.0956 -0.1404
  668ERGO    R310396  14.089   5.395  10.112 -0.0179  0.1524 -0.0568
  668ERGO    R410397  14.081   5.167   9.927  0.2416  0.2026 -0.1435
  668ERGO    R510398  14.221   5.334   9.922  0.0491  0.3757 -0.0884
  668ERGO    C110399  14.066   5.367   9.575 -0.0130  0.3182 -0.0669
  668ERGO    C210400  13.855   5.290   9.346  0.0503  0.0641 -0.4658
  669ERGO   ROH10401   1.816   4.993  10.911  0.0362  0.1405 -0.0485
  669ERGO    R110402   1.930   4.846  10.698  0.0104  0.1127 -0.0436
  669ERGO    R210403   1.777   4.726  10.501 -0.0129  0.1070 -0.0247
  669ERGO    R310404   1.937   4.869  10.335 -0.0125  0.0814 -0.0456
  669ERGO    R410405   1.775   4.705  10.156  0.0651 -0.0214 -0.0177
  669ERGO    R510406   1.992   4.717  10.158  0.0598  0.0298  0.0224
  669ERGO    C110407   1.924   4.827   9.799  0.1109 -0.1201 -0.0331
  669ERGO    C210408   1.777   4.844   9.565 -0.0099  0.1202  0.0750
  670ERGO   ROH10409  16.574   3.325  11.102  0.2027 -0.1865  0.0933
  670ERGO    R110410  16.746   3.290  10.880  0.1586 -0.1179  0.0484
  670ERGO    R210411  16.685   3.121  10.670  0.1092 -0.0369  0.0010
  670ERGO    R310412  16.728   3.344  10.520  0.0972  0.0120  0.0694
  670ERGO    R410413  16.676   3.131  10.325  0.1805  0.0443  0.0010
  670ERGO    R510414  16.849   3.264  10.329  0.1565  0.0807  0.0738
  670ERGO    C110415  16.711   3.347   9.983  0.2108  0.1375  0.0651
  670ERGO    C210416  16.652   3.252   9.606 -0.2551  0.1779 -0.0762
  671ERGO   ROH10417   4.919  16.419  10.668  0.1890 -0.0709 -0.0069
  671ERGO    R110418   4.811  16.377  10.409 -0.0035  0.0916  0.0436
  671ERGO    R210419   4.713  16.583  10.253  0.2236  0.2437  0.0952
  671ERGO    R310420   4.888  16.482  10.070 -0.0096 -0.0163  0.0084
  671ERGO    R410421   4.694  16.635   9.911  0.0526  0.1490  0.0896
  671ERGO    R510422   4.751  16.427   9.881 -0.2014  0.0720  0.1187
  671ERGO    C110423   4.847  16.571   9.541 -0.2660 -0.1501  0.0049
  671ERGO    C210424   4.840  16.509   9.168 -0.1200 -0.0625 -0.0318
  672ERGO   ROH10425   4.847   5.963  10.717 -0.1082 -0.0328  0.0790
  672ERGO    R110426   4.973   5.960  10.464  0.0161  0.1461  0.1373
  672ERGO    R210427   4.940   5.753  10.283  0.3614  0.1155  0.1038
  672ERGO    R310428   4.867   5.955  10.116  0.1848  0.0385  0.0859
  672ERGO    R410429   4.955   5.739   9.938  0.5185  0.1450  0.1083
  672ERGO    R510430   5.026   5.945   9.937  0.2731  0.2361  0.1487
  672ERGO    C110431   4.894   5.920   9.580  0.4441  0.0898  0.0942
  672ERGO    C210432   4.870   5.994   9.227 -0.0036  0.2287  0.0903
  673ERGO   ROH10433  13.439   4.438  10.800 -0.1021 -0.2229  0.0480
  673ERGO    R110434  13.584   4.360  10.569 -0.0814 -0.1742  0.0461
  673ERGO    R210435  13.498   4.160  10.400 -0.1692  0.0016 -0.1115
  673ERGO    R310436  13.525   4.353  10.210  0.0348  0.1046  0.0167
  673ERGO    R410437  13.571   4.101  10.067 -0.2074  0.1381 -0.1458
  673ERGO    R510438  13.703   4.274  10.071 -0.0290  0.0116 -0.0215
  673ERGO    C110439  13.639   4.247   9.696 -0.0380  0.3143 -0.0455
  673ERGO    C210440  13.569   4.135   9.420 -0.1436  0.0075 -0.1531
  674loPI    C110441   8.655   9.959   5.607 -0.0080  0.1625  0.3423
  674loPI    C210442   8.490  10.244   5.380 -0.0310 -0.1330 -0.0221
  674loPI    C310443   8.295   9.900   5.443  0.1067 -0.1723  0.2014
  674loPI   PO410444   8.670  10.092   5.837 -0.0904 -0.2329  0.1687
  674loPI   GL110445   8.959  10.247   6.097  0.4203  0.0447  0.0914
  674loPI   GL210446   9.152  10.443   6.273 -0.0871 -0.0348 -0.1097
  674loPI   C1A10447   9.029  10.053   6.594  0.1386  0.1921  0.2290
  674loPI   C2A10448   8.850   9.955   7.091  0.0640 -0.1386 -0.1867
  674loPI   C3A10449   8.824  10.087   7.559  0.0402  0.0687 -0.0231
  674loPI   C4A10450   8.953  10.122   7.928  0.0372  0.0896 -0.1087
  674loPI   C5A10451   8.802  10.344   8.266  0.0657 -0.0183 -0.2313
  674loPI   C6A10452   8.623  10.591   8.619  0.0636  0.0777 -0.0723
  674loPI   C1B10453   9.001  10.552   6.749 -0.1298  0.1774  0.0533
  674loPI   C2B10454   8.943  10.533   7.157 -0.2910 -0.0178  0.0197
  674loPI   C3B10455   9.077  10.695   7.634  0.3810 -0.3369 -0.2532
  674loPI   C4B10456   8.967  10.683   8.019  0.0036  0.2793 -0.0344
  675loPI    C110457   9.110  15.417   5.626 -0.2194  0.2268  0.2083
  675loPI    C210458   8.719  15.463   5.555 -0.1675  0.0604 -0.2148
  675loPI    C310459   8.935  15.212   5.331  0.1826  0.1439  0.0206
  675loPI   PO410460   9.140  15.400   5.814  0.0589 -0.1279  0.1706
  675loPI   GL110461   8.989  15.411   6.155  0.0447  0.1205 -0.1455
  675loPI   GL210462   8.745  15.717   6.050 -0.0475 -0.1423  0.0360
  675loPI   C1A10463   8.795  15.364   6.652 -0.0485 -0.0203 -0.1648
  675loPI   C2A10464   9.008  15.350   7.029 -0.1679  0.0327  0.0490
  675loPI   C3A10465   8.953  15.268   7.437  0.1933  0.1514 -0.1329
  675loPI   C4A10466   8.973  15.231   7.890 -0.0171 -0.2411  0.5003
  675loPI   C5A10467   8.920  15.204   8.283 -0.1147 -0.0715 -0.3301
  675loPI   C6A10468   8.963  14.934   8.735 -0.0784 -0.0995  0.0317
  675loPI   C1B10469   8.944  15.839   6.494 -0.1432 -0.1085  0.1121
  675loPI   C2B10470   8.897  15.920   7.009 -0.1813 -0.1003  0.1815
  675loPI   C3B10471   9.076  15.805   7.372  0.3449  0.0008 -0.0218
  675loPI   C4B10472   9.046  15.861   7.835 -0.0936  0.1747 -0.1102
  676loPI    C110473   2.634   5.500   5.737  0.0526 -0.1497 -0.1300
  676loPI    C210474   2.905   5.793   5.711  0.0891 -0.1746 -0.0366
  676loPI    C310475   2.876   5.521   5.419  0.1756 -0.1811 -0.0395
  676loPI   PO410476   2.669   5.392   6.012 -0.0050 -0.2127  0.2238
  676loPI   GL110477   2.521   5.384   6.379 -0.0133 -0.0770  0.2390
  676loPI   GL210478   2.377   5.012   6.496  0.0739  0.1705  0.2052
  676loPI   C1A10479   2.487   5.532   6.711  0.2006  0.2457  0.2060
  676loPI   C2A10480   2.438   5.458   7.155 -0.3189 -0.0940  0.1547
  676loPI   C3A10481   2.532   5.422   7.537  0.3487  0.1553  0.0836
  676loPI   C4A10482   2.544   5.449   7.937  0.1703  0.3470 -0.2507
  676loPI   C5A10483   2.732   5.389   8.396 -0.0762 -0.1843  0.0669
  676loPI   C6A10484   2.419   5.331   8.714 -0.1417  0.4684 -0.1525
  676loPI   C1B10485   2.417   4.993   6.904 -0.0059  0.1823 -0.0933
  676loPI   C2B10486   2.404   4.940   7.378  0.1056  0.2193 -0.1492
  676loPI   C3B10487   2.463   4.864   7.812  0.0942 -0.1196  0.2358
  676loPI   C4B10488   2.444   5.027   8.282  0.0888  0.0124  0.0040
  677loPI    C110489   9.838   0.800   5.744 -0.0570  0.0225 -0.1280
  677loPI    C210490   9.439   0.787   5.762 -0.0483  0.0352  0.0987
  677loPI    C310491   9.631   0.610   5.460 -0.2237  0.0044  0.0038
  677loPI   PO410492   9.915   0.782   5.961 -0.1993 -0.1662 -0.1236
  677loPI   GL110493   9.720   0.521   6.265 -0.2112 -0.0295  0.4142
  677loPI   GL210494   9.479   0.740   6.249  0.0742  0.0567 -0.1025
  677loPI   C1A10495   9.727   0.483   6.597  0.1183 -0.0959 -0.1845
  677loPI   C2A10496   9.817   0.493   7.083  0.2363 -0.3010  0.1377
  677loPI   C3A10497   9.901   0.500   7.455 -0.2462  0.4064 -0.1861
  677loPI   C4A10498   9.858   0.394   7.953  0.0218  0.1704  0.1344
  677loPI   C5A10499   9.544   0.180   8.321  0.0663 -0.1436  0.1268
  677loPI   C6A10500   9.492   0.077   8.661  0.1155  0.3498 -0.1480
  677loPI   C1B10501   9.334   0.838   6.654 -0.1596 -0.3330 -0.0584
  677loPI   C2B10502   9.314   0.787   6.994 -0.2033  0.0497  0.4343
  677loPI   C3B10503   9.494   0.820   7.381 -0.1864 -0.0674 -0.2454
  677loPI   C4B10504   9.472   0.767   7.796  0.1896  0.3178  0.2602
  678loPI    C110505  14.944  13.789   5.717  0.0405 -0.0137  0.0497
  678loPI    C210506  15.039  14.116   5.506 -0.1781 -0.0948 -0.1796
  678loPI    C310507  15.311  13.828   5.562  0.0005  0.1020 -0.0175
  678loPI   PO410508  14.871  13.921   5.957 -0.2630 -0.2478  0.0360
  678loPI   GL110509  15.117  13.920   6.370  0.0267 -0.2606 -0.1329
  678loPI   GL210510  15.373  14.109   6.417  0.0991  0.2000  0.0491
  678loPI   C1A10511  15.324  13.759   6.793 -0.0973 -0.1701 -0.1788
  678loPI   C2A10512  15.254  13.676   7.232  0.0184  0.2866  0.2411
  678loPI   C3A10513  15.322  13.731   7.730 -0.0125 -0.2772 -0.0380
  678loPI   C4A10514  15.369  13.618   8.154 -0.1645 -0.0857 -0.1345
  678loPI   C5A10515  15.620  13.857   8.412 -0.1153 -0.0645 -0.0230
  678loPI   C6A10516  16.005  13.916   8.555 -0.2166  0.0634 -0.1175
  678loPI   C1B10517  15.681  14.093   6.640  0.1747  0.0478  0.0310
  678loPI   C2B10518  15.784  13.896   7.100  0.1077 -0.1472 -0.0548
  678loPI   C3B10519  15.798  14.001   7.547 -0.0421 -0.0864 -0.0729
  678loPI   C4B10520  15.848  13.863   7.956 -0.2988 -0.0258 -0.1610
  679loPI    C110521   4.460   3.118   5.657 -0.1700  0.1071  0.0847
  679loPI    C210522   4.500   3.404   5.380 -0.1142  0.1055  0.0909
  679loPI    C310523   4.317   3.060   5.289 -0.0806  0.0982  0.0511
  679loPI   PO410524   4.366   3.240   5.948 -0.0590 -0.1708  0.0119
  679loPI   GL110525   4.133   3.255   6.404 -0.3808  0.0005 -0.0552
  679loPI   GL210526   4.307   2.956   6.522  0.2423 -0.3804 -0.1139
  679loPI   C1A10527   3.942   3.240   6.778 -0.2232 -0.0615 -0.2150
  679loPI   C2A10528   3.971   3.154   7.227  0.1997  0.3210 -0.0154
  679loPI   C3A10529   3.946   2.969   7.669  0.2380  0.1153 -0.0354
  679loPI   C4A10530   3.963   3.017   8.111  0.1667  0.0753  0.4325
  679loPI   C5A10531   3.924   2.796   8.525 -0.0787 -0.0902 -0.2305
  679loPI   C6A10532   3.593   2.760   8.886  0.2132  0.1399  0.3669
  679loPI   C1B10533   4.350   2.937   6.863  0.5597 -0.4290 -0.1723
  679loPI   C2B10534   4.391   2.844   7.247  0.1439  0.2343 -0.1490
  679loPI   C3B10535   4.373   2.729   7.675  0.0379  0.0848 -0.0159
  679loPI   C4B10536   4.218   2.629   8.157 -0.2713 -0.3703 -0.1631
  680loPI    C110537   2.770  14.178   5.435 -0.1338  0.0299 -0.0301
  680loPI    C210538   2.865  14.036   5.073 -0.2986  0.1033 -0.1031
  680loPI    C310539   2.762  14.420   5.117  0.0981  0.1934  0.0855
  680loPI   PO410540   2.870  14.180   5.575 -0.0891  0.1417 -0.1964
  680loPI   GL110541   2.863  13.958   5.934  0.1873 -0.2370 -0.0762
  680loPI   GL210542   2.750  14.171   6.047  0.1340 -0.2000 -0.0823
  680loPI   C1A10543   3.004  13.890   6.356  0.1154  0.0741 -0.0168
  680loPI   C2A10544   3.103  13.880   6.695 -0.0774  0.3073 -0.1937
  680loPI   C3A10545   3.030  13.823   7.140  0.2366  0.3123 -0.1645
  680loPI   C4A10546   3.008  13.784   7.526  0.3529  0.1574  0.4889
  680loPI   C5A10547   3.028  13.651   7.931  0.0321  0.0302 -0.1452
  680loPI   C6A10548   3.146  13.395   8.271  0.0873 -0.0625 -0.1802
  680loPI   C1B10549   2.566  14.112   6.494 -0.0760 -0.0985 -0.1343
  680loPI   C2B10550   2.639  14.242   6.912 -0.1046  0.2212  0.5246
  680loPI   C3B10551   2.678  14.209   7.297  0.0457 -0.1631  0.1701
  680loPI   C4B10552   2.695  14.116   7.749 -0.3056 -0.0714  0.1955
  681loPI    C110553  16.524   9.097   5.536 -0.3154  0.3334 -0.0781
  681loPI    C210554  16.805   9.257   5.771 -0.0442 -0.0544 -0.1284
  681loPI    C310555  16.746   9.402   5.403  0.1229  0.0000 -0.1347
  681loPI   PO410556  16.322   9.080   5.736  0.1061 -0.0133 -0.1331
  681loPI   GL110557  16.250   8.962   6.155 -0.4815 -0.2566  0.1421
  681loPI   GL210558  15.980   8.908   6.232 -0.1323  0.1876 -0.2912
  681loPI   C1A10559  16.669   8.967   6.481 -0.0254  0.1232  0.2297
  681loPI   C2A10560  16.647   8.986   6.846  0.3963 -0.2325  0.0300
  681loPI   C3A10561  16.623   8.933   7.364 -0.0158 -0.3295 -0.0375
  681loPI   C4A10562  16.568   8.964   7.756 -0.0593  0.0504  0.1059
  681loPI   C5A10563  16.626   9.042   8.234 -0.1800  0.0158  0.1172
  681loPI   C6A10564  16.895   8.989   8.560  0.0333 -0.0066  0.1578
  681loPI   C1B10565  16.131   8.968   6.610 -0.0443  0.0932  0.1466
  681loPI   C2B10566  16.208   8.875   7.023  0.3449  0.0875  0.3269
  681loPI   C3B10567  16.152   8.807   7.498  0.2260 -0.1984 -0.0618
  681loPI   C4B10568  16.043   8.845   7.993  0.0757  0.1809 -0.0059
  682loPI    C110569   0.872  17.080   5.540  0.0039  0.1007  0.0635
  682loPI    C210570   1.079  17.395   5.405 -0.0138 -0.0381 -0.2982
  682loPI    C310571   1.271  17.063   5.518  0.0112  0.1288  0.1700
  682loPI   PO410572   0.747  17.138   5.665  0.0090  0.1195  0.0812
  682loPI   GL110573   0.588  17.169   6.077 -0.1172  0.0373 -0.2009
  682loPI   GL210574   0.830  17.008   6.204 -0.5056 -0.2247 -0.1180
  682loPI   C1A10575   0.527  17.215   6.612 -0.0944  0.1381 -0.2221
  682loPI   C2A10576   0.455  17.127   7.027  0.3530  0.4428  0.2354
  682loPI   C3A10577   0.594  17.201   7.429  0.0857 -0.0821 -0.1683
  682loPI   C4A10578   0.527  17.161   7.911  0.3853 -0.2320  0.1006
  682loPI   C5A10579   0.746  17.100   8.318 -0.0995  0.3533 -0.0415
  682loPI   C6A10580   0.666  17.000   8.782  0.2847  0.3613 -0.0560
  682loPI   C1B10581   0.901  16.857   6.635  0.1021  0.1559 -0.0498
  682loPI   C2B10582   0.944  16.924   7.095 -0.0431  0.1370  0.0803
  682loPI   C3B10583   0.972  16.848   7.531  0.1843 -0.0074 -0.1393
  682loPI   C4B10584   0.974  16.735   7.960 -0.1039  0.2780  0.0141
  683loPI    C110585   5.069  16.271   5.322  0.1003  0.1208 -0.0378
  683loPI    C210586   4.812  15.999   5.182 -0.2327  0.2702  0.2672
  683loPI    C310587   4.986  16.258   4.931 -0.0029 -0.1408 -0.0090
  683loPI   PO410588   5.158  16.152   5.497 -0.0912 -0.0194  0.2804
  683loPI   GL110589   5.297  16.192   5.878 -0.3663  0.3180 -0.0386
  683loPI   GL210590   4.929  16.172   6.053 -0.1787 -0.0438 -0.1460
  683loPI   C1A10591   5.274  16.153   6.327  0.1286 -0.0234  0.0317
  683loPI   C2A10592   5.356  15.969   6.685 -0.1347 -0.1629 -0.2808
  683loPI   C3A10593   5.289  15.998   7.165 -0.0611  0.0216 -0.0400
  683loPI   C4A10594   5.378  16.060   7.551 -0.3565 -0.3284 -0.1296
  683loPI   C5A10595   5.403  15.955   7.944  0.0492  0.0300  0.1912
  683loPI   C6A10596   5.304  15.600   8.023  0.2378 -0.2306  0.1809
  683loPI   C1B10597   4.899  15.875   6.435 -0.1116 -0.0120 -0.1235
  683loPI   C2B10598   4.832  15.870   6.890  0.0390 -0.3152 -0.0317
  683loPI   C3B10599   4.848  15.830   7.297  0.0180  0.0969  0.0017
  683loPI   C4B10600   4.942  15.899   7.687 -0.0117  0.3419 -0.0361
  684loPI    C110601   9.681  14.639   5.590  0.2067 -0.0079  0.1784
  684loPI    C210602   9.386  14.444   5.403  0.2534  0.0221  0.0722
  684loPI    C310603   9.723  14.532   5.207  0.3146  0.0287  0.1796
  684loPI   PO410604   9.692  14.473   5.859  0.3686 -0.3810  0.3591
  684loPI   GL110605   9.458  14.352   6.257 -0.2986 -0.0088 -0.0900
  684loPI   GL210606   9.138  14.437   6.292  0.3758  0.0794  0.0067
  684loPI   C1A10607   9.532  14.150   6.618 -0.0212  0.1314 -0.1441
  684loPI   C2A10608   9.496  14.014   6.991 -0.0142  0.3212  0.1935
  684loPI   C3A10609   9.574  14.103   7.373 -0.2544 -0.1393  0.0670
  684loPI   C4A10610   9.647  14.122   7.744 -0.1473  0.0486  0.1432
  684loPI   C5A10611   9.718  14.080   8.193 -0.0406  0.3456  0.1527
  684loPI   C6A10612   9.751  13.964   8.520 -0.2253  0.0784  0.1963
  684loPI   C1B10613   9.121  14.458   6.692 -0.2738  0.2484 -0.1831
  684loPI   C2B10614   9.200  14.459   7.167 -0.5968  0.0569 -0.2048
  684loPI   C3B10615   9.250  14.401   7.600  0.2131 -0.2268  0.1594
  684loPI   C4B10616   9.238  14.339   8.017 -0.3977 -0.2639 -0.0531
  685loPI    C110617  15.348  10.616   5.858 -0.1712  0.2466 -0.0314
  685loPI    C210618  15.572  10.667   5.530  0.0158 -0.0024  0.0545
  685loPI    C310619  15.218  10.483   5.503 -0.0454  0.1268 -0.0337
  685loPI   PO410620  15.607  10.525   5.988 -0.2723 -0.0652 -0.5063
  685loPI   GL110621  15.957  10.728   6.344 -0.1413 -0.2867 -0.0955
  685loPI   GL210622  15.624  10.526   6.472 -0.0149 -0.1855  0.1237
  685loPI   C1A10623  16.050  10.698   6.758  0.0623  0.3171  0.0826
  685loPI   C2A10624  16.018  10.719   7.223  0.1618  0.0556  0.2289
  685loPI   C3A10625  15.899  10.662   7.640 -0.2119  0.0391 -0.0540
  685loPI   C4A10626  15.920  10.686   8.045 -0.1221 -0.2838 -0.1163
  685loPI   C5A10627  16.136  10.804   8.330 -0.1256 -0.0843  0.2630
  685loPI   C6A10628  16.464  10.840   8.534  0.2483 -0.2418  0.1641
  685loPI   C1B10629  15.613  10.519   6.885 -0.0429  0.2551  0.1576
  685loPI   C2B10630  15.516  10.562   7.285 -0.2903 -0.0240 -0.0861
  685loPI   C3B10631  15.421  10.531   7.675 -0.0744 -0.0474 -0.1692
  685loPI   C4B10632  15.296  10.527   8.084 -0.1878  0.0856 -0.1709
  686loPI    C110633  10.854   6.273   5.410 -0.0206  0.1828 -0.1174
  686loPI    C210634  10.534   6.117   5.226  0.0862 -0.0435 -0.1151
  686loPI    C310635  10.587   6.514   5.235 -0.1799 -0.0060 -0.1378
  686loPI   PO410636  10.779   6.177   5.677  0.3956  0.1537 -0.1351
  686loPI   GL110637  10.716   6.273   6.053  0.0467 -0.1986  0.0507
  686loPI   GL210638  10.442   6.362   6.230  0.1639 -0.2953 -0.1010
  686loPI   C1A10639  10.966   6.464   6.374 -0.0345 -0.0696  0.2368
  686loPI   C2A10640  10.949   6.475   6.682 -0.1563  0.1795 -0.0542
  686loPI   C3A10641  11.026   6.556   7.099 -0.2444  0.2005 -0.1030
  686loPI   C4A10642  11.059   6.621   7.559  0.0322  0.0512 -0.0469
  686loPI   C5A10643  10.979   6.647   7.978 -0.2972 -0.2079 -0.0728
  686loPI   C6A10644  10.968   6.474   8.381 -0.5400 -0.0311  0.0828
  686loPI   C1B10645  10.491   6.356   6.686  0.0032 -0.0758 -0.0752
  686loPI   C2B10646  10.523   6.360   7.001 -0.0177 -0.0125 -0.2088
  686loPI   C3B10647  10.567   6.415   7.422 -0.0136  0.1021  0.0371
  686loPI   C4B10648  10.522   6.422   7.892  0.1237 -0.2579  0.0603
  687loPI    C110649   4.864   9.116   5.434  0.0446 -0.1798  0.1066
  687loPI    C210650   5.040   9.454   5.312 -0.1412 -0.1247 -0.0132
  687loPI    C310651   5.041   9.132   5.076 -0.1040 -0.1586  0.0331
  687loPI   PO410652   4.740   9.294   5.632  0.0992 -0.2118 -0.0109
  687loPI   GL110653   4.754   9.318   6.161 -0.2398 -0.0215  0.2906
  687loPI   GL210654   4.600   9.516   6.325 -0.2368  0.2201 -0.0117
  687loPI   C1A10655   4.977   9.263   6.552  0.0537 -0.0055 -0.3113
  687loPI   C2A10656   4.860   9.292   7.067  0.0190 -0.0885 -0.0905
  687loPI   C3A10657   4.953   9.223   7.491  0.1508 -0.2021  0.0748
  687loPI   C4A10658   5.047   9.193   7.842  0.2344  0.0068  0.4005
  687loPI   C5A10659   4.937   9.209   8.267 -0.0296 -0.0977 -0.0428
  687loPI   C6A10660   4.724   9.461   8.619  0.2823 -0.1036  0.0442
  687loPI   C1B10661   4.598   9.599   6.760  0.0180 -0.0167 -0.0986
  687loPI   C2B10662   4.458   9.551   7.219  0.2386  0.2302  0.4009
  687loPI   C3B10663   4.600   9.523   7.675 -0.1315 -0.0149 -0.0272
  687loPI   C4B10664   4.540   9.637   8.116 -0.1618  0.0688  0.1399
  688loPI    C110665  10.624   4.239   5.205  0.0568 -0.0333  0.0627
  688loPI    C210666  10.570   4.515   4.920 -0.2598 -0.1101  0.0445
  688loPI    C310667  10.406   4.152   4.881 -0.0167 -0.2354  0.1646
  688loPI   PO410668  10.636   4.344   5.453 -0.1619 -0.1842 -0.1465
  688loPI   GL110669  10.804   4.262   5.900 -0.0515  0.2083 -0.1362
  688loPI   GL210670  11.036   4.241   6.252  0.3398 -0.0801  0.0432
  688loPI   C1A10671  10.611   4.512   6.317  0.1150  0.3748 -0.2212
  688loPI   C2A10672  10.582   4.580   6.688  0.0080  0.1198 -0.1566
  688loPI   C3A10673  10.566   4.557   7.085 -0.0480  0.1700 -0.1846
  688loPI   C4A10674  10.607   4.552   7.465  0.5435 -0.0060  0.1686
  688loPI   C5A10675  10.643   4.573   7.934 -0.0810  0.1211 -0.0239
  688loPI   C6A10676  10.755   5.051   8.149 -0.0795 -0.1730  0.1050
  688loPI   C1B10677  11.003   4.320   6.702 -0.3330  0.1518 -0.2888
  688loPI   C2B10678  10.979   4.277   7.164  0.3135 -0.2918 -0.3272
  688loPI   C3B10679  10.942   4.206   7.602  0.1089 -0.1245 -0.1107
  688loPI   C4B10680  10.966   4.236   8.113  0.0641 -0.1988 -0.1518
  689loPI    C110681   0.627   3.147   5.924  0.0292  0.0199 -0.0963
  689loPI    C210682   0.922   2.949   5.742 -0.0531 -0.0066 -0.2016
  689loPI    C310683   0.845   3.329   5.642  0.1225  0.0893  0.0197
  689loPI   PO410684   0.586   3.065   6.110 -0.1795  0.0664  0.0846
  689loPI   GL110685   0.477   3.170   6.507 -0.4121 -0.1726 -0.3934
  689loPI   GL210686   0.828   3.095   6.564  0.0810 -0.2745 -0.0461
  689loPI   C1A10687   0.405   3.253   6.921 -0.2205 -0.3926  0.0846
  689loPI   C2A10688   0.448   3.208   7.298 -0.1485  0.3842 -0.2171
  689loPI   C3A10689   0.426   3.269   7.733  0.3717  0.0074  0.0409
  689loPI   C4A10690   0.345   3.205   8.190  0.0434  0.1482 -0.2847
  689loPI   C5A10691   0.076   3.037   8.518 -0.2326 -0.1551 -0.0609
  689loPI   C6A10692  -0.365   3.168   8.675 -0.3006  0.0665  0.1701
  689loPI   C1B10693   0.784   2.889   7.013 -0.1047  0.0084 -0.0731
  689loPI   C2B10694   0.796   2.889   7.517 -0.5618 -0.1049 -0.0321
  689loPI   C3B10695   0.757   2.931   7.953 -0.2605 -0.0630  0.1008
  689loPI   C4B10696   0.700   2.814   8.397 -0.3179  0.2728  0.3183
  690loPI    C110697   6.024  11.322   5.590  0.0903  0.2194  0.0392
  690loPI    C210698   6.062  11.587   5.293  0.0697  0.1307 -0.0434
  690loPI    C310699   6.318  11.281   5.321  0.1698  0.2279  0.1243
  690loPI   PO410700   6.103  11.464   5.847  0.0032 -0.1679 -0.2317
  690loPI   GL110701   6.086  11.357   6.146  0.2108 -0.1083  0.1815
  690loPI   GL210702   6.258  11.106   6.269 -0.1409 -0.4169 -0.1803
  690loPI   C1A10703   5.972  11.449   6.481 -0.0619 -0.0077 -0.1547
  690loPI   C2A10704   5.803  11.483   6.961 -0.1081 -0.1824  0.3933
  690loPI   C3A10705   5.919  11.469   7.365  0.2858 -0.2185  0.0605
  690loPI   C4A10706   5.830  11.368   7.767 -0.0181 -0.3349 -0.4309
  690loPI   C5A10707   5.630  11.445   8.162 -0.0838  0.1018  0.1158
  690loPI   C6A10708   5.626  11.374   8.529 -0.2256  0.1356  0.1644
  690loPI   C1B10709   6.292  11.132   6.711 -0.0016  0.0553  0.2817
  690loPI   C2B10710   6.210  11.122   7.132 -0.0052 -0.2789  0.1284
  690loPI   C3B10711   6.316  11.135   7.547 -0.1697 -0.1366 -0.1067
  690loPI   C4B10712   6.194  11.090   8.013 -0.0498 -0.2964  0.1764
  691loPI    C110713  17.341  10.034   5.615  0.3867 -0.2712  0.1299
  691loPI    C210714  17.373   9.890   5.243  0.2016 -0.2168  0.0918
  691loPI    C310715  17.653  10.138   5.386  0.0203  0.1639 -0.1929
  691loPI   PO410716  17.285   9.886   5.800 -0.3161 -0.1980 -0.3242
  691loPI   GL110717  17.183   9.524   6.039  0.0139 -0.2737  0.1756
  691loPI   GL210718  17.451   9.704   6.229  0.1246 -0.2284  0.5404
  691loPI   C1A10719  16.857   9.436   6.288 -0.0295 -0.0568 -0.0325
  691loPI   C2A10720  16.671   9.504   6.758 -0.2771 -0.1702  0.4233
  691loPI   C3A10721  16.707   9.530   7.236  0.2550  0.0575 -0.3255
  691loPI   C4A10722  16.673   9.445   7.527 -0.0307  0.0162 -0.1317
  691loPI   C5A10723  16.626   9.470   7.926 -0.3935 -0.2816  0.0289
  691loPI   C6A10724  16.804   9.454   8.426  0.1716 -0.1416 -0.3169
  691loPI   C1B10725  17.262   9.698   6.607  0.2547  0.2480 -0.1859
  691loPI   C2B10726  17.180   9.748   6.979  0.1221  0.0898 -0.0865
  691loPI   C3B10727  17.181   9.644   7.325 -0.0026  0.0100  0.1369
  691loPI   C4B10728  17.082   9.683   7.723 -0.4737  0.0522  0.0746
  692loPI    C110729  11.911   7.157   5.647 -0.1198  0.2314  0.1127
  692loPI    C210730  11.981   7.102   5.257  0.1408  0.0114  0.1867
  692loPI    C310731  11.782   7.427   5.381  0.0646  0.0883 -0.1262
  692loPI   PO410732  12.156   7.196   5.756 -0.0627 -0.3294  0.2199
  692loPI   GL110733  12.450   7.200   6.109  0.1585  0.2029 -0.0937
  692loPI   GL210734  12.111   7.325   6.388 -0.1311 -0.1766  0.0440
  692loPI   C1A10735  12.491   7.119   6.601 -0.1630  0.1870 -0.0197
  692loPI   C2A10736  12.574   7.119   7.078  0.1972  0.0644  0.5999
  692loPI   C3A10737  12.421   6.998   7.538 -0.0098  0.1144 -0.4496
  692loPI   C4A10738  12.420   7.035   8.026  0.2562 -0.2594  0.3498
  692loPI   C5A10739  12.324   7.066   8.582  0.0677  0.2276 -0.1005
  692loPI   C6A10740  12.437   7.407   8.802 -0.2046  0.1412  0.4597
  692loPI   C1B10741  12.123   7.482   6.818  0.1541 -0.1303 -0.1750
  692loPI   C2B10742  12.138   7.299   7.277  0.1633 -0.1749 -0.0466
  692loPI   C3B10743  11.991   7.371   7.655 -0.0099 -0.0719 -0.0375
  692loPI   C4B10744  12.066   7.377   8.114 -0.0612  0.1912  0.1127
  693loPI    C110745   0.814   8.064   5.921 -0.0873  0.1814 -0.1713
  693loPI    C210746   0.953   8.093   5.548 -0.0658  0.2254 -0.1599
  693loPI    C310747   0.839   7.737   5.691 -0.1056  0.2139 -0.2195
  693loPI   PO410748   0.619   8.193   6.001  0.0770  0.2673 -0.0448
  693loPI   GL110749   0.507   8.521   6.276  0.1250 -0.0424 -0.3808
  693loPI   GL210750   0.283   8.443   6.411 -0.3166  0.0368 -0.0201
  693loPI   C1A10751   0.730   8.681   6.661  0.0609 -0.1605  0.0000
  693loPI   C2A10752   0.729   8.636   7.075 -0.1899  0.2654 -0.3702
  693loPI   C3A10753   0.720   8.670   7.540 -0.1894  0.5739  0.1314
  693loPI   C4A10754   0.726   8.604   7.952  0.1256 -0.1255  0.2141
  693loPI   C5A10755   0.770   8.889   8.289  0.0874 -0.1717  0.1760
  693loPI   C6A10756   0.731   8.782   8.762 -0.1482  0.2500  0.0596
  693loPI   C1B10757   0.202   8.528   6.780 -0.0040 -0.1505  0.0933
  693loPI   C2B10758   0.285   8.477   7.218 -0.2528  0.4265  0.2768
  693loPI   C3B10759   0.175   8.466   7.667 -0.0884 -0.2339 -0.0481
  693loPI   C4B10760  -0.021   8.381   8.157 -0.0008 -0.0641 -0.1073
  694loPI    C110761  15.314   5.580   5.986  0.0840 -0.1351  0.0349
  694loPI    C210762  15.071   5.756   5.722  0.1364 -0.0841  0.0202
  694loPI    C310763  15.459   5.711   5.637  0.1152 -0.2468  0.0054
  694loPI   PO410764  15.253   5.661   6.180  0.1785  0.0419 -0.0176
  694loPI   GL110765  15.307   5.543   6.525 -0.0418 -0.1660  0.1114
  694loPI   GL210766  15.444   5.292   6.778  0.0684 -0.1256  0.1975
  694loPI   C1A10767  14.985   5.591   6.891 -0.0203  0.0560  0.0106
  694loPI   C2A10768  14.908   5.552   7.397  0.2848 -0.3808  0.0198
  694loPI   C3A10769  14.926   5.508   7.824  0.0111 -0.1920  0.1536
  694loPI   C4A10770  14.899   5.590   8.227 -0.3311  0.0890  0.1932
  694loPI   C5A10771  14.593   5.546   8.539 -0.1208 -0.2125 -0.0847
  694loPI   C6A10772  14.291   5.424   8.974 -0.1192  0.0339 -0.1430
  694loPI   C1B10773  15.284   5.236   7.156 -0.1149 -0.0328  0.2586
  694loPI   C2B10774  15.282   5.178   7.524  0.1409 -0.1824 -0.1050
  694loPI   C3B10775  15.319   5.090   7.902 -0.0765  0.1468 -0.0287
  694loPI   C4B10776  15.376   5.037   8.328 -0.3573 -0.1329 -0.1731
  695loPI    C110777   7.371  15.975   5.706  0.0194  0.3076 -0.3343
  695loPI    C210778   7.214  15.755   5.411 -0.1215  0.1478 -0.1431
  695loPI    C310779   7.602  15.855   5.402 -0.0435 -0.1503 -0.2082
  695loPI   PO410780   7.238  15.802   5.933  0.1248  0.0320  0.1447
  695loPI   GL110781   7.085  15.528   6.275 -0.2983  0.2244 -0.0090
  695loPI   GL210782   7.117  15.162   6.321 -0.3021  0.0472  0.0687
  695loPI   C1A10783   7.035  15.684   6.631 -0.2654  0.2858  0.1391
  695loPI   C2A10784   7.104  15.706   7.066 -0.1490  0.0968 -0.2704
  695loPI   C3A10785   7.073  15.781   7.521  0.1207  0.0078  0.2722
  695loPI   C4A10786   7.167  15.732   7.992  0.0433  0.1728 -0.2317
  695loPI   C5A10787   7.239  15.813   8.396 -0.2544  0.0553  0.0150
  695loPI   C6A10788   6.963  15.724   8.792 -0.0560 -0.1516 -0.3631
  695loPI   C1B10789   7.014  15.188   6.775  0.0963 -0.0992  0.2664
  695loPI   C2B10790   7.090  15.193   7.192 -0.2070 -0.0885 -0.0168
  695loPI   C3B10791   7.089  15.248   7.608  0.0391  0.1503  0.1204
  695loPI   C4B10792   7.066  15.210   8.077 -0.2299  0.1293 -0.3078
  696loPI    C110793  13.676  14.557   6.030 -0.0590 -0.0529 -0.1767
  696loPI    C210794  13.801  14.432   5.672  0.0178  0.1680 -0.2291
  696loPI    C310795  13.420  14.543   5.723 -0.0107  0.0685 -0.2235
  696loPI   PO410796  13.763  14.392   6.207  0.2723  0.1263 -0.0132
  696loPI   GL110797  13.893  14.257   6.547 -0.0095 -0.1573 -0.1321
  696loPI   GL210798  14.179  14.305   6.471 -0.1578 -0.0204  0.0004
  696loPI   C1A10799  14.059  14.202   7.083  0.4359 -0.0735  0.0787
  696loPI   C2A10800  13.880  13.840   7.327 -0.2842 -0.1032 -0.0046
  696loPI   C3A10801  13.936  13.724   7.680  0.1389  0.0556 -0.0338
  696loPI   C4A10802  14.035  13.935   8.052 -0.1555  0.1379 -0.1531
  696loPI   C5A10803  14.307  14.187   8.321 -0.0324  0.0009 -0.0317
  696loPI   C6A10804  14.390  14.324   8.709 -0.0352  0.0634 -0.0796
  696loPI   C1B10805  14.445  14.018   6.805 -0.1581 -0.3174  0.0670
  696loPI   C2B10806  14.412  13.731   7.069 -0.0755 -0.1070 -0.1228
  696loPI   C3B10807  14.361  13.888   7.484  0.1568  0.0933  0.0397
  696loPI   C4B10808  14.043  14.202   7.576 -0.0108 -0.0178  0.2044
  697loPI    C110809   9.683   2.455   5.849 -0.0983  0.1415 -0.1452
  697loPI    C210810   9.974   2.721   5.781 -0.1399  0.2535  0.1063
  697loPI    C310811   9.624   2.755   5.591 -0.0287  0.1810 -0.1152
  697loPI   PO410812   9.642   2.457   6.149 -0.0324  0.0556 -0.0783
  697loPI   GL110813   9.486   2.387   6.519 -0.0234  0.3060 -0.0248
  697loPI   GL210814   9.337   2.675   6.490 -0.0120 -0.0203  0.0019
  697loPI   C1A10815   9.706   2.271   6.825  0.2492  0.0215  0.0297
  697loPI   C2A10816   9.757   2.396   7.291 -0.1391  0.2330 -0.0630
  697loPI   C3A10817   9.717   2.349   7.679  0.2013  0.1340  0.1738
  697loPI   C4A10818   9.793   2.326   8.144 -0.3924  0.0406  0.3077
  697loPI   C5A10819   9.830   2.230   8.530  0.0502  0.1724  0.1085
  697loPI   C6A10820   9.933   2.260   8.843  0.3780  0.2157  0.2057
  697loPI   C1B10821   9.345   2.686   7.000  0.0323 -0.2503  0.0019
  697loPI   C2B10822   9.317   2.731   7.471  0.1373  0.3073 -0.1804
  697loPI   C3B10823   9.320   2.611   7.868  0.1958 -0.0974 -0.0780
  697loPI   C4B10824   9.317   2.359   8.279 -0.0184 -0.0768 -0.2316
  698loPI    C110825   9.513   8.974   5.547  0.0679 -0.1119 -0.1414
  698loPI    C210826   9.837   9.087   5.341  0.0472  0.1179 -0.0506
  698loPI    C310827   9.473   9.130   5.181  0.0319  0.2846  0.0264
  698loPI   PO410828   9.611   9.003   5.786  0.0796  0.2825 -0.0621
  698loPI   GL110829   9.717   8.895   6.163 -0.0518  0.0322  0.0417
  698loPI   GL210830   9.945   8.802   6.148  0.0548 -0.1964 -0.0690
  698loPI   C1A10831   9.649   8.847   6.615  0.3079  0.2514 -0.0831
  698loPI   C2A10832   9.551   8.873   6.988  0.0064 -0.1712 -0.0653
  698loPI   C3A10833   9.594   8.799   7.320  0.0170 -0.1445  0.1586
  698loPI   C4A10834   9.640   8.947   7.666  0.0336  0.0343  0.1540
  698loPI   C5A10835   9.559   8.890   8.082  0.0296 -0.3058 -0.2513
  698loPI   C6A10836   9.439   8.777   8.452  0.0637  0.0190 -0.1754
  698loPI   C1B10837  10.100   9.041   6.551 -0.0859  0.0770  0.1045
  698loPI   C2B10838  10.106   9.099   7.033  0.3420  0.2187  0.1832
  698loPI   C3B10839  10.148   9.078   7.525 -0.1068 -0.2035 -0.2410
  698loPI   C4B10840  10.074   9.044   7.983 -0.0646  0.1565 -0.0077
  699loPI    C110841   7.229   3.159   5.307  0.2467  0.1770  0.1054
  699loPI    C210842   7.052   2.943   5.021  0.0569  0.0921  0.2840
  699loPI    C310843   7.451   2.962   5.039  0.0712  0.0268  0.0682
  699loPI   PO410844   7.164   3.090   5.526 -0.0727 -0.3447  0.0550
  699loPI   GL110845   7.019   3.091   6.066 -0.1934 -0.2975  0.1343
  699loPI   GL210846   7.104   2.763   6.176 -0.2723  0.1259 -0.2648
  699loPI   C1A10847   7.210   3.338   6.450 -0.0710  0.1693 -0.2429
  699loPI   C2A10848   7.097   3.228   6.904 -0.3008  0.0796  0.0282
  699loPI   C3A10849   7.133   3.253   7.320  0.1385  0.0878  0.1473
  699loPI   C4A10850   7.183   3.295   7.744  0.5901 -0.1756  0.2186
  699loPI   C5A10851   7.268   3.347   8.130  0.0103  0.1751  0.1632
  699loPI   C6A10852   7.302   2.989   8.327  0.3510  0.1345  0.0021
  699loPI   C1B10853   7.160   2.767   6.610 -0.0351  0.0984  0.1943
  699loPI   C2B10854   7.147   2.785   7.081 -0.1027  0.0186  0.2160
  699loPI   C3B10855   7.126   2.750   7.520  0.2937  0.0039 -0.0996
  699loPI   C4B10856   7.140   2.798   7.891 -0.0204 -0.0269 -0.4134
  700loPI    C110857  11.468  13.801   5.589 -0.0926 -0.0512 -0.1566
  700loPI    C210858  11.416  14.190   5.514 -0.0550 -0.0076  0.0365
  700loPI    C310859  11.721  13.994   5.346  0.0329  0.0893  0.0818
  700loPI   PO410860  11.414  13.798   5.824  0.1013 -0.1246  0.0836
  700loPI   GL110861  11.442  13.737   6.210 -0.0084  0.2805 -0.0434
  700loPI   GL210862  11.141  13.876   6.379  0.1207 -0.1872  0.0726
  700loPI   C1A10863  11.328  13.524   6.589 -0.3400 -0.1227 -0.0750
  700loPI   C2A10864  11.301  13.382   7.006  0.1727  0.0745  0.2340
  700loPI   C3A10865  11.356  13.312   7.376 -0.0052  0.3795  0.2812
  700loPI   C4A10866  11.515  13.278   7.715 -0.0072  0.2406  0.3158
  700loPI   C5A10867  11.325  13.344   8.172 -0.1894 -0.3912  0.1879
  700loPI   C6A10868  11.105  13.592   8.449  0.4196 -0.0651 -0.2662
  700loPI   C1B10869  11.038  13.821   6.801  0.0632  0.0104 -0.1986
  700loPI   C2B10870  10.883  13.684   7.186  0.0459  0.2973  0.0396
  700loPI   C3B10871  10.965  13.608   7.578 -0.2823  0.1416 -0.0139
  700loPI   C4B10872  10.887  13.668   8.016 -0.3343  0.1624  0.1814
  701loPI    C110873  14.134   2.477   5.893 -0.2399 -0.0927 -0.2555
  701loPI    C210874  14.297   2.794   5.712 -0.0012  0.0733  0.2318
  701loPI    C310875  14.430   2.426   5.628 -0.0585  0.1243 -0.0985
  701loPI   PO410876  14.131   2.550   6.158 -0.0538 -0.1141 -0.1156
  701loPI   GL110877  14.354   2.639   6.436  0.0931  0.3361 -0.3716
  701loPI   GL210878  14.489   2.940   6.511  0.0220  0.3020  0.1230
  701loPI   C1A10879  14.369   2.449   6.812 -0.1471  0.1318 -0.0609
  701loPI   C2A10880  14.233   2.477   7.185 -0.1903 -0.0683 -0.0110
  701loPI   C3A10881  14.279   2.529   7.619  0.0437  0.1256 -0.0036
  701loPI   C4A10882  14.304   2.481   8.064 -0.1530 -0.2446 -0.1158
  701loPI   C5A10883  14.108   2.709   8.432 -0.0018  0.1503 -0.0889
  701loPI   C6A10884  14.251   3.035   8.663  0.0257 -0.0366  0.2040
  701loPI   C1B10885  14.336   2.924   6.979  0.1402  0.1933  0.0209
  701loPI   C2B10886  14.341   3.006   7.336 -0.1501  0.0844  0.1681
  701loPI   C3B10887  14.398   3.056   7.741 -0.4936  0.0676 -0.2761
  701loPI   C4B10888  14.420   2.988   8.195 -0.2407 -0.0016 -0.0583
  702loPI    C110889  16.853   0.568   5.756  0.1527  0.0416 -0.1380
  702loPI    C210890  16.509   0.444   5.593 -0.1828  0.3405  0.3198
  702loPI    C310891  16.751   0.688   5.388 -0.1075 -0.0799 -0.1077
  702loPI   PO410892  16.826   0.548   6.041 -0.1394  0.1190  0.1432
  702loPI   GL110893  17.044   0.627   6.453 -0.1801 -0.1327  0.0391
  702loPI   GL210894  16.922   0.320   6.464 -0.0030  0.3334 -0.0746
  702loPI   C1A10895  17.053   0.592   6.869  0.1618  0.0390 -0.1148
  702loPI   C2A10896  16.975   0.538   7.291 -0.1780 -0.2771 -0.2332
  702loPI   C3A10897  17.045   0.561   7.691  0.2752  0.3458  0.0330
  702loPI   C4A10898  17.083   0.541   8.176  0.2654  0.0587 -0.1261
  702loPI   C5A10899  17.114   0.784   8.560  0.0169 -0.0810 -0.0768
  702loPI   C6A10900  17.390   1.115   8.752 -0.2821  0.1118  0.3979
  702loPI   C1B10901  16.932   0.098   6.816  0.1609  0.0159  0.2663
  702loPI   C2B10902  16.924   0.044   7.268  0.2184  0.3294  0.1757
  702loPI   C3B10903  16.973  -0.001   7.722 -0.3865  0.0980 -0.2978
  702loPI   C4B10904  17.037  -0.004   8.139  0.1953 -0.2355  0.1925
  703loPI    C110905  14.427  17.562   5.851  0.0370 -0.1970 -0.0381
  703loPI    C210906  14.497  17.537   5.458  0.0520 -0.1730 -0.0369
  703loPI    C310907  14.796  17.482   5.719  0.0340 -0.2282 -0.0278
  703loPI   PO410908  14.336  17.797   5.891 -0.0700 -0.0605  0.4020
  703loPI   GL110909  14.199  17.791   6.262 -0.1182  0.1268 -0.5020
  703loPI   GL210910  14.308  17.511   6.411 -0.0227  0.1590  0.0609
  703loPI   C1A10911  14.275  17.935   6.707  0.1074 -0.2691  0.1101
  703loPI   C2A10912  14.232  18.247   7.031  0.0263 -0.1576 -0.0498
  703loPI   C3A10913  14.333  18.249   7.501 -0.2570  0.0567 -0.0929
  703loPI   C4A10914  14.415  18.273   7.897 -0.2313  0.1715 -0.5836
  703loPI   C5A10915  14.483  18.206   8.337 -0.2173 -0.1319  0.2944
  703loPI   C6A10916  14.828  18.060   8.583 -0.1254  0.0194 -0.1738
  703loPI   C1B10917  14.541  17.495   6.831 -0.2922  0.3112  0.3148
  703loPI   C2B10918  14.660  17.369   7.231 -0.1726 -0.0495 -0.0881
  703loPI   C3B10919  14.677  17.506   7.697 -0.2060  0.0204  0.1148
  703loPI   C4B10920  14.732  17.303   8.032  0.1910 -0.0563 -0.1254
  704loPI    C110921  10.639   7.591   5.461  0.0178  0.0366 -0.0204
  704loPI    C210922  10.346   7.798   5.285 -0.1136 -0.0850  0.0536
  704loPI    C310923  10.578   7.556   5.067 -0.0163  0.0720 -0.0184
  704loPI   PO410924  10.658   7.701   5.733 -0.0315  0.0783 -0.0550
  704loPI   GL110925  10.592   7.878   6.154  0.2843  0.1023 -0.0325
  704loPI   GL210926  10.264   7.855   6.142 -0.1661  0.0568  0.0380
  704loPI   C1A10927  10.831   7.959   6.646 -0.0367  0.3474  0.0852
  704loPI   C2A10928  10.786   7.942   7.155  0.1544 -0.1204 -0.1413
  704loPI   C3A10929  10.820   7.951   7.578 -0.4497  0.0137  0.1291
  704loPI   C4A10930  10.785   7.845   7.993  0.5244  0.3258 -0.1277
  704loPI   C5A10931  10.490   7.840   8.381  0.2598  0.1833  0.1336
  704loPI   C6A10932  10.550   7.698   8.795 -0.1047 -0.0079  0.3328
  704loPI   C1B10933  10.341   7.745   6.534 -0.0279 -0.1909  0.2153
  704loPI   C2B10934  10.292   7.772   6.972  0.3007 -0.1128 -0.1345
  704loPI   C3B10935  10.274   7.744   7.303  0.3430  0.0148 -0.3139
  704loPI   C4B10936  10.328   7.721   7.689  0.3126 -0.2217 -0.0124
  705loPI    C110937  10.163   0.499   5.405 -0.0311  0.2668  0.0109
  705loPI    C210938   9.979   0.517   5.050  0.2093  0.0343 -0.1290
  705loPI    C310939   9.994   0.841   5.284 -0.2291  0.1019 -0.1870
  705loPI   PO410940  10.090   0.373   5.573  0.1174  0.3007 -0.2167
  705loPI   GL110941  10.167   0.259   5.963  0.0465  0.2783  0.0316
  705loPI   GL210942  10.588   0.226   6.137  0.1399 -0.1832 -0.0201
  705loPI   C1A10943  10.222   0.269   6.422  0.3498 -0.1270 -0.0360
  705loPI   C2A10944  10.234   0.196   6.857  0.0888 -0.1879 -0.1827
  705loPI   C3A10945  10.196   0.157   7.280  0.1306  0.1559 -0.0294
  705loPI   C4A10946  10.255   0.098   7.737 -0.3569 -0.0846 -0.1447
  705loPI   C5A10947  10.232   0.104   8.177 -0.3419 -0.0576 -0.1438
  705loPI   C6A10948  10.449   0.238   8.590  0.1674 -0.1221 -0.0637
  705loPI   C1B10949  10.650   0.339   6.564  0.0898  0.0136 -0.1808
  705loPI   C2B10950  10.702   0.368   7.013  0.1611  0.0638  0.1367
  705loPI   C3B10951  10.704   0.304   7.422 -0.0375 -0.2594 -0.1867
  705loPI   C4B10952  10.730   0.252   7.914  0.0941  0.0173 -0.0812
  706loPI    C110953   1.741   5.404   5.618 -0.1601 -0.2077 -0.1993
  706loPI    C210954   1.369   5.263   5.660 -0.1237 -0.2649 -0.0618
  706loPI    C310955   1.604   5.124   5.368 -0.1975 -0.2552 -0.1260
  706loPI   PO410956   1.763   5.461   5.949  0.0433  0.1232  0.1321
  706loPI   GL110957   1.699   5.699   6.307 -0.1052 -0.2431  0.0263
  706loPI   GL210958   1.977   5.821   6.436  0.1033  0.2590  0.0905
  706loPI   C1A10959   1.654   5.596   6.714  0.1382 -0.1451  0.1013
  706loPI   C2A10960   1.569   5.623   7.129  0.1630 -0.0879 -0.0816
  706loPI   C3A10961   1.668   5.562   7.591  0.1070  0.1030  0.0815
  706loPI   C4A10962   1.672   5.673   8.051 -0.3230  0.1056 -0.2480
  706loPI   C5A10963   1.620   5.586   8.444 -0.1703  0.0354  0.1451
  706loPI   C6A10964   1.374   5.780   8.750  0.0067  0.4218  0.1950
  706loPI   C1B10965   2.087   5.743   6.881 -0.1142  0.0911 -0.0842
  706loPI   C2B10966   2.097   5.761   7.388  0.4071 -0.2104 -0.5332
  706loPI   C3B10967   2.087   5.777   7.815  0.6884  0.1464 -0.0343
  706loPI   C4B10968   2.220   5.910   8.115 -0.0489 -0.2296 -0.0380
  707loPI    C110969   4.239   9.053   5.715 -0.2256  0.1476 -0.0162
  707loPI    C210970   4.080   9.187   5.374 -0.0628 -0.1762 -0.2249
  707loPI    C310971   4.364   8.905   5.365  0.0653 -0.0666  0.1724
  707loPI   PO410972   4.279   9.283   5.839  0.0263 -0.1025 -0.0836
  707loPI   GL110973   4.081   9.419   6.248  0.2350 -0.1752  0.1207
  707loPI   GL210974   4.197   9.822   6.338 -0.1530 -0.0630 -0.3259
  707loPI   C1A10975   4.052   9.353   6.735  0.4580 -0.0043 -0.0649
  707loPI   C2A10976   4.001   9.399   7.143  0.2468 -0.4205  0.0983
  707loPI   C3A10977   4.078   9.368   7.566 -0.2369 -0.0505  0.1069
  707loPI   C4A10978   4.078   9.458   7.999 -0.0491  0.0868  0.0368
  707loPI   C5A10979   4.173   9.665   8.471 -0.0262  0.0931 -0.0493
  707loPI   C6A10980   3.727   9.767   8.666 -0.0282  0.2660 -0.0037
  707loPI   C1B10981   4.081   9.941   6.726  0.1291 -0.0118 -0.0638
  707loPI   C2B10982   4.074   9.893   7.207 -0.1265  0.0776  0.0896
  707loPI   C3B10983   4.206   9.843   7.578  0.0445  0.2213 -0.0399
  707loPI   C4B10984   4.172   9.970   8.040 -0.0722 -0.2092  0.0439
  708loPI    C110985  10.681   9.815   5.737 -0.0805 -0.2629  0.1100
  708loPI    C210986  10.509   9.896   5.385 -0.1079  0.0000  0.1815
  708loPI    C310987  10.902   9.827   5.404 -0.0919  0.0707  0.1111
  708loPI   PO410988  10.603   9.577   5.819 -0.0538  0.2743 -0.0872
  708loPI   GL110989  10.306   9.394   6.147  0.0041  0.3446 -0.2169
  708loPI   GL210990  10.313   9.603   6.193 -0.0465  0.3786  0.0982
  708loPI   C1A10991  10.633   9.291   6.481 -0.0768  0.1811  0.0670
  708loPI   C2A10992  10.651   9.244   6.945  0.1457 -0.1047  0.0132
  708loPI   C3A10993  10.609   9.200   7.344  0.2106 -0.0473  0.0141
  708loPI   C4A10994  10.473   9.293   7.783 -0.2097  0.0086 -0.1279
  708loPI   C5A10995  10.534   9.312   8.282 -0.0949 -0.4087 -0.0462
  708loPI   C6A10996  10.772   9.195   8.583  0.0929 -0.0218  0.2995
  708loPI   C1B10997  10.250   9.531   6.669  0.1486  0.3216 -0.1214
  708loPI   C2B10998  10.181   9.630   7.093  0.1749 -0.0493  0.1454
  708loPI   C3B10999  10.237   9.577   7.465  0.0256  0.2684 -0.3270
  708loPI   C4B11000  10.135   9.645   7.904  0.3335  0.1152 -0.0379
  709loPI    C111001   2.106   9.688   5.818 -0.0912  0.0323  0.1880
  709loPI    C211002   2.341   9.386   5.703 -0.2389  0.0020 -0.0411
  709loPI    C311003   2.297   9.705   5.467 -0.1623  0.1598  0.1550
  709loPI   PO411004   1.915   9.529   5.939 -0.1020 -0.0740  0.3257
  709loPI   GL111005   1.782   9.649   6.279  0.1508 -0.2843 -0.0206
  709loPI   GL211006   1.854   9.976   6.422  0.2027 -0.1320 -0.0234
  709loPI   C1A11007   1.880   9.508   6.666 -0.0625  0.0421 -0.0705
  709loPI   C2A11008   1.862   9.553   7.153  0.0936  0.0937  0.2236
  709loPI   C3A11009   1.764   9.655   7.602  0.3896  0.0815  0.2580
  709loPI   C4A11010   1.745   9.593   7.938  0.0057  0.0254 -0.0567
  709loPI   C5A11011   1.807   9.704   8.380  0.0990 -0.3164 -0.0467
  709loPI   C6A11012   1.635   9.796   8.794  0.2577  0.0111  0.0698
  709loPI   C1B11013   1.915   9.980   6.913 -0.1727  0.2409  0.1490
  709loPI   C2B11014   1.852  10.108   7.338 -0.0657  0.1617  0.0758
  709loPI   C3B11015   1.943  10.073   7.815  0.0448  0.2136  0.0791
  709loPI   C4B11016   2.104  10.190   8.271 -0.0945  0.2425 -0.3595
  710loPI    C111017  12.345  10.697   5.577  0.0924  0.1788  0.2125
  710loPI    C211018  12.336  11.086   5.486 -0.0971  0.0267 -0.4737
  710loPI    C311019  11.997  10.875   5.497 -0.0307 -0.0657  0.1936
  710loPI   PO411020  12.470  10.687   5.808 -0.1036  0.0997 -0.1406
  710loPI   GL111021  12.443  10.531   6.152 -0.1175  0.1152  0.0791
  710loPI   GL211022  12.307  10.820   6.294 -0.2987 -0.2823 -0.0776
  710loPI   C1A11023  12.245  10.347   6.520  0.2405  0.1140 -0.1201
  710loPI   C2A11024  12.125  10.288   6.964  0.1974  0.1191  0.1689
  710loPI   C3A11025  12.202  10.276   7.386 -0.0731  0.1255  0.2224
  710loPI   C4A11026  12.219  10.262   7.816 -0.1121  0.1529 -0.0962
  710loPI   C5A11027  12.366  10.422   8.158 -0.1111 -0.0765 -0.4083
  710loPI   C6A11028  12.607  10.609   8.519  0.1108 -0.0510 -0.0012
  710loPI   C1B11029  12.163  10.818   6.710 -0.0984  0.1479 -0.0626
  710loPI   C2B11030  12.161  10.802   7.236 -0.4159 -0.2145  0.1066
  710loPI   C3B11031  12.321  10.867   7.694 -0.1525  0.0142  0.0542
  710loPI   C4B11032  12.492  10.880   8.060  0.1040 -0.2577  0.0089
  711loPI    C111033  10.623  11.587   5.757  0.1133 -0.0052  0.0907
  711loPI    C211034  10.882  11.827   5.570 -0.0286  0.0803  0.0013
  711loPI    C311035  10.629  11.602   5.358  0.2830 -0.3562  0.0758
  711loPI   PO411036  10.697  11.728   6.033 -0.1141  0.3173  0.3723
  711loPI   GL111037  10.942  11.609   6.271 -0.1762  0.1310 -0.2619
  711loPI   GL211038  11.038  11.338   6.432  0.0250  0.0324 -0.0127
  711loPI   C1A11039  10.735  11.716   6.764 -0.1309  0.2646 -0.0392
  711loPI   C2A11040  10.544  11.521   7.149 -0.1924  0.3840 -0.2714
  711loPI   C3A11041  10.645  11.683   7.546 -0.0198 -0.0906  0.2892
  711loPI   C4A11042  10.477  11.579   7.984  0.1281 -0.1430 -0.1432
  711loPI   C5A11043  10.677  11.629   8.386 -0.0740 -0.0925 -0.1002
  711loPI   C6A11044  10.711  11.526   8.859  0.3543  0.0583  0.3875
  711loPI   C1B11045  11.042  11.324   6.857 -0.1270 -0.0578  0.0671
  711loPI   C2B11046  10.975  11.207   7.236 -0.4084 -0.1416  0.1019
  711loPI   C3B11047  11.147  11.317   7.614 -0.0811  0.0125 -0.1390
  711loPI   C4B11048  11.026  11.344   8.074  0.2678  0.2395 -0.1645
  712loPI    C111049   5.774  16.847   5.676 -0.0363 -0.2428  0.2583
  712loPI    C211050   6.153  16.748   5.597  0.0428  0.1690  0.0962
  712loPI    C311051   5.886  16.767   5.300 -0.0518  0.1038  0.1766
  712loPI   PO411052   5.674  16.684   5.916 -0.1954  0.1768  0.0474
  712loPI   GL111053   5.386  16.664   6.313 -0.0163 -0.1294 -0.1339
  712loPI   GL211054   5.503  16.982   6.459 -0.2862  0.1377 -0.3674
  712loPI   C1A11055   5.431  16.486   6.736 -0.2052  0.1414 -0.0027
  712loPI   C2A11056   5.387  16.525   7.189  0.1857  0.0955 -0.1211
  712loPI   C3A11057   5.489  16.536   7.648  0.2445  0.1918 -0.0214
  712loPI   C4A11058   5.509  16.518   8.065  0.0164  0.0601  0.0332
  712loPI   C5A11059   5.723  16.611   8.411 -0.2519 -0.1175  0.1031
  712loPI   C6A11060   5.792  16.536   8.863 -0.0412  0.0311 -0.1659
  712loPI   C1B11061   5.521  17.010   6.877 -0.1731 -0.2420 -0.1233
  712loPI   C2B11062   5.524  17.013   7.331 -0.0032 -0.1816  0.0807
  712loPI   C3B11063   5.585  17.039   7.751  0.0584 -0.0094 -0.1519
  712loPI   C4B11064   5.542  17.024   8.170  0.0089 -0.3530  0.3960
  713loPI    C111065  15.412   5.055   5.901  0.3011 -0.0407 -0.0477
  713loPI    C211066  15.711   5.305   5.811  0.0842  0.2483  0.0213
  713loPI    C311067  15.442   5.206   5.532  0.1111  0.1724  0.0221
  713loPI   PO411068  15.327   5.090   6.100 -0.1711 -0.1186  0.3177
  713loPI   GL111069  15.074   5.115   6.458 -0.1528  0.1063  0.1422
  713loPI   GL211070  15.100   4.788   6.531  0.1949 -0.0444 -0.3457
  713loPI   C1A11071  14.872   5.098   6.839  0.0283 -0.2610 -0.1671
  713loPI   C2A11072  14.786   5.041   7.299  0.0559  0.1038  0.1659
  713loPI   C3A11073  14.797   5.050   7.714 -0.0102 -0.3002  0.0687
  713loPI   C4A11074  14.863   5.064   8.162 -0.1709 -0.0406  0.1508
  713loPI   C5A11075  14.945   5.203   8.548 -0.1456 -0.0503 -0.1998
  713loPI   C6A11076  14.843   5.195   8.952 -0.1395 -0.0278  0.1244
  713loPI   C1B11077  15.122   4.685   6.901  0.2632  0.1209  0.1126
  713loPI   C2B11078  15.122   4.722   7.341 -0.1260 -0.3768  0.1834
  713loPI   C3B11079  15.224   4.639   7.750  0.1070  0.1518  0.2097
  713loPI   C4B11080  15.188   4.652   8.136 -0.3515  0.1753  0.0886
  714loPI    C111081   8.036  10.339   5.641 -0.2982  0.1258 -0.0475
  714loPI    C211082   7.735  10.077   5.662 -0.0358 -0.1880 -0.1193
  714loPI    C311083   7.869  10.200   5.306 -0.2033  0.1022 -0.0852
  714loPI   PO411084   7.921  10.430   6.014 -0.0082 -0.0157  0.4080
  714loPI   GL111085   7.668  10.150   6.195 -0.2905  0.3411 -0.1607
  714loPI   GL211086   7.302   9.917   6.168  0.0297 -0.2250  0.1461
  714loPI   C1A11087   7.511  10.064   6.601  0.0285 -0.1047  0.0387
  714loPI   C2A11088   7.481  10.004   7.001  0.1591  0.1508  0.0447
  714loPI   C3A11089   7.508  10.017   7.426  0.0932 -0.1128  0.1885
  714loPI   C4A11090   7.507   9.986   7.825 -0.2010 -0.0632  0.0190
  714loPI   C5A11091   7.665   9.896   8.182  0.1339  0.1325  0.2407
  714loPI   C6A11092   7.982   9.939   8.371 -0.3028  0.0738  0.1209
  714loPI   C1B11093   7.017  10.017   6.516  0.1966 -0.0913  0.0718
  714loPI   C2B11094   6.923   9.923   6.913 -0.1094 -0.5246 -0.3298
  714loPI   C3B11095   6.954   9.844   7.311  0.2851  0.0276 -0.0821
  714loPI   C4B11096   7.087   9.798   7.740 -0.0382  0.1597  0.1860
  715loPI    C111097   0.406  11.868   5.160 -0.0297  0.1706 -0.0864
  715loPI    C211098   0.623  11.617   4.938  0.0769  0.0273  0.1759
  715loPI    C311099   0.245  11.696   4.837  0.1993  0.1579 -0.1957
  715loPI   PO411100   0.726  11.902   5.373  0.0879 -0.1125 -0.1402
  715loPI   GL111101   0.813  11.901   5.777  0.3270  0.0122 -0.3302
  715loPI   GL211102   0.549  11.738   6.010 -0.0383  0.0293  0.1844
  715loPI   C1A11103   0.994  11.949   6.143  0.0827  0.0977  0.2873
  715loPI   C2A11104   1.047  12.069   6.530 -0.0480  0.0887  0.0477
  715loPI   C3A11105   0.882  12.064   6.883  0.0745  0.2269  0.1836
  715loPI   C4A11106   0.939  11.983   7.268 -0.2706 -0.3433  0.2043
  715loPI   C5A11107   0.798  12.055   7.651 -0.1156 -0.2002  0.0735
  715loPI   C6A11108   0.721  12.212   8.033  0.1545 -0.0841 -0.0285
  715loPI   C1B11109   0.537  11.910   6.401 -0.0093  0.3343  0.2843
  715loPI   C2B11110   0.405  11.951   6.813 -0.0389  0.1729 -0.0573
  715loPI   C3B11111   0.430  11.917   7.271 -0.1644  0.2856  0.1305
  715loPI   C4B11112   0.317  11.920   7.760 -0.1521  0.0396  0.2384
  716loPI    C111113   5.980  15.215   5.528 -0.3396 -0.1359 -0.0306
  716loPI    C211114   5.766  15.551   5.496 -0.1513 -0.0266 -0.1618
  716loPI    C311115   5.693  15.243   5.251 -0.1233  0.0304 -0.2422
  716loPI   PO411116   6.037  15.185   5.767  0.1567  0.3759  0.0106
  716loPI   GL111117   6.101  14.961   6.024 -0.1844  0.1163  0.0734
  716loPI   GL211118   6.129  15.365   6.223  0.0711 -0.0957  0.0398
  716loPI   C1A11119   6.008  14.805   6.474  0.0259 -0.1537  0.1843
  716loPI   C2A11120   6.037  14.875   6.875 -0.0820 -0.1989  0.1026
  716loPI   C3A11121   6.024  14.838   7.289 -0.1072  0.0926 -0.3070
  716loPI   C4A11122   5.959  14.847   7.699 -0.1931  0.1337 -0.0376
  716loPI   C5A11123   5.919  14.821   8.184 -0.1452  0.2606  0.2189
  716loPI   C6A11124   5.804  14.787   8.654  0.0573 -0.1332  0.0102
  716loPI   C1B11125   6.069  15.298   6.619  0.2493 -0.0573 -0.4631
  716loPI   C2B11126   6.167  15.386   7.032 -0.0767  0.2185 -0.0202
  716loPI   C3B11127   6.085  15.308   7.520  0.2020 -0.0769 -0.0083
  716loPI   C4B11128   6.047  15.275   7.909 -0.1031 -0.1769 -0.1532
  717loPI    C111129  12.287   9.323   5.559  0.1920 -0.0987 -0.0252
  717loPI    C211130  12.447   9.034   5.334 -0.1160 -0.2031 -0.1145
  717loPI    C311131  12.085   9.179   5.246 -0.1555 -0.1056  0.1970
  717loPI   PO411132  12.438   9.254   5.854 -0.1221  0.0116 -0.0565
  717loPI   GL111133  12.739   9.302   6.277 -0.1791  0.0163  0.1331
  717loPI   GL211134  12.887   9.020   6.219 -0.2181  0.0683  0.1114
  717loPI   C1A11135  12.497   9.455   6.633  0.4178 -0.1395  0.1032
  717loPI   C2A11136  12.649   9.521   7.023 -0.2148 -0.3520  0.0295
  717loPI   C3A11137  12.525   9.417   7.371 -0.1337  0.2166 -0.2234
  717loPI   C4A11138  12.518   9.354   7.903 -0.0091  0.2785  0.1503
  717loPI   C5A11139  12.478   9.383   8.294  0.2915  0.0535  0.2499
  717loPI   C6A11140  12.790   9.262   8.646  0.0616  0.1150  0.0709
  717loPI   C1B11141  12.973   9.192   6.744 -0.2890  0.0264 -0.0206
  717loPI   C2B11142  12.872   9.132   7.168  0.2280  0.0476  0.1469
  717loPI   C3B11143  12.904   9.031   7.591  0.0019  0.1256  0.1457
  717loPI   C4B11144  12.778   8.868   8.029 -0.0850  0.1261  0.2479
  718loPI    C111145  15.176   1.990   5.740 -0.0311 -0.1660 -0.0374
  718loPI    C211146  14.801   2.035   5.607 -0.0787 -0.2166  0.0787
  718loPI    C311147  15.107   2.043   5.349 -0.1322  0.1527  0.0206
  718loPI   PO411148  15.158   2.101   5.995 -0.0803  0.1712  0.0170
  718loPI   GL111149  15.096   2.072   6.432 -0.4114 -0.1335  0.0376
  718loPI   GL211150  15.018   1.780   6.490  0.0506  0.1849  0.0181
  718loPI   C1A11151  15.070   2.258   6.763 -0.1641  0.3321  0.3057
  718loPI   C2A11152  15.135   2.258   7.156  0.1933  0.2590  0.3573
  718loPI   C3A11153  15.136   2.321   7.478  0.1035  0.3062 -0.1694
  718loPI   C4A11154  15.172   2.330   7.952 -0.1661 -0.2647 -0.2745
  718loPI   C5A11155  15.076   2.347   8.397 -0.0460  0.4852  0.0544
  718loPI   C6A11156  14.898   2.772   8.651  0.1760  0.0032  0.1189
  718loPI   C1B11157  14.984   1.697   6.854 -0.2263  0.0628  0.2310
  718loPI   C2B11158  14.980   1.807   7.313  0.1644 -0.1554 -0.1320
  718loPI   C3B11159  15.084   1.808   7.728 -0.1758 -0.0297 -0.3378
  718loPI   C4B11160  15.101   1.869   8.091 -0.2562 -0.0423  0.1653
  719loPI    C111161  11.704  12.275   5.681 -0.1618  0.0172  0.0634
  719loPI    C211162  11.871  12.601   5.519  0.0427 -0.2380 -0.2512
  719loPI    C311163  11.493  12.505   5.430  0.0132 -0.1409 -0.2327
  719loPI   PO411164  11.687  12.216   6.006 -0.0626  0.0270 -0.3699
  719loPI   GL111165  11.591  11.874   6.319  0.3559 -0.1229  0.0712
  719loPI   GL211166  11.824  11.921   6.451 -0.1352  0.1179 -0.1265
  719loPI   C1A11167  11.480  11.621   6.722  0.3404 -0.0071 -0.2701
  719loPI   C2A11168  11.442  11.460   7.119 -0.1737 -0.0036 -0.2139
  719loPI   C3A11169  11.591  11.530   7.563  0.1742 -0.0968 -0.1146
  719loPI   C4A11170  11.593  11.511   7.965  0.2671 -0.1659 -0.1650
  719loPI   C5A11171  11.900  11.648   8.264 -0.2504  0.0674  0.1048
  719loPI   C6A11172  12.348  11.659   8.524 -0.2862 -0.3055  0.4757
  719loPI   C1B11173  11.660  12.086   6.835 -0.1153  0.0222 -0.1300
  719loPI   C2B11174  11.566  11.938   7.242  0.2527 -0.0117 -0.0338
  719loPI   C3B11175  11.629  12.044   7.633 -0.0773 -0.1941 -0.0451
  719loPI   C4B11176  11.732  12.079   8.055 -0.2028  0.1023  0.2186
  720loPI    C111177   7.836  17.216   5.634 -0.1549 -0.2500 -0.0177
  720loPI    C211178   7.513  17.452   5.643 -0.0054 -0.0387 -0.0989
  720loPI    C311179   7.684  17.360   5.293 -0.0096 -0.1957 -0.0605
  720loPI   PO411180   7.924  17.293   5.876  0.1654  0.0043  0.3834
  720loPI   GL111181   7.730  17.265   6.193 -0.1834 -0.2115 -0.0262
  720loPI   GL211182   7.387  17.160   6.341 -0.0196 -0.3139 -0.0053
  720loPI   C1A11183   7.880  17.390   6.629  0.0498  0.1005 -0.1237
  720loPI   C2A11184   7.938  17.411   7.111 -0.1194 -0.1069 -0.2875
  720loPI   C3A11185   7.869  17.415   7.491  0.0008 -0.0070  0.0341
  720loPI   C4A11186   7.928  17.377   7.872 -0.0663 -0.0578  0.1319
  720loPI   C5A11187   7.732  17.459   8.264 -0.0709 -0.0715 -0.2442
  720loPI   C6A11188   7.626  17.342   8.722  0.1408 -0.1287  0.0047
  720loPI   C1B11189   7.432  17.196   6.765  0.0260 -0.0297 -0.0632
  720loPI   C2B11190   7.472  17.187   7.198 -0.0811  0.0967 -0.2857
  720loPI   C3B11191   7.453  17.237   7.655  0.2314  0.1192 -0.0590
  720loPI   C4B11192   7.388  17.183   7.997  0.2429  0.1389  0.2371
  721loPI    C111193  13.385   1.647   5.796 -0.0659  0.1096  0.1512
  721loPI    C211194  13.021   1.494   5.733 -0.0835  0.1270  0.2100
  721loPI    C311195  13.289   1.502   5.436 -0.1137  0.0670  0.1811
  721loPI   PO411196  13.369   1.861   5.943 -0.1596  0.1037 -0.2155
  721loPI   GL111197  13.366   2.142   6.331 -0.1328 -0.1995 -0.2020
  721loPI   GL211198  13.088   2.258   6.318  0.0627  0.3450  0.0158
  721loPI   C1A11199  13.350   2.143   6.794  0.0438  0.0968  0.1272
  721loPI   C2A11200  13.360   2.133   7.321 -0.0552 -0.0330  0.2530
  721loPI   C3A11201  13.378   2.190   7.749 -0.1325  0.1660  0.1211
  721loPI   C4A11202  13.320   2.183   8.180 -0.0632  0.0499 -0.1156
  721loPI   C5A11203  13.090   2.415   8.535 -0.0658  0.1431 -0.1883
  721loPI   C6A11204  12.714   2.177   8.736  0.2624  0.0848 -0.1628
  721loPI   C1B11205  12.979   2.414   6.690  0.0480 -0.1179 -0.0762
  721loPI   C2B11206  12.908   2.544   7.205 -0.0746 -0.0072  0.1252
  721loPI   C3B11207  12.918   2.499   7.631  0.1781  0.0580  0.2158
  721loPI   C4B11208  13.030   2.496   7.976  0.2577 -0.0937 -0.2570
  722loPI    C111209  16.691  16.829   5.610  0.1817 -0.0135 -0.1570
  722loPI    C211210  16.857  17.187   5.672 -0.0906  0.0884  0.0042
  722loPI    C311211  16.569  17.145   5.398  0.0717 -0.0492 -0.1479
  722loPI   PO411212  16.659  16.740   5.921 -0.3151 -0.5404  0.0529
  722loPI   GL111213  16.427  16.793   6.319  0.0386  0.0283  0.1642
  722loPI   GL211214  16.785  16.651   6.368  0.0587  0.1513 -0.0464
  722loPI   C1A11215  16.314  17.105   6.699  0.1005  0.1716 -0.0768
  722loPI   C2A11216  16.386  17.042   7.114 -0.2102  0.2019  0.0832
  722loPI   C3A11217  16.363  17.027   7.472 -0.0414 -0.1182 -0.0553
  722loPI   C4A11218  16.371  16.986   7.911  0.1207 -0.0341 -0.1916
  722loPI   C5A11219  16.276  16.775   8.431 -0.2731 -0.1051  0.0108
  722loPI   C6A11220  16.552  16.612   8.736  0.2172 -0.1032  0.1325
  722loPI   C1B11221  16.682  16.757   6.815  0.1977 -0.4134  0.0760
  722loPI   C2B11222  16.690  16.653   7.323  0.0139 -0.0469 -0.0828
  722loPI   C3B11223  16.812  16.730   7.721 -0.0877  0.0621 -0.0990
  722loPI   C4B11224  16.765  16.636   8.175  0.0192 -0.0894 -0.0841
  723loPI    C111225   3.140   6.893   5.316 -0.0793  0.0666 -0.1201
  723loPI    C211226   2.831   6.646   5.258  0.0677 -0.1137 -0.1446
  723loPI    C311227   2.988   6.845   4.949 -0.1984  0.1920 -0.0881
  723loPI   PO411228   3.204   6.815   5.571 -0.2153  0.0017 -0.1278
  723loPI   GL111229   3.241   6.796   6.053  0.2063  0.3178  0.0623
  723loPI   GL211230   3.169   7.121   5.979 -0.1059 -0.0153 -0.1082
  723loPI   C1A11231   3.109   6.781   6.479 -0.0037 -0.0645  0.1542
  723loPI   C2A11232   3.078   6.695   6.872 -0.3246  0.3321  0.1240
  723loPI   C3A11233   2.972   6.760   7.259 -0.1350 -0.2834  0.0394
  723loPI   C4A11234   3.121   6.694   7.575  0.0980  0.0889  0.1175
  723loPI   C5A11235   3.165   6.804   7.979  0.2578  0.0365  0.0844
  723loPI   C6A11236   3.245   7.128   8.260 -0.2196  0.0780 -0.0526
  723loPI   C1B11237   3.162   7.279   6.408  0.2931  0.3103  0.0160
  723loPI   C2B11238   3.274   7.285   6.858 -0.0459  0.1341  0.0514
  723loPI   C3B11239   3.238   7.189   7.234 -0.0463 -0.2321  0.2231
  723loPI   C4B11240   3.208   7.240   7.715 -0.0155 -0.1328  0.2290
  724loPI    C111241  16.782   4.595   5.811  0.0526  0.1828  0.0435
  724loPI    C211242  16.452   4.782   5.684 -0.0313 -0.0769 -0.1285
  724loPI    C311243  16.728   4.661   5.421  0.0779 -0.0917 -0.0084
  724loPI   PO411244  16.687   4.452   5.995  0.1281  0.0375 -0.2899
  724loPI   GL111245  16.722   4.448   6.422 -0.4836 -0.1435 -0.2584
  724loPI   GL211246  16.466   4.317   6.452  0.0597 -0.0223 -0.0812
  724loPI   C1A11247  16.824   4.461   6.820 -0.0843  0.1045 -0.0553
  724loPI   C2A11248  16.912   4.475   7.295  0.2575 -0.3512  0.1237
  724loPI   C3A11249  16.940   4.442   7.666  0.1020 -0.0651 -0.3968
  724loPI   C4A11250  16.943   4.228   8.004  0.3189  0.1065  0.1681
  724loPI   C5A11251  16.737   4.073   8.409  0.0469 -0.0564  0.0177
  724loPI   C6A11252  16.652   3.815   8.674  0.0623  0.1435 -0.1025
  724loPI   C1B11253  16.392   4.193   6.852  0.4098 -0.0171  0.2630
  724loPI   C2B11254  16.368   4.092   7.269 -0.2551  0.1703 -0.2423
  724loPI   C3B11255  16.440   4.152   7.671 -0.0712  0.2497 -0.0769
  724loPI   C4B11256  16.365   4.140   8.136  0.0494 -0.0537 -0.1880
  725loPI    C111257  11.962   9.660   5.727 -0.0332  0.0277  0.1333
  725loPI    C211258  11.654   9.465   5.563  0.0277  0.0790 -0.0450
  725loPI    C311259  11.898   9.682   5.332  0.0817  0.1989  0.1232
  725loPI   PO411260  12.048   9.568   5.946 -0.0651  0.0388 -0.1164
  725loPI   GL111261  11.932   9.663   6.295 -0.0460 -0.0947 -0.1492
  725loPI   GL211262  12.168   9.874   6.376 -0.0769  0.1411  0.0698
  725loPI   C1A11263  11.592   9.604   6.621  0.1919 -0.0036  0.2602
  725loPI   C2A11264  11.599   9.547   7.040 -0.0813  0.1713 -0.1398
  725loPI   C3A11265  11.686   9.651   7.468 -0.0477 -0.0314 -0.0265
  725loPI   C4A11266  11.614   9.525   7.916 -0.1647  0.4299 -0.1895
  725loPI   C5A11267  11.481   9.585   8.307 -0.1499  0.2066  0.3359
  725loPI   C6A11268  11.483   9.370   8.700 -0.2339 -0.1813  0.2757
  725loPI   C1B11269  12.142   9.773   6.835  0.0496 -0.2523 -0.1541
  725loPI   C2B11270  12.151   9.774   7.299 -0.1234 -0.2314 -0.1049
  725loPI   C3B11271  12.134   9.686   7.716 -0.2982 -0.1323  0.3494
  725loPI   C4B11272  12.077   9.621   8.125  0.1070 -0.1409  0.0651
  726loPI    C111273   3.572   3.242   5.554  0.0281  0.0677 -0.1979
  726loPI    C211274   3.406   2.940   5.350 -0.0405  0.0668 -0.1413
  726loPI    C311275   3.779   3.057   5.266  0.1444 -0.3124  0.1199
  726loPI   PO411276   3.447   3.201   5.816  0.0585  0.0481  0.0164
  726loPI   GL111277   3.333   3.095   6.254  0.0369  0.3972  0.0025
  726loPI   GL211278   3.114   3.268   6.409 -0.3488 -0.0403 -0.3564
  726loPI   C1A11279   3.471   3.018   6.626 -0.0263 -0.0751 -0.4323
  726loPI   C2A11280   3.417   2.966   6.990  0.0781  0.0511  0.2766
  726loPI   C3A11281   3.515   2.902   7.377  0.0307  0.0699  0.1962
  726loPI   C4A11282   3.492   2.904   7.811  0.2286  0.0229  0.0749
  726loPI   C5A11283   3.455   2.770   8.259  0.2153 -0.0843 -0.2580
  726loPI   C6A11284   3.298   2.488   8.600 -0.2615 -0.1229  0.0006
  726loPI   C1B11285   3.006   3.243   6.832 -0.1007  0.1843  0.3810
  726loPI   C2B11286   3.144   3.273   7.325  0.0870 -0.2031 -0.0649
  726loPI   C3B11287   3.087   3.224   7.746 -0.0831 -0.1227 -0.0157
  726loPI   C4B11288   3.081   3.190   8.231  0.0342 -0.2483  0.0078
  727loPI    C111289  16.243  12.752   5.792 -0.0695 -0.0122 -0.3207
  727loPI    C211290  16.355  13.101   5.952 -0.1108 -0.1858  0.0984
  727loPI    C311291  16.139  13.096   5.615  0.0797  0.1835 -0.0349
  727loPI   PO411292  16.211  12.611   5.926  0.0907 -0.2455 -0.1570
  727loPI   GL111293  16.298  12.348   6.234  0.0405 -0.0560 -0.0815
  727loPI   GL211294  16.445  12.068   6.170  0.0021 -0.0319 -0.0507
  727loPI   C1A11295  16.395  12.243   6.683 -0.1693 -0.0427 -0.1496
  727loPI   C2A11296  16.331  12.264   7.217 -0.0899 -0.0918  0.0149
  727loPI   C3A11297  16.292  12.200   7.753  0.3122 -0.0200  0.3771
  727loPI   C4A11298  16.534  12.041   7.983 -0.2225 -0.0347  0.1932
  727loPI   C5A11299  16.821  11.754   7.978 -0.0377  0.3461 -0.1723
  727loPI   C6A11300  17.087  11.419   8.055  0.2295  0.2837  0.2110
  727loPI   C1B11301  16.680  11.856   6.454 -0.1157  0.0020  0.1262
  727loPI   C2B11302  16.785  11.723   6.839 -0.2823 -0.0208  0.1755
  727loPI   C3B11303  17.093  11.595   7.147  0.2065 -0.3073 -0.0806
  727loPI   C4B11304  17.005  11.517   7.521  0.0038 -0.1548 -0.1789
  728loPI    C111305   9.932   8.672   5.523  0.1495  0.0373 -0.2193
  728loPI    C211306   9.601   8.471   5.422  0.2487 -0.2535  0.0176
  728loPI    C311307   9.822   8.649   5.139 -0.2668  0.2022 -0.1153
  728loPI   PO411308   9.969   8.514   5.756 -0.1226  0.0176 -0.2968
  728loPI   GL111309  10.023   8.340   6.097  0.0356  0.3388  0.0317
  728loPI   GL211310   9.694   8.368   6.258  0.2356  0.2436 -0.4001
  728loPI   C1A11311  10.060   8.489   6.575 -0.0302 -0.2425  0.2460
  728loPI   C2A11312  10.041   8.553   7.033  0.0206  0.0494  0.1945
  728loPI   C3A11313  10.022   8.535   7.453  0.0392 -0.0973  0.0525
  728loPI   C4A11314   9.962   8.594   7.765 -0.0889  0.1407  0.2091
  728loPI   C5A11315   9.944   8.545   8.192  0.0488  0.0880  0.0953
  728loPI   C6A11316   9.954   8.851   8.515  0.1177 -0.0868 -0.0481
  728loPI   C1B11317   9.554   8.360   6.724  0.3041 -0.1022  0.2148
  728loPI   C2B11318   9.561   8.397   7.115  0.0521  0.1136 -0.1485
  728loPI   C3B11319   9.539   8.404   7.538 -0.1080 -0.0688 -0.2330
  728loPI   C4B11320   9.528   8.423   7.958 -0.2207 -0.0425  0.1811
  729loPI    C111321   5.658  14.831   5.502  0.1136 -0.2385  0.1428
  729loPI    C211322   5.332  14.610   5.431 -0.0740  0.0208  0.1795
  729loPI    C311323   5.617  14.642   5.151 -0.0598 -0.2369  0.1615
  729loPI   PO411324   5.753  14.761   5.715 -0.0477 -0.2521  0.1649
  729loPI   GL111325   5.549  14.707   6.107  0.0410  0.1360 -0.1152
  729loPI   GL211326   5.224  14.712   5.887  0.1926  0.1905 -0.2470
  729loPI   C1A11327   5.461  14.708   6.525 -0.0208 -0.2976 -0.3667
  729loPI   C2A11328   5.425  14.737   6.940 -0.1747  0.2585 -0.0123
  729loPI   C3A11329   5.563  14.691   7.366  0.0566 -0.1558 -0.3099
  729loPI   C4A11330   5.494  14.625   7.784  0.3001  0.1739 -0.1760
  729loPI   C5A11331   5.348  14.753   8.173  0.1747 -0.0104  0.1933
  729loPI   C6A11332   5.091  15.155   8.303  0.1230 -0.2058  0.0993
  729loPI   C1B11333   5.051  14.600   6.281 -0.1056  0.0101 -0.1568
  729loPI   C2B11334   4.960  14.519   6.713  0.0535  0.0036 -0.1177
  729loPI   C3B11335   4.900  14.482   7.192 -0.1844  0.2437 -0.0400
  729loPI   C4B11336   5.040  14.500   7.572 -0.1024  0.2859 -0.5477
  730loPI    C111337   1.285  10.729   5.521  0.0590 -0.1285  0.1752
  730loPI    C211338   1.270  11.091   5.352  0.2999 -0.1961  0.0030
  730loPI    C311339   1.067  10.786   5.191  0.1686 -0.1594  0.0970
  730loPI   PO411340   1.239  10.833   5.775 -0.3585 -0.2640 -0.1811
  730loPI   GL111341   1.069  10.780   6.110 -0.1382  0.1351 -0.1797
  730loPI   GL211342   1.282  10.661   6.302 -0.1085 -0.0027  0.0292
  730loPI   C1A11343   0.865  10.969   6.370  0.0684  0.2123 -0.1863
  730loPI   C2A11344   0.782  11.107   6.774  0.0740 -0.0464  0.1749
  730loPI   C3A11345   0.717  11.049   7.184  0.1303 -0.1991 -0.1556
  730loPI   C4A11346   0.599  11.040   7.614 -0.0229  0.1032 -0.2523
  730loPI   C5A11347   0.660  11.143   8.055  0.0344  0.0686 -0.4055
  730loPI   C6A11348   0.524  11.196   8.505 -0.2403  0.0096  0.1811
  730loPI   C1B11349   1.174  10.723   6.705  0.2404  0.0275 -0.0075
  730loPI   C2B11350   1.115  10.781   7.132  0.0927  0.2231 -0.0041
  730loPI   C3B11351   1.004  10.697   7.550  0.2742  0.1685 -0.0231
  730loPI   C4B11352   1.038  10.822   7.947 -0.1315 -0.2738  0.2885
  731loPI    C111353  11.487  16.084   5.773 -0.0251  0.1885 -0.0325
  731loPI    C211354  11.182  15.951   5.550  0.1090 -0.0846 -0.0576
  731loPI    C311355  11.441  16.215   5.398  0.0229 -0.0347 -0.1183
  731loPI   PO411356  11.351  16.096   5.996 -0.1950 -0.1203 -0.0162
  731loPI   GL111357  11.190  15.899   6.348  0.0381  0.2295 -0.0717
  731loPI   GL211358  10.943  16.198   6.445 -0.1761  0.2103 -0.0125
  731loPI   C1A11359  11.255  15.763   6.648  0.3857  0.1106  0.0134
  731loPI   C2A11360  11.193  15.764   7.009 -0.0282  0.0949 -0.3793
  731loPI   C3A11361  11.237  15.737   7.481  0.1759  0.0315 -0.2136
  731loPI   C4A11362  11.281  15.876   8.019  0.0324 -0.0968  0.1437
  731loPI   C5A11363  11.532  15.735   8.282  0.0571  0.0118 -0.2210
  731loPI   C6A11364  11.828  15.904   8.559  0.2409  0.2555  0.1075
  731loPI   C1B11365  10.823  16.037   6.823  0.0024 -0.1295  0.0830
  731loPI   C2B11366  10.875  16.057   7.280  0.1654  0.0973  0.1400
  731loPI   C3B11367  10.790  16.105   7.703  0.1347 -0.0511 -0.0623
  731loPI   C4B11368  10.825  16.122   8.160 -0.2123  0.0365 -0.1836
  732loPI    C111369   9.631   1.974   5.643 -0.0999 -0.0531 -0.0885
  732loPI    C211370   9.607   1.624   5.450  0.0282 -0.0965 -0.0269
  732loPI    C311371   9.894   1.885   5.355 -0.0423 -0.0246 -0.0447
  732loPI   PO411372   9.600   1.939   5.955 -0.0979 -0.0430  0.2883
  732loPI   GL111373   9.860   2.022   6.290  0.0018 -0.1194 -0.0785
  732loPI   GL211374  10.124   2.151   6.306  0.1784  0.1247 -0.4397
  732loPI   C1A11375   9.596   1.868   6.559 -0.0893 -0.1751 -0.0062
  732loPI   C2A11376   9.611   1.772   7.083 -0.0702  0.0746 -0.3619
  732loPI   C3A11377   9.672   1.844   7.458  0.2644  0.0024  0.1653
  732loPI   C4A11378   9.665   1.846   7.870  0.0730  0.1568 -0.3010
  732loPI   C5A11379   9.489   1.738   8.175  0.0661  0.1243  0.0976
  732loPI   C6A11380   9.267   1.488   8.474  0.2801  0.1146 -0.0176
  732loPI   C1B11381  10.107   1.986   6.755  0.1313  0.1781 -0.2295
  732loPI   C2B11382  10.097   2.046   7.177 -0.0063 -0.0913  0.1355
  732loPI   C3B11383  10.144   2.031   7.587  0.1329  0.0804 -0.2034
  732loPI   C4B11384  10.147   1.978   8.009 -0.0023 -0.4131 -0.2176
  733loPI    C111385  13.711   6.552   5.645 -0.1275 -0.0196 -0.0103
  733loPI    C211386  13.438   6.531   5.353 -0.0856  0.2463 -0.0712
  733loPI    C311387  13.828   6.511   5.264 -0.0793  0.0564 -0.0040
  733loPI   PO411388  13.651   6.325   5.827 -0.1969 -0.0793 -0.0945
  733loPI   GL111389  13.536   6.231   6.109  0.0520 -0.1583 -0.0301
  733loPI   GL211390  13.757   6.092   6.255  0.0955 -0.1056  0.0033
  733loPI   C1A11391  13.367   6.491   6.487 -0.0487 -0.0240 -0.0995
  733loPI   C2A11392  13.267   6.535   6.921 -0.2449 -0.0075  0.0924
  733loPI   C3A11393  13.303   6.522   7.380 -0.2580 -0.0677 -0.5134
  733loPI   C4A11394  13.149   6.395   7.764 -0.0526  0.2074  0.1618
  733loPI   C5A11395  13.123   6.368   8.227  0.1212  0.0742 -0.3245
  733loPI   C6A11396  13.178   6.141   8.644 -0.0591  0.0786 -0.0223
  733loPI   C1B11397  13.682   6.189   6.688 -0.0539 -0.2022 -0.2664
  733loPI   C2B11398  13.734   6.223   7.069 -0.0231  0.1840  0.1761
  733loPI   C3B11399  13.719   6.170   7.479 -0.0168  0.0996 -0.1418
  733loPI   C4B11400  13.534   6.155   7.968  0.0023 -0.2208 -0.0721
  734loPI    C111401  10.031  15.011   5.568 -0.1273 -0.1156 -0.1015
  734loPI    C211402   9.834  15.108   5.234  0.0579  0.2924 -0.0976
  734loPI    C311403  10.120  14.829   5.224 -0.2263 -0.0010 -0.1887
  734loPI   PO411404   9.945  15.037   5.771  0.0800  0.2406  0.0299
  734loPI   GL111405  10.005  15.087   6.165  0.3020  0.3291 -0.0499
  734loPI   GL211406   9.795  14.819   6.218  0.0230 -0.1778 -0.0274
  734loPI   C1A11407  10.089  14.960   6.622  0.1629  0.0292  0.1675
  734loPI   C2A11408  10.216  14.955   6.928 -0.1423 -0.1528 -0.1600
  734loPI   C3A11409  10.200  14.829   7.385  0.4550  0.1667  0.3885
  734loPI   C4A11410  10.232  14.834   7.872 -0.1924  0.0873 -0.0380
  734loPI   C5A11411  10.373  14.816   8.300 -0.1441 -0.1214 -0.0144
  734loPI   C6A11412  10.660  14.608   8.629  0.1844  0.1924  0.0252
  734loPI   C1B11413   9.645  14.649   6.700  0.1069 -0.1153 -0.0195
  734loPI   C2B11414   9.752  14.727   7.040 -0.0954 -0.1610  0.0457
  734loPI   C3B11415   9.685  14.628   7.442  0.0774  0.3817  0.1049
  734loPI   C4B11416   9.712  14.679   7.817 -0.0739  0.0360  0.0698
  735loPI    C111417   8.275  16.950   5.444  0.0848 -0.0555 -0.0463
  735loPI    C211418   8.542  17.132   5.209 -0.0820  0.2009 -0.0419
  735loPI    C311419   8.181  17.295   5.265 -0.2069 -0.0926  0.0291
  735loPI   PO411420   8.414  16.935   5.737 -0.4407 -0.0871  0.1348
  735loPI   GL111421   8.387  16.751   6.086  0.1528  0.2415 -0.3011
  735loPI   GL211422   8.194  16.978   6.222 -0.0004 -0.1844 -0.0017
  735loPI   C1A11423   8.648  16.730   6.419 -0.1464 -0.0991  0.0456
  735loPI   C2A11424   8.719  16.634   6.772 -0.3922  0.0356  0.0559
  735loPI   C3A11425   8.694  16.621   7.222 -0.0749  0.3580 -0.1046
  735loPI   C4A11426   8.690  16.637   7.745 -0.1132  0.0589  0.0200
  735loPI   C5A11427   8.373  16.451   8.151  0.0719  0.0809  0.0732
  735loPI   C6A11428   8.248  16.417   8.535 -0.0378 -0.0964 -0.2463
  735loPI   C1B11429   8.337  17.034   6.634  0.0478  0.1478  0.0635
  735loPI   C2B11430   8.293  16.942   7.032 -0.2811  0.0669 -0.1284
  735loPI   C3B11431   8.255  17.125   7.488  0.3665 -0.1195 -0.2447
  735loPI   C4B11432   8.330  17.056   7.905  0.0152 -0.1042  0.0460
  736loPI    C111433   6.849  12.718   5.294 -0.1717 -0.1447 -0.0398
  736loPI    C211434   7.174  12.510   5.192  0.0126  0.0752  0.0893
  736loPI    C311435   6.850  12.502   4.957  0.0485 -0.2795  0.0458
  736loPI   PO411436   6.778  12.659   5.603 -0.1122 -0.1004 -0.2123
  736loPI   GL111437   6.655  12.647   6.062  0.1170 -0.0226  0.0420
  736loPI   GL211438   6.895  12.888   6.183  0.1187  0.0350  0.3360
  736loPI   C1A11439   6.539  12.655   6.494 -0.1819  0.2469  0.0360
  736loPI   C2A11440   6.563  12.726   6.962 -0.1803  0.1270  0.2719
  736loPI   C3A11441   6.675  12.581   7.340  0.4595 -0.0550 -0.2778
  736loPI   C4A11442   6.540  12.575   7.682 -0.0505  0.0193 -0.2472
  736loPI   C5A11443   6.492  12.637   8.029  0.1240  0.0445 -0.2087
  736loPI   C6A11444   6.488  12.420   8.439  0.3189 -0.2554 -0.0018
  736loPI   C1B11445   7.120  12.837   6.528  0.1438 -0.0008  0.0380
  736loPI   C2B11446   7.066  12.745   6.940 -0.2767 -0.2918  0.3764
  736loPI   C3B11447   7.144  12.794   7.321  0.1047 -0.3609 -0.0332
  736loPI   C4B11448   7.050  12.736   7.650  0.0544 -0.0960  0.3492
  737loPI    C111449  10.046  14.285   5.509  0.0874  0.0682 -0.1745
  737loPI    C211450  10.413  14.314   5.355  0.1389 -0.2158 -0.1106
  737loPI    C311451  10.114  14.171   5.132  0.0444  0.1038 -0.1930
  737loPI   PO411452  10.077  14.141   5.814  0.4158 -0.1232 -0.0699
  737loPI   GL111453  10.094  14.028   6.152 -0.1106 -0.1143  0.0821
  737loPI   GL211454  10.044  14.387   6.323 -0.0579  0.2480  0.2760
  737loPI   C1A11455   9.956  13.930   6.541 -0.0493 -0.3816 -0.0236
  737loPI   C2A11456   9.958  13.804   6.954  0.1778 -0.1623 -0.0374
  737loPI   C3A11457  10.010  13.818   7.386  0.3265 -0.4953 -0.0777
  737loPI   C4A11458  10.038  13.841   7.910 -0.4261 -0.0340 -0.1220
  737loPI   C5A11459  10.118  13.641   8.352 -0.2301 -0.0570 -0.1507
  737loPI   C6A11460  10.496  13.375   8.362 -0.0650  0.1344  0.1312
  737loPI   C1B11461  10.091  14.442   6.741  0.2989  0.0779  0.0379
  737loPI   C2B11462  10.154  14.392   7.105  0.1964 -0.0150  0.0876
  737loPI   C3B11463  10.115  14.365   7.543 -0.0129 -0.1028  0.0092
  737loPI   C4B11464  10.081  14.338   7.972  0.0155  0.0077  0.1047
  738loPI    C111465   7.740   9.473   5.535 -0.1353  0.1543  0.0383
  738loPI    C211466   7.688   9.763   5.265 -0.1339  0.1050 -0.0150
  738loPI    C311467   7.540   9.397   5.197  0.2441 -0.0273 -0.1517
  738loPI   PO411468   7.946   9.585   5.670  0.0758 -0.0570 -0.0992
  738loPI   GL111469   7.997   9.612   6.225  0.0406  0.0792 -0.0483
  738loPI   GL211470   7.819   9.737   6.436 -0.0542  0.1944 -0.1277
  738loPI   C1A11471   8.276   9.624   6.601 -0.2254 -0.3690 -0.4413
  738loPI   C2A11472   8.261   9.392   7.006 -0.1516  0.0460  0.4251
  738loPI   C3A11473   8.291   9.362   7.448  0.1908  0.1446 -0.0323
  738loPI   C4A11474   8.333   9.347   7.836 -0.0616  0.0598 -0.2853
  738loPI   C5A11475   8.344   9.260   8.200  0.1132 -0.0252  0.1301
  738loPI   C6A11476   8.221   9.062   8.499  0.1708  0.4843  0.2299
  738loPI   C1B11477   7.818   9.663   6.847  0.0651  0.3431  0.1651
  738loPI   C2B11478   7.881   9.591   7.219  0.0085  0.1311 -0.1393
  738loPI   C3B11479   7.935   9.755   7.589  0.0740  0.1420 -0.3951
  738loPI   C4B11480   8.001   9.665   7.975  0.1424  0.1359  0.0496
  739loPI    C111481  16.054  16.282   5.655  0.1799 -0.0865 -0.0766
  739loPI    C211482  16.430  16.394   5.575  0.1254  0.1663  0.0112
  739loPI    C311483  16.268  16.084   5.380  0.3446  0.1182 -0.0987
  739loPI   PO411484  15.981  16.194   5.926  0.0638  0.1165 -0.1943
  739loPI   GL111485  15.981  16.160   6.353 -0.0846  0.2739  0.1450
  739loPI   GL211486  16.060  16.476   6.325  0.0324 -0.5799  0.3538
  739loPI   C1A11487  16.096  16.049   6.753  0.0657  0.1993 -0.1586
  739loPI   C2A11488  16.161  16.018   7.158 -0.0576 -0.1164  0.0053
  739loPI   C3A11489  16.140  16.015   7.611  0.2462 -0.0258 -0.0949
  739loPI   C4A11490  16.264  15.936   8.016  0.1013 -0.1341 -0.1104
  739loPI   C5A11491  16.154  15.835   8.450  0.1502  0.2569 -0.0428
  739loPI   C6A11492  16.404  15.478   8.517  0.0947 -0.2505  0.1334
  739loPI   C1B11493  16.195  16.545   6.738  0.3677  0.1007  0.0288
  739loPI   C2B11494  16.232  16.525   7.221  0.1464 -0.0992  0.4828
  739loPI   C3B11495  16.115  16.551   7.677  0.0104  0.0985  0.0547
  739loPI   C4B11496  16.297  16.467   7.942  0.0594 -0.0391  0.0171
  740loPI    C111497   2.339  12.151   5.266 -0.1903  0.1277 -0.0145
  740loPI    C211498   2.102  12.112   4.946 -0.1748 -0.1228  0.0028
  740loPI    C311499   2.466  11.945   4.948 -0.1113  0.0145  0.0893
  740loPI   PO411500   2.186  12.066   5.546  0.1678  0.0790  0.2693
  740loPI   GL111501   2.248  11.969   5.910 -0.0503  0.2495 -0.0658
  740loPI   GL211502   2.466  12.094   6.165 -0.1420  0.2327 -0.0294
  740loPI   C1A11503   1.972  11.938   6.267  0.0989  0.0932 -0.1481
  740loPI   C2A11504   1.865  11.888   6.686  0.0190  0.1927 -0.0577
  740loPI   C3A11505   1.779  11.853   7.057  0.0949  0.2212  0.1128
  740loPI   C4A11506   1.793  11.884   7.520  0.0897  0.2034 -0.0354
  740loPI   C5A11507   1.790  11.948   7.909  0.1482  0.1581  0.1298
  740loPI   C6A11508   1.633  12.127   8.354  0.1789  0.0077  0.0159
  740loPI   C1B11509   2.323  12.132   6.585  0.0405  0.0234  0.0232
  740loPI   C2B11510   2.230  11.992   6.996  0.2212  0.2194 -0.0968
  740loPI   C3B11511   2.312  12.066   7.389  0.0636 -0.0277 -0.1826
  740loPI   C4B11512   2.285  12.064   7.833  0.3875 -0.2006  0.0567
  741loPI    C111513  15.055  15.287   5.976 -0.0303 -0.0034 -0.1034
  741loPI    C211514  15.306  15.540   5.794  0.1499 -0.2222 -0.1624
  741loPI    C311515  15.022  15.354   5.583 -0.0562  0.0139 -0.0983
  741loPI   PO411516  14.993  15.388   6.207 -0.1680  0.0443  0.1345
  741loPI   GL111517  14.733  15.714   6.341 -0.1494  0.0042 -0.2836
  741loPI   GL211518  14.660  15.503   6.560  0.0708 -0.4237 -0.1443
  741loPI   C1A11519  14.784  15.996   6.738 -0.3610  0.0147 -0.0008
  741loPI   C2A11520  14.830  15.962   7.225  0.0055  0.2478 -0.2281
  741loPI   C3A11521  14.863  16.065   7.652 -0.1185  0.0770 -0.1917
  741loPI   C4A11522  14.717  15.931   8.111 -0.0566 -0.2148  0.0075
  741loPI   C5A11523  14.416  15.725   8.373  0.4564 -0.0817  0.0072
  741loPI   C6A11524  13.994  15.510   8.531 -0.1409  0.1382  0.1015
  741loPI   C1B11525  14.561  15.620   7.003 -0.1597 -0.0999  0.1025
  741loPI   C2B11526  14.148  15.700   7.231  0.2385  0.0540 -0.1199
  741loPI   C3B11527  13.898  15.559   7.627  0.0405  0.2893  0.1780
  741loPI   C4B11528  13.568  15.237   7.676  0.2495  0.1906 -0.0736
  742loPI    C111529  11.991   8.652   5.309  0.0677  0.3551 -0.0250
  742loPI    C211530  12.252   8.735   5.018  0.2162  0.1494  0.0471
  742loPI    C311531  12.044   8.394   5.009  0.2047  0.1527  0.1700
  742loPI   PO411532  12.130   8.692   5.524  0.2982 -0.1441 -0.3195
  742loPI   GL111533  12.257   8.807   5.990  0.1280  0.0001 -0.0392
  742loPI   GL211534  12.183   8.573   6.190  0.3347  0.2124 -0.2318
  742loPI   C1A11535  12.403   8.973   6.419  0.0544  0.0073  0.0665
  742loPI   C2A11536  12.470   9.031   6.814 -0.0536 -0.0101  0.2190
  742loPI   C3A11537  12.430   8.916   7.227 -0.0949 -0.1568  0.1596
  742loPI   C4A11538  12.414   8.825   7.641  0.1440  0.1062 -0.0301
  742loPI   C5A11539  12.287   8.798   8.113 -0.1835 -0.0219 -0.0319
  742loPI   C6A11540  12.214   8.441   8.339  0.2059  0.0325 -0.0274
  742loPI   C1B11541  12.261   8.504   6.559 -0.2029  0.0749 -0.2851
  742loPI   C2B11542  12.362   8.445   6.915 -0.2201 -0.1722 -0.0976
  742loPI   C3B11543  12.300   8.327   7.307  0.1790  0.2299 -0.1275
  742loPI   C4B11544  12.335   8.363   7.822 -0.1991 -0.1661 -0.0827
  743loPI    C111545   1.409  12.617   5.197 -0.0472  0.0583 -0.1585
  743loPI    C211546   1.761  12.806   5.196  0.0227 -0.0671  0.0544
  743loPI    C311547   1.435  12.990   5.055  0.1233  0.1453  0.0945
  743loPI   PO411548   1.336  12.507   5.470  0.0821  0.1379  0.1847
  743loPI   GL111549   1.276  12.549   5.898 -0.1308 -0.0553  0.0946
  743loPI   GL211550   1.238  12.286   5.906  0.2412  0.1787  0.1983
  743loPI   C1A11551   1.074  12.530   6.329  0.4300 -0.2455  0.0704
  743loPI   C2A11552   1.042  12.525   6.773 -0.0772 -0.1891  0.0919
  743loPI   C3A11553   0.981  12.466   7.164  0.0201 -0.2704 -0.0819
  743loPI   C4A11554   0.955  12.562   7.595  0.2561 -0.0950  0.0809
  743loPI   C5A11555   0.972  12.662   8.034  0.5505 -0.0731 -0.1898
  743loPI   C6A11556   0.830  12.616   8.353  0.1701  0.1968  0.0040
  743loPI   C1B11557   1.452  12.281   6.476  0.1013  0.2651  0.0087
  743loPI   C2B11558   1.519  12.211   6.900  0.0640  0.0127 -0.0429
  743loPI   C3B11559   1.420  12.271   7.372  0.2433  0.0875 -0.1361
  743loPI   C4B11560   1.351  12.250   7.850  0.0826  0.2372 -0.1596
  744loPI    C111561   0.747   9.103   5.372 -0.1217  0.0193  0.0194
  744loPI    C211562   0.783   9.490   5.278 -0.1521 -0.0199 -0.1551
  744loPI    C311563   0.452   9.289   5.177 -0.2459 -0.0282  0.1599
  744loPI   PO411564   0.807   9.038   5.556 -0.0929 -0.0488 -0.1364
  744loPI   GL111565   0.869   9.051   6.021 -0.2233  0.0897 -0.3437
  744loPI   GL211566   1.152   8.970   5.954 -0.0422  0.2692 -0.0991
  744loPI   C1A11567   0.794   9.240   6.522  0.0529  0.0278  0.1520
  744loPI   C2A11568   0.856   9.160   6.974  0.0565  0.2918 -0.4910
  744loPI   C3A11569   0.789   9.178   7.426  0.2326 -0.3647 -0.2215
  744loPI   C4A11570   0.714   9.042   7.811 -0.0581 -0.1107 -0.0549
  744loPI   C5A11571   0.866   9.343   8.134 -0.2980 -0.1449  0.1405
  744loPI   C6A11572   0.644   9.727   8.228 -0.3036  0.0449  0.1070
  744loPI   C1B11573   1.122   8.815   6.405 -0.3368  0.0362 -0.0833
  744loPI   C2B11574   1.248   8.891   6.841 -0.1062 -0.0367 -0.1756
  744loPI   C3B11575   1.139   8.863   7.267 -0.0246 -0.2535 -0.2293
  744loPI   C4B11576   1.261   8.876   7.698 -0.2003  0.3297  0.1486
  745loPI    C111577  14.120   9.400   5.445  0.1059  0.0801  0.0233
  745loPI    C211578  14.124   9.564   5.080 -0.0829 -0.3698 -0.1878
  745loPI    C311579  13.779   9.440   5.240  0.0488 -0.5222 -0.0164
  745loPI   PO411580  14.199   9.518   5.584 -0.2625 -0.1715  0.3643
  745loPI   GL111581  14.273   9.440   6.045  0.0184  0.0070  0.1772
  745loPI   GL211582  13.896   9.456   6.043  0.1127  0.0775 -0.0222
  745loPI   C1A11583  14.260   9.277   6.377  0.2922 -0.0185 -0.0302
  745loPI   C2A11584  14.322   9.295   6.793  0.1854  0.2259 -0.1216
  745loPI   C3A11585  14.263   9.217   7.245 -0.1546  0.0715  0.0610
  745loPI   C4A11586  14.372   9.185   7.671 -0.1132  0.0180 -0.2197
  745loPI   C5A11587  14.450   9.549   7.981 -0.0634 -0.2035 -0.0824
  745loPI   C6A11588  14.796   9.826   8.139 -0.2786 -0.1483  0.0215
  745loPI   C1B11589  13.891   9.595   6.416  0.0324  0.2118  0.2172
  745loPI   C2B11590  13.779   9.657   6.792 -0.0477  0.0726  0.2384
  745loPI   C3B11591  13.865   9.509   7.197 -0.3696 -0.0651  0.0667
  745loPI   C4B11592  13.891   9.467   7.583  0.0738 -0.0750  0.0474
  746loPI    C111593   3.836   2.792   5.642  0.1731 -0.0094  0.0519
  746loPI    C211594   3.689   2.478   5.841 -0.0503  0.0399 -0.0332
  746loPI    C311595   3.621   2.516   5.448  0.1188  0.1077 -0.0565
  746loPI   PO411596   4.052   2.822   5.677  0.1845  0.2030 -0.2761
  746loPI   GL111597   4.213   2.671   6.072  0.1925  0.2805  0.0677
  746loPI   GL211598   4.521   2.700   5.954  0.0256 -0.2657  0.0998
  746loPI   C1A11599   4.227   2.335   6.470 -0.2031 -0.2275  0.0552
  746loPI   C2A11600   4.252   2.225   6.784  0.0271  0.0581  0.0259
  746loPI   C3A11601   4.276   2.157   7.160 -0.0223  0.4211 -0.0661
  746loPI   C4A11602   4.295   2.250   7.557  0.0598  0.0717 -0.1752
  746loPI   C5A11603   4.280   2.205   7.970  0.1433 -0.1213  0.2012
  746loPI   C6A11604   4.235   1.835   8.303  0.1145  0.1951  0.1558
  746loPI   C1B11605   4.651   2.577   6.440  0.1185  0.4001 -0.1409
  746loPI   C2B11606   4.706   2.392   6.782 -0.1455  0.3296 -0.0967
  746loPI   C3B11607   4.708   2.484   7.259 -0.0072 -0.0588 -0.0335
  746loPI   C4B11608   4.771   2.390   7.730  0.0630  0.0481  0.1632
  747loPI    C111609   3.227   3.628   5.639 -0.0156 -0.0134 -0.1486
  747loPI    C211610   3.334   3.833   5.313 -0.1790  0.0759 -0.1472
  747loPI    C311611   3.125   3.494   5.276 -0.4043  0.2107 -0.1278
  747loPI   PO411612   3.321   3.709   5.834  0.5072 -0.0812 -0.0958
  747loPI   GL111613   3.452   3.637   6.220 -0.1778 -0.2730 -0.0791
  747loPI   GL211614   3.673   3.458   6.411  0.0788  0.0832 -0.1977
  747loPI   C1A11615   3.572   3.949   6.594 -0.0694 -0.1337 -0.0326
  747loPI   C2A11616   3.619   3.984   6.967 -0.0806 -0.0451 -0.0437
  747loPI   C3A11617   3.707   4.047   7.389  0.2202  0.1880 -0.1745
  747loPI   C4A11618   3.632   3.870   7.840 -0.1243 -0.2346 -0.1619
  747loPI   C5A11619   3.650   3.769   8.338 -0.0066  0.0641 -0.2358
  747loPI   C6A11620   3.944   4.031   8.558 -0.0111 -0.1724 -0.0796
  747loPI   C1B11621   3.502   3.459   6.884  0.0272  0.1138 -0.2757
  747loPI   C2B11622   3.605   3.517   7.275 -0.0440 -0.0501 -0.0556
  747loPI   C3B11623   3.628   3.394   7.669  0.2815 -0.0303 -0.1597
  747loPI   C4B11624   3.541   3.345   8.005 -0.0560  0.0163 -0.0807
  748loPI    C111625   3.689  16.112   5.311 -0.1056 -0.0854  0.0352
  748loPI    C211626   3.479  16.378   5.522 -0.2778 -0.0467 -0.1809
  748loPI    C311627   3.597  16.467   5.151  0.2269 -0.0214 -0.0217
  748loPI   PO411628   3.825  15.920   5.507 -0.0705  0.2557 -0.0490
  748loPI   GL111629   3.780  15.977   5.953  0.0337  0.0973  0.0355
  748loPI   GL211630   3.960  15.828   6.094 -0.3584  0.0935 -0.0501
  748loPI   C1A11631   3.600  16.177   6.293  0.1463 -0.0317 -0.1814
  748loPI   C2A11632   3.529  16.310   6.702 -0.0788  0.0186  0.4443
  748loPI   C3A11633   3.646  16.419   7.113 -0.0824  0.0270 -0.1265
  748loPI   C4A11634   3.645  16.332   7.589  0.0509  0.0845 -0.1032
  748loPI   C5A11635   3.584  16.330   7.990 -0.0130  0.0075  0.2168
  748loPI   C6A11636   3.803  16.264   8.323  0.2285 -0.0968 -0.2673
  748loPI   C1B11637   3.982  16.003   6.557 -0.0240  0.0329 -0.0469
  748loPI   C2B11638   4.022  16.067   6.953  0.0332  0.1407  0.0556
  748loPI   C3B11639   4.001  16.017   7.385 -0.1764  0.1300 -0.0855
  748loPI   C4B11640   4.040  16.000   7.876 -0.0496  0.2600 -0.1267
  749loPI    C111641  15.728   4.554   5.951  0.0845 -0.1100 -0.0922
  749loPI    C211642  15.930   4.681   5.631  0.0055  0.1409 -0.0444
  749loPI    C311643  15.531   4.665   5.621  0.0088  0.0221 -0.0032
  749loPI   PO411644  15.742   4.685   6.169 -0.0431  0.0892 -0.0705
  749loPI   GL111645  15.668   4.849   6.446  0.0740  0.0573 -0.2471
  749loPI   GL211646  15.874   5.002   6.678 -0.0392  0.3044  0.0010
  749loPI   C1A11647  15.608   4.493   6.738  0.1751  0.0865 -0.1770
  749loPI   C2A11648  15.568   4.334   7.153  0.0020  0.2303  0.3124
  749loPI   C3A11649  15.544   4.318   7.551 -0.0568  0.0125 -0.2019
  749loPI   C4A11650  15.564   4.308   7.963 -0.1095 -0.3411  0.1867
  749loPI   C5A11651  15.530   4.354   8.429  0.1006  0.2230  0.2409
  749loPI   C6A11652  15.777   4.335   8.813  0.1131  0.1200  0.1228
  749loPI   C1B11653  15.716   4.884   7.054  0.1657 -0.1441  0.2943
  749loPI   C2B11654  15.609   4.838   7.466  0.1596 -0.1868 -0.1150
  749loPI   C3B11655  15.706   4.808   7.809  0.0817  0.3646 -0.2499
  749loPI   C4B11656  15.771   4.812   8.208 -0.0138  0.0132 -0.0974
  750loPI    C111657  14.569   3.197   5.633  0.0863  0.2458 -0.0440
  750loPI    C211658  14.698   3.532   5.455  0.2597  0.1383 -0.1227
  750loPI    C311659  14.808   3.174   5.313 -0.0163  0.0452 -0.1081
  750loPI   PO411660  14.708   3.270   5.936 -0.0495 -0.2068  0.3432
  750loPI   GL111661  14.752   3.452   6.301  0.2763  0.2225 -0.2620
  750loPI   GL211662  14.587   3.474   6.465 -0.1165  0.1544  0.1362
  750loPI   C1A11663  14.882   3.135   6.635  0.3152 -0.3734 -0.0743
  750loPI   C2A11664  14.778   3.157   7.162 -0.2457  0.1511  0.0153
  750loPI   C3A11665  14.875   3.256   7.590 -0.0031 -0.2346  0.0306
  750loPI   C4A11666  14.836   3.201   7.991 -0.0332 -0.1619  0.1107
  750loPI   C5A11667  14.795   3.227   8.439  0.3274  0.0100 -0.0124
  750loPI   C6A11668  14.776   3.566   8.749 -0.1410  0.0659  0.0762
  750loPI   C1B11669  14.452   3.511   6.973  0.0728  0.1350  0.0965
  750loPI   C2B11670  14.496   3.483   7.442  0.3622 -0.1923 -0.1913
  750loPI   C3B11671  14.420   3.522   7.888 -0.0537 -0.0717 -0.3430
  750loPI   C4B11672  14.377   3.497   8.390  0.1464  0.2128  0.0154
  751loPI    C111673  11.965   3.912   5.716  0.3177  0.0846  0.0373
  751loPI    C211674  11.941   4.235   5.482 -0.1661  0.0064 -0.0319
  751loPI    C311675  12.012   3.876   5.321 -0.1523  0.0025 -0.0171
  751loPI   PO411676  11.795   3.956   5.934  0.2359  0.1048 -0.2817
  751loPI   GL111677  11.619   3.796   6.262 -0.3009  0.4157  0.2002
  751loPI   GL211678  11.398   3.931   6.407 -0.3868 -0.1213 -0.1674
  751loPI   C1A11679  11.708   3.567   6.642  0.0311  0.1276 -0.0985
  751loPI   C2A11680  11.838   3.629   7.124  0.3862 -0.0129 -0.1211
  751loPI   C3A11681  11.677   3.541   7.540 -0.2301 -0.0120 -0.1631
  751loPI   C4A11682  11.656   3.509   7.962  0.2164 -0.3167  0.1731
  751loPI   C5A11683  11.650   3.558   8.367 -0.0907 -0.3627  0.3029
  751loPI   C6A11684  11.559   3.226   8.624 -0.2429 -0.2526  0.3418
  751loPI   C1B11685  11.384   4.006   6.837 -0.1624  0.2492  0.3270
  751loPI   C2B11686  11.333   3.902   7.311 -0.0864 -0.2149 -0.0728
  751loPI   C3B11687  11.327   3.881   7.744  0.1475  0.1522  0.3317
  751loPI   C4B11688  11.324   3.911   8.172 -0.2574 -0.0684 -0.0828
  752loPI    C111689  11.877  14.103   5.780  0.2971 -0.1603  0.0522
  752loPI    C211690  11.821  14.486   5.881 -0.0112 -0.1809 -0.0312
  752loPI    C311691  12.012  14.394   5.542  0.1243 -0.1024  0.0233
  752loPI   PO411692  11.862  13.952   6.052 -0.2483  0.0134 -0.2789
  752loPI   GL111693  11.683  14.036   6.528 -0.1507  0.0419 -0.1027
  752loPI   GL211694  12.117  14.075   6.481  0.2073  0.2147 -0.1547
  752loPI   C1A11695  11.519  13.976   6.880  0.2780 -0.1889  0.0826
  752loPI   C2A11696  11.327  13.856   7.289  0.1716  0.3433  0.0896
  752loPI   C3A11697  11.465  13.807   7.688  0.1074  0.1796 -0.4044
  752loPI   C4A11698  11.514  13.859   8.210 -0.0440 -0.1745  0.0122
  752loPI   C5A11699  11.577  14.041   8.714 -0.1506 -0.2428 -0.0158
  752loPI   C6A11700  11.951  14.227   8.821 -0.0775  0.0081 -0.0047
  752loPI   C1B11701  11.991  14.134   6.878  0.0350 -0.2174 -0.1288
  752loPI   C2B11702  11.822  14.093   7.358 -0.1697 -0.0605 -0.0685
  752loPI   C3B11703  11.898  14.066   7.859  0.0116 -0.2288 -0.3030
  752loPI   C4B11704  12.060  13.917   8.339 -0.3025  0.0164 -0.2620
  753loPI    C111705  14.154   6.222   5.549 -0.1565  0.0282 -0.0804
  753loPI    C211706  13.842   5.999   5.437 -0.1578  0.0866 -0.1947
  753loPI    C311707  14.135   6.078   5.177  0.0784 -0.1787 -0.0144
  753loPI   PO411708  14.137   6.308   5.891 -0.1007  0.2030 -0.0036
  753loPI   GL111709  13.907   6.574   6.215 -0.2038  0.2364  0.3925
  753loPI   GL211710  13.701   6.757   6.141 -0.4066  0.1322  0.3574
  753loPI   C1A11711  14.135   6.367   6.526  0.0714 -0.3158  0.0835
  753loPI   C2A11712  14.178   6.348   7.006  0.1774  0.0735 -0.0893
  753loPI   C3A11713  14.267   6.330   7.424 -0.0164  0.1869 -0.1692
  753loPI   C4A11714  14.194   6.264   7.875  0.0079 -0.0012  0.0309
  753loPI   C5A11715  14.018   6.298   8.245 -0.1323  0.2384 -0.0058
  753loPI   C6A11716  13.663   6.180   8.507  0.2891 -0.1329  0.0212
  753loPI   C1B11717  13.738   6.745   6.627 -0.4197 -0.1398 -0.0403
  753loPI   C2B11718  13.775   6.723   7.081 -0.3129  0.0727  0.0013
  753loPI   C3B11719  13.752   6.702   7.509 -0.0291 -0.0473 -0.3514
  753loPI   C4B11720  13.728   6.719   7.890 -0.0678 -0.2266  0.0035
  754loPI    C111721   7.847   5.944   5.544 -0.0776 -0.3410 -0.0625
  754loPI    C211722   8.227   6.038   5.462 -0.1270 -0.0506  0.0306
  754loPI    C311723   8.079   5.684   5.348  0.0630 -0.0160 -0.3359
  754loPI   PO411724   7.816   5.931   5.874 -0.0634 -0.0384 -0.0476
  754loPI   GL111725   7.880   6.131   6.249  0.0779  0.4364  0.0825
  754loPI   GL211726   7.608   5.985   6.385  0.1018 -0.5421  0.0403
  754loPI   C1A11727   8.055   6.096   6.682  0.0054 -0.0758  0.1270
  754loPI   C2A11728   8.145   6.041   7.070  0.1546  0.1377  0.4486
  754loPI   C3A11729   8.047   6.073   7.479 -0.2365  0.1901 -0.0642
  754loPI   C4A11730   7.985   5.965   7.874 -0.1651  0.1916  0.1908
  754loPI   C5A11731   8.021   5.727   8.309 -0.2649 -0.1463  0.0852
  754loPI   C6A11732   8.077   5.771   8.764  0.2193  0.2601 -0.1128
  754loPI   C1B11733   7.600   5.858   6.791 -0.0978 -0.0352  0.2082
  754loPI   C2B11734   7.582   5.824   7.236 -0.0721  0.1349 -0.1144
  754loPI   C3B11735   7.462   5.828   7.616  0.0008  0.1934  0.2021
  754loPI   C4B11736   7.551   5.749   7.977  0.1842  0.0046  0.2910
  755loPI    C111737  10.289  17.360   5.859  0.2129 -0.2847  0.0953
  755loPI    C211738  10.268  17.141   5.525  0.1115 -0.2088  0.0514
  755loPI    C311739  10.069  17.488   5.550  0.4073 -0.0365  0.0567
  755loPI   PO411740  10.492  17.204   5.984 -0.0982  0.4464  0.0172
  755loPI   GL111741  10.677  17.394   6.263  0.3443  0.3121  0.0603
  755loPI   GL211742  10.422  17.019   6.448 -0.2073  0.1276  0.0619
  755loPI   C1A11743  10.554  17.526   6.645  0.1378 -0.1556 -0.1701
  755loPI   C2A11744  10.597  17.522   7.087  0.1535  0.3647 -0.0754
  755loPI   C3A11745  10.562  17.459   7.489 -0.0090  0.0824  0.2825
  755loPI   C4A11746  10.612  17.392   7.982  0.0323  0.1078  0.1006
  755loPI   C5A11747  10.658  17.467   8.399 -0.3737  0.0080  0.1540
  755loPI   C6A11748  10.448  17.364   8.764  0.2361 -0.4017  0.0585
  755loPI   C1B11749  10.485  16.896   6.942 -0.1095  0.1542 -0.0994
  755loPI   C2B11750  10.472  16.858   7.375  0.0006 -0.3094 -0.1170
  755loPI   C3B11751  10.527  16.894   7.869  0.1537  0.0400 -0.0664
  755loPI   C4B11752  10.561  16.983   8.352  0.1371  0.0433 -0.0775
  756loPI    C111753  11.041   3.726   5.557  0.5464 -0.0228  0.0578
  756loPI    C211754  11.016   3.869   5.184  0.0613 -0.1573  0.0311
  756loPI    C311755  11.157   3.500   5.248  0.1204 -0.1440 -0.0211
  756loPI   PO411756  10.851   3.795   5.635  0.0243 -0.1998 -0.1138
  756loPI   GL111757  10.667   3.753   6.091  0.0460  0.0888  0.1463
  756loPI   GL211758  10.860   3.802   6.217  0.0373 -0.0592  0.1231
  756loPI   C1A11759  10.517   3.959   6.505  0.0973 -0.1436  0.0015
  756loPI   C2A11760  10.556   4.117   6.904  0.0603 -0.1161 -0.1456
  756loPI   C3A11761  10.486   4.064   7.291 -0.0626 -0.3205 -0.1579
  756loPI   C4A11762  10.487   4.025   7.705  0.2693  0.1004 -0.1624
  756loPI   C5A11763  10.441   4.010   8.174  0.0498 -0.0993  0.2778
  756loPI   C6A11764  10.823   3.840   8.351  0.0974 -0.0248  0.2550
  756loPI   C1B11765  10.963   3.666   6.632 -0.1163  0.1052 -0.1232
  756loPI   C2B11766  10.839   3.729   7.052  0.3543 -0.2209  0.3468
  756loPI   C3B11767  10.854   3.715   7.484  0.2623 -0.0324  0.2418
  756loPI   C4B11768  10.887   3.706   7.895  0.2244  0.1609  0.5457
  757loPI    C111769   9.903   3.232   5.576  0.1524 -0.0023  0.2268
  757loPI    C211770  10.288   3.141   5.514  0.1101  0.0280 -0.0962
  757loPI    C311771  10.000   2.927   5.336 -0.0238  0.0177  0.1286
  757loPI   PO411772   9.830   3.211   5.887  0.1019  0.0725 -0.0675
  757loPI   GL111773   9.795   3.197   6.209 -0.2332 -0.0329 -0.0433
  757loPI   GL211774   9.815   2.912   6.264 -0.1205  0.3045  0.0352
  757loPI   C1A11775   9.905   3.307   6.640  0.0013  0.0942 -0.1058
  757loPI   C2A11776   9.909   3.420   7.053  0.0887  0.0139 -0.1507
  757loPI   C3A11777   9.964   3.453   7.464  0.1182  0.0161 -0.1824
  757loPI   C4A11778   9.898   3.409   7.862 -0.3139 -0.1128  0.0476
  757loPI   C5A11779   9.846   3.245   8.308 -0.0666  0.2297  0.2689
  757loPI   C6A11780  10.147   3.154   8.663  0.3073  0.3818 -0.1064
  757loPI   C1B11781   9.760   2.785   6.760 -0.1247 -0.3019 -0.0133
  757loPI   C2B11782   9.787   2.945   7.153 -0.3837 -0.1015  0.1850
  757loPI   C3B11783   9.787   2.828   7.540 -0.2338  0.0316  0.0841
  757loPI   C4B11784   9.764   2.887   8.010  0.0809 -0.2567  0.2524
  758loPI    C111785  15.850  13.838   5.525 -0.3596 -0.2551  0.0772
  758loPI    C211786  15.662  14.177   5.428 -0.1478 -0.1320  0.0929
  758loPI    C311787  15.710  13.890   5.154  0.1258  0.0639 -0.0697
  758loPI   PO411788  15.822  13.841   5.895 -0.0476  0.1123 -0.1733
  758loPI   GL111789  15.957  13.845   6.362  0.1479 -0.2202  0.4664
  758loPI   GL211790  15.685  13.631   6.399  0.0027 -0.0885 -0.0431
  758loPI   C1A11791  16.200  13.583   6.670  0.0238  0.1343 -0.0616
  758loPI   C2A11792  16.210  13.578   7.095 -0.6072  0.0491 -0.1281
  758loPI   C3A11793  16.145  13.620   7.407 -0.0284  0.1554  0.0627
  758loPI   C4A11794  16.310  13.549   7.803  0.1707 -0.2418  0.0616
  758loPI   C5A11795  16.254  13.555   8.195 -0.2539 -0.1165 -0.1073
  758loPI   C6A11796  15.875  13.438   8.495 -0.2874 -0.4341 -0.0867
  758loPI   C1B11797  15.673  13.381   6.722 -0.0425  0.1186  0.2881
  758loPI   C2B11798  15.707  13.407   7.135  0.0643  0.1792 -0.1700
  758loPI   C3B11799  15.648  13.471   7.492 -0.0162  0.0064 -0.0608
  758loPI   C4B11800  15.755  13.391   7.833  0.2653  0.1336 -0.1161
  759loPI    C111801   2.416   6.934   5.564 -0.0502 -0.2708 -0.0600
  759loPI    C211802   2.148   7.093   5.312 -0.1162 -0.0276  0.1586
  759loPI    C311803   2.310   6.736   5.233 -0.2912 -0.0485 -0.1202
  759loPI   PO411804   2.270   6.911   5.761 -0.0218  0.2003  0.0249
  759loPI   GL111805   2.305   6.803   6.176 -0.2887  0.3188 -0.1209
  759loPI   GL211806   2.222   7.137   6.265 -0.1392 -0.0226 -0.0948
  759loPI   C1A11807   2.559   6.532   6.602 -0.1435  0.1473 -0.0522
  759loPI   C2A11808   2.597   6.516   7.047 -0.0915  0.0733 -0.0625
  759loPI   C3A11809   2.640   6.464   7.506 -0.0092  0.0848  0.0285
  759loPI   C4A11810   2.670   6.551   7.913  0.2908  0.0275 -0.1339
  759loPI   C5A11811   2.934   6.523   8.355 -0.0659 -0.3127 -0.1445
  759loPI   C6A11812   3.060   6.354   8.763  0.1055 -0.2688 -0.2114
  759loPI   C1B11813   2.130   6.801   6.684 -0.6500  0.2113 -0.5535
  759loPI   C2B11814   2.154   6.767   7.008 -0.1737 -0.1324  0.0614
  759loPI   C3B11815   2.217   6.770   7.367 -0.1074 -0.2084  0.1662
  759loPI   C4B11816   2.287   6.891   7.751  0.2877  0.1329 -0.1892
  760loPI    C111817  12.038  15.955   5.998  0.2860  0.4960 -0.0565
  760loPI    C211818  11.788  16.192   6.201 -0.2634  0.0122 -0.1428
  760loPI    C311819  11.965  16.327   5.869 -0.4445  0.3510 -0.1068
  760loPI   PO411820  12.191  15.863   6.159  0.2327 -0.3415  0.0213
  760loPI   GL111821  12.214  15.892   6.575 -0.1323 -0.0071 -0.0632
  760loPI   GL211822  12.145  16.165   6.599 -0.0112 -0.0310  0.0299
  760loPI   C1A11823  12.203  15.608   6.913  0.2772  0.0509 -0.1993
  760loPI   C2A11824  12.081  15.629   7.338 -0.1915  0.0456  0.2022
  760loPI   C3A11825  12.156  15.639   7.752  0.1451 -0.1791  0.1005
  760loPI   C4A11826  12.261  15.450   8.202 -0.0622 -0.0170 -0.1019
  760loPI   C5A11827  12.094  15.510   8.676 -0.0035  0.0207  0.1301
  760loPI   C6A11828  11.906  15.632   9.009  0.3142 -0.1877 -0.2216
  760loPI   C1B11829  12.225  16.145   7.017 -0.0131 -0.2244 -0.1232
  760loPI   C2B11830  12.202  16.066   7.414 -0.0413 -0.0444  0.2033
  760loPI   C3B11831  12.266  16.162   7.822  0.2804  0.0717 -0.0980
  760loPI   C4B11832  12.265  15.975   8.289  0.1980 -0.1334 -0.0329
  761loPI    C111833  15.805  11.146   5.469  0.1881 -0.0081  0.0190
  761loPI    C211834  15.539  11.182   5.172 -0.0204 -0.0881  0.1931
  761loPI    C311835  15.931  11.204   5.094 -0.0706 -0.1762 -0.0969
  761loPI   PO411836  15.654  11.250   5.686  0.1439  0.0342  0.1525
  761loPI   GL111837  15.293  11.265   5.968 -0.1661 -0.0976 -0.3479
  761loPI   GL211838  15.549  11.028   6.117 -0.1007 -0.2640  0.4961
  761loPI   C1A11839  15.343  11.387   6.415  0.0433  0.0710 -0.0607
  761loPI   C2A11840  15.309  11.351   6.832 -0.0855 -0.1421  0.0584
  761loPI   C3A11841  15.242  11.358   7.189 -0.3636 -0.0825  0.0181
  761loPI   C4A11842  15.225  11.378   7.647  0.2470  0.2304 -0.1513
  761loPI   C5A11843  15.120  11.308   8.080 -0.1534  0.1916  0.1440
  761loPI   C6A11844  15.418  10.974   8.292 -0.0233  0.2695  0.3041
  761loPI   C1B11845  15.613  10.991   6.554  0.1846  0.1617 -0.0146
  761loPI   C2B11846  15.639  11.009   7.014 -0.2812 -0.3173 -0.0127
  761loPI   C3B11847  15.581  11.028   7.452  0.1815 -0.1627  0.1990
  761loPI   C4B11848  15.634  11.136   7.858  0.0417 -0.0581  0.1364
  762loPI    C111849   2.741   9.838   5.587 -0.2025 -0.0013 -0.1365
  762loPI    C211850   2.743   9.486   5.398 -0.0572  0.0490 -0.2312
  762loPI    C311851   2.664   9.821   5.195 -0.0134  0.0910 -0.1789
  762loPI   PO411852   2.569   9.794   5.896 -0.1214 -0.1552  0.3194
  762loPI   GL111853   2.479   9.475   6.155 -0.0138 -0.1292 -0.2784
  762loPI   GL211854   2.315   9.697   6.374  0.0422 -0.0053 -0.1438
  762loPI   C1A11855   2.730   9.295   6.632  0.0604 -0.2069 -0.0093
  762loPI   C2A11856   2.733   9.364   7.044  0.3521  0.1586  0.0622
  762loPI   C3A11857   2.745   9.302   7.407  0.0993  0.0516  0.2312
  762loPI   C4A11858   2.727   9.438   7.750  0.1590  0.0095 -0.1698
  762loPI   C5A11859   2.752   9.406   8.144  0.0299  0.2532  0.1814
  762loPI   C6A11860   2.690   9.691   8.483  0.3926  0.1927 -0.0715
  762loPI   C1B11861   2.362   9.636   6.854  0.3673 -0.2158  0.0686
  762loPI   C2B11862   2.309   9.691   7.272 -0.2352 -0.1206  0.0378
  762loPI   C3B11863   2.282   9.635   7.742  0.2645 -0.1081  0.2331
  762loPI   C4B11864   2.284   9.723   8.159 -0.0165 -0.1625 -0.3426
  763loPI    C111865  12.873   1.996   5.537  0.1388 -0.2711  0.0777
  763loPI    C211866  13.245   2.041   5.396  0.1140 -0.3049  0.0008
  763loPI    C311867  12.960   1.884   5.163 -0.0474  0.0973 -0.0810
  763loPI   PO411868  12.905   1.968   5.803 -0.1052  0.2491  0.1602
  763loPI   GL111869  12.901   1.781   6.221 -0.0747  0.0917 -0.0565
  763loPI   GL211870  13.158   1.689   6.402 -0.0472  0.0090  0.0191
  763loPI   C1A11871  12.758   1.956   6.656  0.1303  0.1378  0.2100
  763loPI   C2A11872  12.920   2.021   7.035 -0.4301  0.0301  0.0287
  763loPI   C3A11873  12.876   2.038   7.464 -0.0152 -0.3085 -0.0957
  763loPI   C4A11874  12.820   2.042   7.927  0.3021  0.0002  0.1556
  763loPI   C5A11875  12.865   1.995   8.338  0.0815 -0.1601 -0.1836
  763loPI   C6A11876  12.964   1.755   8.661  0.0460  0.0525  0.0711
  763loPI   C1B11877  13.224   1.567   6.829  0.1406 -0.0271 -0.1284
  763loPI   C2B11878  13.200   1.606   7.348 -0.0612 -0.0224  0.3512
  763loPI   C3B11879  13.261   1.687   7.814 -0.2821  0.2081  0.0344
  763loPI   C4B11880  13.285   1.615   8.274  0.0306  0.0766 -0.0878
  764loPI    C111881  16.147   2.278   5.815  0.1269  0.0143 -0.1903
  764loPI    C211882  15.985   2.293   5.449  0.0752 -0.0081 -0.1684
  764loPI    C311883  16.024   2.628   5.665  0.0820  0.0012 -0.1841
  764loPI   PO411884  16.044   2.128   5.956  0.4250 -0.0408  0.0291
  764loPI   GL111885  15.988   2.006   6.424 -0.4279 -0.1253 -0.0480
  764loPI   GL211886  16.295   2.161   6.393  0.0258  0.0432  0.0972
  764loPI   C1A11887  16.090   2.150   6.875  0.2643  0.2740 -0.3694
  764loPI   C2A11888  16.061   2.204   7.281  0.0685  0.4534  0.0501
  764loPI   C3A11889  16.050   2.120   7.781 -0.3020  0.0400  0.1616
  764loPI   C4A11890  16.055   2.172   8.242  0.0006 -0.1448 -0.2403
  764loPI   C5A11891  16.021   1.882   8.633 -0.2936 -0.0852  0.1201
  764loPI   C6A11892  16.071   1.476   8.892 -0.0541 -0.1738  0.0608
  764loPI   C1B11893  16.405   1.756   6.724 -0.2478 -0.2122  0.0313
  764loPI   C2B11894  16.346   1.801   7.214 -0.0010  0.1641 -0.3442
  764loPI   C3B11895  16.405   1.777   7.634 -0.3285 -0.2105 -0.0513
  764loPI   C4B11896  16.374   1.679   8.071  0.2611  0.1887 -0.3590
  765loPI    C111897   7.369   9.725   5.729 -0.0785  0.1989  0.0503
  765loPI    C211898   6.976   9.744   5.802 -0.0664  0.2641  0.1001
  765loPI    C311899   7.108   9.659   5.434 -0.1287 -0.1174  0.1618
  765loPI   PO411900   7.415   9.515   5.913  0.3057  0.0898 -0.0208
  765loPI   GL111901   7.462   9.473   6.279 -0.1164 -0.1467  0.1568
  765loPI   GL211902   7.669   9.277   6.491 -0.0654  0.0509 -0.1021
  765loPI   C1A11903   7.336   9.564   6.673 -0.1968  0.0955  0.0259
  765loPI   C2A11904   7.289   9.578   7.038  0.0493 -0.1933 -0.0699
  765loPI   C3A11905   7.368   9.468   7.485 -0.1034  0.0080  0.1753
  765loPI   C4A11906   7.457   9.515   7.941 -0.0178  0.1128 -0.0685
  765loPI   C5A11907   7.254   9.695   8.243 -0.1905  0.2845  0.0851
  765loPI   C6A11908   7.207   9.596   8.741  0.2734 -0.0122 -0.2680
  765loPI   C1B11909   7.768   9.175   6.913  0.0611 -0.0006  0.0192
  765loPI   C2B11910   7.776   9.156   7.357 -0.0274  0.0491  0.2376
  765loPI   C3B11911   7.826   9.239   7.741 -0.0027  0.2660 -0.0735
  765loPI   C4B11912   7.810   9.207   8.207 -0.0062 -0.3643  0.0099
  766loPI    C111913   6.300  12.737   5.437 -0.0003 -0.0038 -0.0090
  766loPI    C211914   6.363  12.414   5.663 -0.1358  0.0426  0.0962
  766loPI    C311915   6.276  12.372   5.275  0.2318 -0.0328  0.0180
  766loPI   PO411916   6.138  12.881   5.584 -0.1199  0.1364  0.0393
  766loPI   GL111917   6.045  13.049   5.911 -0.0081  0.2452 -0.0277
  766loPI   GL211918   6.153  12.747   6.073  0.0199  0.0363  0.3367
  766loPI   C1A11919   6.153  13.005   6.462  0.0107  0.1535 -0.0267
  766loPI   C2A11920   6.185  13.084   6.878  0.1154  0.0806 -0.0915
  766loPI   C3A11921   6.213  12.944   7.373 -0.2131 -0.0011 -0.0305
  766loPI   C4A11922   6.153  13.009   7.759 -0.0117  0.0964 -0.1563
  766loPI   C5A11923   6.260  13.020   8.238 -0.2038  0.1095  0.0213
  766loPI   C6A11924   6.151  13.011   8.617 -0.0005 -0.2969 -0.0389
  766loPI   C1B11925   6.124  12.471   6.420 -0.1672 -0.0161 -0.0247
  766loPI   C2B11926   6.123  12.531   6.814  0.5379  0.0682 -0.0404
  766loPI   C3B11927   6.182  12.426   7.296 -0.0783 -0.0325 -0.2111
  766loPI   C4B11928   6.043  12.424   7.730  0.2322  0.2499 -0.0690
  767loPI    C111929  11.990   7.818   5.575 -0.2702  0.0164  0.1069
  767loPI    C211930  12.144   8.155   5.424 -0.1772  0.0190  0.2060
  767loPI    C311931  12.017   7.866   5.179  0.2353 -0.0964  0.1203
  767loPI   PO411932  11.734   7.893   5.717 -0.3082  0.1729 -0.1009
  767loPI   GL111933  11.703   8.003   6.145  0.2839  0.0474 -0.2017
  767loPI   GL211934  11.713   8.263   6.375 -0.0722 -0.2699 -0.0688
  767loPI   C1A11935  11.800   7.747   6.535  0.1426  0.1088 -0.0787
  767loPI   C2A11936  11.737   7.774   6.969  0.0870 -0.0718  0.0327
  767loPI   C3A11937  11.678   7.704   7.391  0.0034  0.0131  0.3026
  767loPI   C4A11938  11.689   7.692   7.925  0.3827 -0.0059 -0.2606
  767loPI   C5A11939  11.850   7.741   8.383  0.2162 -0.0629  0.2600
  767loPI   C6A11940  12.167   7.956   8.589 -0.1025 -0.0692  0.0999
  767loPI   C1B11941  11.815   8.258   6.826  0.0423  0.1088  0.1986
  767loPI   C2B11942  11.804   8.199   7.227 -0.2718 -0.1053  0.0733
  767loPI   C3B11943  11.708   8.244   7.576 -0.3580  0.2874 -0.0177
  767loPI   C4B11944  11.825   8.215   7.957  0.1345  0.1449  0.0717
  768loPI    C111945   8.287  12.632   5.736  0.2573 -0.1341 -0.2102
  768loPI    C211946   8.467  12.541   5.391  0.2230  0.1669 -0.3107
  768loPI    C311947   8.165  12.802   5.396  0.1985  0.1370 -0.0567
  768loPI   PO411948   8.239  12.449   5.841 -0.3634  0.1939 -0.0368
  768loPI   GL111949   8.387  12.185   6.180 -0.0718  0.1627 -0.2047
  768loPI   GL211950   8.488  11.925   6.122 -0.1051 -0.0812  0.4270
  768loPI   C1A11951   8.420  12.336   6.542 -0.2344 -0.0768 -0.2814
  768loPI   C2A11952   8.426  12.318   7.015 -0.0589  0.0359 -0.3132
  768loPI   C3A11953   8.410  12.366   7.348 -0.1827 -0.0608 -0.2137
  768loPI   C4A11954   8.277  12.311   7.712 -0.1383 -0.4110  0.2014
  768loPI   C5A11955   8.409  12.205   8.045  0.0641  0.0470 -0.1253
  768loPI   C6A11956   8.652  11.945   8.294 -0.0807  0.2229  0.1359
  768loPI   C1B11957   8.706  11.942   6.519  0.0142 -0.0836  0.0425
  768loPI   C2B11958   8.835  11.963   6.913 -0.0252 -0.1581  0.2450
  768loPI   C3B11959   8.786  12.043   7.285  0.0322  0.1128 -0.0647
  768loPI   C4B11960   8.745  12.015   7.717  0.1104  0.1992  0.0076
  769loPI    C111961   0.092  14.990   5.586 -0.0991  0.0042 -0.0801
  769loPI    C211962   0.224  14.642   5.441  0.0180  0.0418 -0.0652
  769loPI    C311963   0.340  14.985   5.273 -0.0703  0.0752 -0.0586
  769loPI   PO411964   0.028  14.930   5.861  0.5097  0.0187 -0.0190
  769loPI   GL111965  -0.095  14.757   6.227 -0.3602  0.0640  0.0240
  769loPI   GL211966  -0.086  14.513   6.122  0.3251 -0.0402  0.2995
  769loPI   C1A11967   0.004  14.708   6.696  0.0481  0.3594 -0.3546
  769loPI   C2A11968  -0.020  14.692   7.065  0.1890  0.0115 -0.1744
  769loPI   C3A11969   0.036  14.624   7.448 -0.0181 -0.3122 -0.1021
  769loPI   C4A11970   0.171  14.598   7.829  0.1344 -0.0623 -0.1116
  769loPI   C5A11971   0.325  14.478   8.226 -0.2825  0.0254 -0.0252
  769loPI   C6A11972   0.253  14.110   8.421  0.0082 -0.1563  0.0707
  769loPI   C1B11973  -0.396  14.478   6.470 -0.0652  0.2737  0.0379
  769loPI   C2B11974  -0.424  14.487   6.895  0.0955 -0.0508 -0.3954
  769loPI   C3B11975  -0.461  14.445   7.389 -0.1690  0.0031 -0.1042
  769loPI   C4B11976  -0.314  14.371   7.773  0.0628 -0.2253  0.1856
  770loPI    C111977  11.725   3.487   5.807  0.0698 -0.0467 -0.0805
  770loPI    C211978  11.467   3.332   5.545  0.0159 -0.0119 -0.0482
  770loPI    C311979  11.836   3.430   5.428 -0.0007 -0.0175 -0.1057
  770loPI   PO411980  11.694   3.260   6.039  0.1730 -0.2112  0.0899
  770loPI   GL111981  11.929   3.159   6.344  0.2618  0.1418  0.0071
  770loPI   GL211982  12.150   3.236   6.576 -0.0295  0.1517 -0.1499
  770loPI   C1A11983  11.714   3.082   6.746 -0.2181  0.1239 -0.2359
  770loPI   C2A11984  11.629   3.125   7.205  0.0708  0.0586 -0.0123
  770loPI   C3A11985  11.634   2.974   7.671 -0.1516 -0.1090  0.2252
  770loPI   C4A11986  11.618   3.015   8.091 -0.3580 -0.1039 -0.1911
  770loPI   C5A11987  11.624   2.792   8.462  0.1261  0.2767 -0.2245
  770loPI   C6A11988  11.858   2.712   8.890 -0.1042  0.0743  0.0656
  770loPI   C1B11989  12.158   3.261   6.981  0.3467 -0.0118 -0.0074
  770loPI   C2B11990  12.068   3.237   7.468 -0.0022 -0.1841  0.0306
  770loPI   C3B11991  12.156   3.144   7.906  0.0858 -0.1344  0.0564
  770loPI   C4B11992  12.025   3.142   8.350  0.0465 -0.1735 -0.2944
  771loPI    C111993  13.581  12.949   5.962  0.0413 -0.2253 -0.0559
  771loPI    C211994  13.295  12.963   6.241 -0.1040  0.0356 -0.2143
  771loPI    C311995  13.221  12.792   5.888 -0.0458  0.0529 -0.2352
  771loPI   PO411996  13.710  12.778   6.043 -0.2296 -0.0724 -0.4830
  771loPI   GL111997  14.023  12.878   6.385 -0.1363 -0.0086 -0.0412
  771loPI   GL211998  13.807  13.121   6.436 -0.0360 -0.0601  0.0734
  771loPI   C1A11999  14.070  12.834   6.887  0.1037 -0.0744 -0.0441
  771loPI   C2A12000  14.258  12.808   7.302  0.3735  0.1010  0.3732
  771loPI   C3A12001  14.302  12.886   7.694 -0.0223 -0.1710 -0.1457
  771loPI   C4A12002  14.296  12.718   8.099 -0.2430 -0.0526  0.0688
  771loPI   C5A12003  13.933  12.445   8.288  0.1329 -0.0303 -0.1959
  771loPI   C6A12004  13.566  12.292   8.124  0.2316 -0.0002 -0.1259
  771loPI   C1B12005  13.516  12.949   6.643 -0.1251  0.1444 -0.3292
  771loPI   C2B12006  13.308  12.639   6.878 -0.1036  0.1417 -0.1298
  771loPI   C3B12007  13.179  12.445   7.213  0.0027 -0.1293  0.0042
  771loPI   C4B12008  13.147  12.025   7.397 -0.3046  0.0804 -0.2928
  772loPI    C112009  15.454   8.387   5.570 -0.1980  0.1585 -0.2413
  772loPI    C212010  15.833   8.411   5.447 -0.1307 -0.1549 -0.1060
  772loPI    C312011  15.536   8.395   5.179 -0.0576  0.1808 -0.2116
  772loPI   PO412012  15.439   8.571   5.708  0.0341  0.1080 -0.1093
  772loPI   GL112013  15.610   8.631   6.074  0.1512  0.1315 -0.0516
  772loPI   GL212014  15.844   8.407   6.010  0.1434 -0.1064  0.1764
  772loPI   C1A12015  15.687   8.650   6.472  0.3322  0.3469  0.0570
  772loPI   C2A12016  15.589   8.801   6.820  0.3549 -0.1306 -0.1594
  772loPI   C3A12017  15.675   8.678   7.240  0.4346  0.0545 -0.1293
  772loPI   C4A12018  15.665   8.687   7.675 -0.3698  0.0389 -0.0352
  772loPI   C5A12019  15.576   8.655   8.059 -0.2652  0.1811 -0.1559
  772loPI   C6A12020  15.672   8.711   8.414 -0.3698 -0.1924  0.1787
  772loPI   C1B12021  15.858   8.067   6.398 -0.1699  0.0307  0.3919
  772loPI   C2B12022  15.873   7.957   6.781  0.0777  0.0369  0.1502
  772loPI   C3B12023  16.022   7.799   7.178  0.1304 -0.1593 -0.0195
  772loPI   C4B12024  15.840   7.768   7.580 -0.2685 -0.2002  0.2957
  773loPI    C112025  14.078  15.153   6.136  0.0879  0.0211 -0.1481
  773loPI    C212026  14.141  15.067   6.521 -0.1627  0.0486 -0.0995
  773loPI    C312027  13.812  14.932   6.337 -0.0180 -0.0094 -0.3194
  773loPI   PO412028  14.112  15.439   6.195 -0.0843 -0.1002 -0.0945
  773loPI   GL112029  14.126  15.540   6.655  0.2574 -0.2206 -0.0093
  773loPI   GL212030  13.705  15.497   6.710  0.1412  0.0175  0.3698
  773loPI   C1A12031  14.101  15.310   6.933 -0.0418  0.5009  0.1213
  773loPI   C2A12032  13.917  15.145   7.307 -0.4518 -0.2405 -0.0508
  773loPI   C3A12033  14.236  15.171   7.631  0.0949 -0.1169 -0.0628
  773loPI   C4A12034  14.545  15.154   7.928 -0.1684 -0.1074 -0.0518
  773loPI   C5A12035  14.809  15.482   8.168  0.0666 -0.4168  0.1578
  773loPI   C6A12036  14.862  15.487   8.566  0.1305  0.4009 -0.2571
  773loPI   C1B12037  13.677  15.542   7.044  0.0477  0.0109 -0.2637
  773loPI   C2B12038  13.394  15.342   7.174 -0.0713 -0.1656  0.2582
  773loPI   C3B12039  13.338  14.933   7.381  0.1581  0.1518 -0.0910
  773loPI   C4B12040  13.294  14.608   7.721 -0.0865  0.0502  0.1326
  774loPI    C112041  17.631   9.392   5.853  0.0942  0.0404  0.1007
  774loPI    C212042  17.648   9.675   5.571 -0.1504 -0.1916 -0.1525
  774loPI    C312043  17.767   9.302   5.488  0.2879 -0.1432  0.2152
  774loPI   PO412044  17.800   9.418   5.995 -0.2498 -0.2689  0.3603
  774loPI   GL112045  18.081   9.612   6.257 -0.0833 -0.0845 -0.0740
  774loPI   GL212046  17.754   9.410   6.508  0.0351  0.1569  0.2192
  774loPI   C1A12047  18.176   9.567   6.791  0.6146  0.2911  0.0600
  774loPI   C2A12048  18.120   9.423   7.180  0.0820  0.0824 -0.2540
  774loPI   C3A12049  18.095   9.515   7.645 -0.0699  0.2433 -0.0927
  774loPI   C4A12050  18.018   9.378   8.033  0.1564  0.1919 -0.1360
  774loPI   C5A12051  18.040   9.164   8.442 -0.0950 -0.0470  0.1956
  774loPI   C6A12052  18.021   9.101   8.914  0.1308  0.0081  0.0276
  774loPI   C1B12053  17.587   9.408   6.950  0.4531 -0.1835 -0.0531
  774loPI   C2B12054  17.634   9.361   7.391 -0.2265  0.1351 -0.3172
  774loPI   C3B12055  17.500   9.368   7.773 -0.1552  0.0087 -0.2946
  774loPI   C4B12056  17.486   9.558   8.146  0.0242  0.2682 -0.2161
  775loPI    C112057   7.432  11.276   5.843  0.1899 -0.3879 -0.1670
  775loPI    C212058   7.521  11.087   5.501 -0.0962 -0.0835 -0.4169
  775loPI    C312059   7.372  11.458   5.492 -0.2111 -0.1116  0.0371
  775loPI   PO412060   7.351  11.111   6.002  0.0437  0.0386 -0.1275
  775loPI   GL112061   7.138  11.050   6.424  0.2677 -0.1755  0.1694
  775loPI   GL212062   6.837  11.133   6.403  0.2177  0.0058 -0.0881
  775loPI   C1A12063   7.215  10.866   6.822  0.1565 -0.1245  0.0069
  775loPI   C2A12064   7.229  10.963   7.286  0.2783  0.0034 -0.0854
  775loPI   C3A12065   7.179  10.962   7.642 -0.1840  0.0298 -0.2861
  775loPI   C4A12066   7.029  10.783   7.944  0.0074 -0.3211  0.1237
  775loPI   C5A12067   6.905  10.932   8.325  0.0153 -0.2637 -0.5140
  775loPI   C6A12068   6.924  11.494   8.297  0.2119 -0.1830  0.3905
  775loPI   C1B12069   6.767  11.250   6.798  0.0213 -0.2573  0.1438
  775loPI   C2B12070   6.820  11.263   7.178  0.2140  0.1916 -0.0592
  775loPI   C3B12071   6.826  11.302   7.528 -0.0520  0.1252 -0.0763
  775loPI   C4B12072   6.741  11.231   7.905  0.0871 -0.2488 -0.0184
  776loPI    C112073  11.036  16.421   5.697  0.0349 -0.0110  0.0648
  776loPI    C212074  11.045  16.707   5.417 -0.0443  0.0064  0.0800
  776loPI    C312075  10.962  16.329   5.315  0.0370 -0.0070  0.0635
  776loPI   PO412076  10.953  16.539   6.025 -0.1855 -0.0891  0.0215
  776loPI   GL112077  10.850  16.914   6.185  0.1074 -0.2642 -0.1119
  776loPI   GL212078  10.858  16.693   6.498  0.1147 -0.0490 -0.1766
  776loPI   C1A12079  10.932  17.158   6.651 -0.1706  0.1251 -0.1146
  776loPI   C2A12080  10.968  17.075   7.177 -0.1284  0.3286  0.2214
  776loPI   C3A12081  10.915  17.106   7.582  0.0753 -0.1262  0.1955
  776loPI   C4A12082  11.033  17.102   7.977 -0.2199  0.0035 -0.0564
  776loPI   C5A12083  11.116  17.104   8.427 -0.0560 -0.2451 -0.4299
  776loPI   C6A12084  10.893  17.078   8.838 -0.2733 -0.0766 -0.0877
  776loPI   C1B12085  10.929  16.492   6.962  0.1638 -0.1073 -0.0120
  776loPI   C2B12086  10.854  16.565   7.373 -0.0474 -0.0828 -0.1277
  776loPI   C3B12087  10.993  16.566   7.817 -0.1266 -0.3484 -0.0367
  776loPI   C4B12088  10.949  16.620   8.268  0.0071  0.0448 -0.1860
  777loPI    C112089  14.271  14.581   6.027 -0.2245  0.1467 -0.0193
  777loPI    C212090  14.519  14.295   5.896  0.1664  0.3728  0.2078
  777loPI    C312091  14.291  14.497   5.636  0.1295  0.0811  0.0091
  777loPI   PO412092  14.410  14.776   6.160 -0.1046 -0.2484 -0.0122
  777loPI   GL112093  14.620  14.950   6.436  0.2891 -0.0287 -0.0730
  777loPI   GL212094  14.554  14.640   6.631 -0.0384  0.2400 -0.0023
  777loPI   C1A12095  14.710  15.105   6.845 -0.0025  0.0024  0.0181
  777loPI   C2A12096  14.602  15.238   7.316  0.1494  0.1167 -0.0809
  777loPI   C3A12097  14.536  15.677   7.533  0.0356  0.2552 -0.0307
  777loPI   C4A12098  14.334  15.664   7.861 -0.0580 -0.1957 -0.1913
  777loPI   C5A12099  14.101  15.400   8.044  0.0570  0.0260  0.0894
  777loPI   C6A12100  13.705  15.359   8.187 -0.2091 -0.0089 -0.0507
  777loPI   C1B12101  14.613  14.416   7.030  0.2852  0.1663  0.0307
  777loPI   C2B12102  14.686  14.317   7.434  0.0111 -0.2359  0.0773
  777loPI   C3B12103  14.862  13.921   7.523  0.1844 -0.1023 -0.0595
  777loPI   C4B12104  14.750  13.472   7.429  0.1052  0.1830  0.2296
  778loPI    C112105   5.009   3.338   5.636 -0.1754 -0.1772  0.3390
  778loPI    C212106   4.898   3.093   5.339  0.1012 -0.1767  0.2321
  778loPI    C312107   4.985   3.476   5.261  0.2368 -0.1925  0.3023
  778loPI   PO412108   4.934   3.328   5.799  0.1674 -0.1514 -0.0934
  778loPI   GL112109   4.870   3.525   6.213 -0.1249  0.4064  0.1061
  778loPI   GL212110   4.539   3.523   6.310 -0.0394 -0.1310  0.0832
  778loPI   C1A12111   4.935   3.597   6.569 -0.3708 -0.2215 -0.0806
  778loPI   C2A12112   4.921   3.537   6.970  0.0350 -0.0872  0.0405
  778loPI   C3A12113   4.864   3.520   7.470  0.0023  0.1654 -0.1844
  778loPI   C4A12114   4.933   3.395   7.803 -0.0167 -0.2528  0.1539
  778loPI   C5A12115   4.947   3.277   8.175 -0.0975 -0.0437  0.3553
  778loPI   C6A12116   4.939   3.040   8.597 -0.4162 -0.1294 -0.0032
  778loPI   C1B12117   4.429   3.451   6.766  0.2896 -0.1541 -0.1240
  778loPI   C2B12118   4.463   3.366   7.164  0.0954 -0.1925  0.1517
  778loPI   C3B12119   4.375   3.254   7.560  0.1621 -0.0071 -0.1157
  778loPI   C4B12120   4.466   3.154   7.922 -0.0106  0.0310  0.0942
  779loPI    C112121   3.038   6.305   5.620 -0.1064 -0.1731  0.0282
  779loPI    C212122   3.281   6.035   5.452  0.1034 -0.1420  0.2755
  779loPI    C312123   3.287   6.415   5.326 -0.0147 -0.1984  0.0959
  779loPI   PO412124   2.844   6.263   5.667  0.0484 -0.2159 -0.1644
  779loPI   GL112125   2.519   6.359   6.096 -0.1581 -0.0684  0.2069
  779loPI   GL212126   2.883   6.367   6.245  0.0340 -0.2254  0.1392
  779loPI   C1A12127   2.149   6.323   6.424  0.0506  0.0321  0.1581
  779loPI   C2A12128   2.099   6.244   6.789  0.1474  0.1956 -0.1526
  779loPI   C3A12129   2.087   6.292   7.196  0.0782  0.2416 -0.0850
  779loPI   C4A12130   2.172   6.245   7.595 -0.3046 -0.0798  0.4840
  779loPI   C5A12131   2.159   6.373   7.969 -0.3154 -0.0542  0.2257
  779loPI   C6A12132   2.367   6.460   8.329 -0.1717 -0.2141 -0.0576
  779loPI   C1B12133   3.034   6.191   6.608 -0.1393 -0.1007 -0.0966
  779loPI   C2B12134   2.990   6.257   7.064 -0.2037 -0.1202 -0.1904
  779loPI   C3B12135   3.041   6.131   7.481 -0.2220  0.1785 -0.1038
  779loPI   C4B12136   3.078   6.263   7.909 -0.2075 -0.1471 -0.2740
  780loPI    C112137   8.715   9.066   5.933 -0.0973  0.2856 -0.1569
  780loPI    C212138   9.044   9.028   5.708  0.1286 -0.0115  0.2112
  780loPI    C312139   8.683   8.961   5.549  0.2744 -0.0954 -0.0908
  780loPI   PO412140   8.825   9.235   6.106  0.0187  0.0334 -0.3529
  780loPI   GL112141   9.178   9.189   6.487 -0.1209 -0.2676  0.0289
  780loPI   GL212142   9.215   8.926   6.206 -0.0468  0.1665  0.0279
  780loPI   C1A12143   9.143   9.155   6.932 -0.2128  0.1062  0.1467
  780loPI   C2A12144   9.246   9.168   7.321  0.0675 -0.1618 -0.0596
  780loPI   C3A12145   9.249   9.214   7.745 -0.2064 -0.1125  0.0757
  780loPI   C4A12146   9.223   9.343   8.184 -0.1238 -0.1862 -0.0198
  780loPI   C5A12147   9.572   9.293   8.539 -0.0770 -0.0788  0.0142
  780loPI   C6A12148   9.649   9.034   8.842  0.1318 -0.2057  0.0857
  780loPI   C1B12149   9.133   8.682   6.645 -0.0777 -0.3596 -0.0401
  780loPI   C2B12150   9.075   8.702   7.111  0.0672 -0.3864 -0.1313
  780loPI   C3B12151   9.111   8.783   7.606  0.2484  0.1823  0.0739
  780loPI   C4B12152   9.108   8.735   8.048  0.0572  0.1787  0.2395
  781loPI    C112153  12.748   2.478   5.833 -0.0731 -0.1594  0.1942
  781loPI    C212154  12.883   2.537   5.462 -0.0886  0.0709  0.2236
  781loPI    C312155  12.532   2.355   5.520 -0.0620 -0.0119  0.1277
  781loPI   PO412156  12.805   2.692   5.939 -0.2623 -0.0509  0.1317
  781loPI   GL112157  12.834   2.799   6.321 -0.1079 -0.0820 -0.0272
  781loPI   GL212158  13.038   2.885   6.380 -0.0510 -0.0478  0.3852
  781loPI   C1A12159  12.543   2.925   6.621  0.1539 -0.0971 -0.0450
  781loPI   C2A12160  12.537   2.894   7.124 -0.0404 -0.0930  0.2953
  781loPI   C3A12161  12.514   2.943   7.506  0.2587 -0.2077 -0.2985
  781loPI   C4A12162  12.566   2.838   7.971  0.0963  0.0314  0.0236
  781loPI   C5A12163  12.664   2.778   8.452 -0.0451  0.1753 -0.0993
  781loPI   C6A12164  12.821   2.629   8.949  0.0699  0.0579 -0.2670
  781loPI   C1B12165  13.025   2.985   6.881 -0.0490 -0.0549 -0.1368
  781loPI   C2B12166  12.967   3.127   7.254 -0.1941  0.2643 -0.0292
  781loPI   C3B12167  12.998   2.998   7.659  0.1064 -0.0119  0.1844
  781loPI   C4B12168  13.090   2.986   8.145  0.1707  0.0376  0.2779
  782loPI    C112169  14.321   0.818   5.763  0.1345  0.0373  0.0775
  782loPI    C212170  14.296   1.141   5.528 -0.1269 -0.1076 -0.0984
  782loPI    C312171  14.532   0.835   5.423  0.0491 -0.0144  0.0216
  782loPI   PO412172  14.437   0.942   6.025 -0.0005 -0.1720 -0.1229
  782loPI   GL112173  14.291   1.056   6.376 -0.0445  0.0165 -0.0956
  782loPI   GL212174  14.411   0.721   6.473 -0.2152 -0.0454  0.3031
  782loPI   C1A12175  14.364   1.032   6.834  0.3361 -0.0257 -0.1052
  782loPI   C2A12176  14.382   0.997   7.211 -0.2178  0.1135 -0.4129
  782loPI   C3A12177  14.446   1.128   7.642  0.1371  0.1306  0.0159
  782loPI   C4A12178  14.534   1.146   8.108  0.0815  0.0061  0.1365
  782loPI   C5A12179  14.608   1.013   8.435  0.3000 -0.2463 -0.1315
  782loPI   C6A12180  14.935   0.864   8.656 -0.0729  0.1392 -0.0593
  782loPI   C1B12181  14.698   0.683   6.863  0.1491 -0.1821  0.0587
  782loPI   C2B12182  14.841   0.760   7.313 -0.0867  0.1436  0.0641
  782loPI   C3B12183  14.812   0.861   7.704  0.1629 -0.0101  0.2074
  782loPI   C4B12184  14.866   0.784   8.094 -0.1235  0.0407  0.0387
  783loPI    C112185  12.099  17.429   5.915 -0.0104  0.0124  0.2059
  783loPI    C212186  11.931  17.324   5.567  0.0543 -0.0919  0.2060
  783loPI    C312187  12.215  17.606   5.576 -0.0510  0.0149  0.1933
  783loPI   PO412188  12.148  17.206   6.068  0.0605  0.0614  0.0833
  783loPI   GL112189  12.079  17.047   6.448  0.1541  0.1084 -0.3074
  783loPI   GL212190  12.384  17.050   6.555 -0.2326 -0.1059  0.2240
  783loPI   C1A12191  11.880  16.939   6.854  0.2169  0.0805 -0.0312
  783loPI   C2A12192  11.812  16.955   7.303 -0.0138 -0.0948  0.2172
  783loPI   C3A12193  11.895  16.966   7.663 -0.4848 -0.0874  0.1716
  783loPI   C4A12194  11.921  16.967   8.122 -0.1444  0.0082  0.0449
  783loPI   C5A12195  12.148  16.928   8.608 -0.1009 -0.0533  0.0796
  783loPI   C6A12196  12.252  17.307   8.743  0.1104 -0.1144  0.0640
  783loPI   C1B12197  12.338  17.079   7.006 -0.3340 -0.4430  0.0086
  783loPI   C2B12198  12.347  17.118   7.362  0.1518 -0.1796 -0.0933
  783loPI   C3B12199  12.371  17.086   7.827 -0.3761  0.1076 -0.0179
  783loPI   C4B12200  12.381  17.164   8.242 -0.0421  0.0519  0.2153
  784loPI    C112201  13.194   7.323   5.457 -0.1628  0.0605 -0.0662
  784loPI    C212202  12.850   7.461   5.308 -0.0902  0.1476 -0.1549
  784loPI    C312203  13.142   7.716   5.403 -0.1247  0.0907  0.1112
  784loPI   PO412204  13.140   7.140   5.602 -0.0533 -0.2480 -0.0655
  784loPI   GL112205  13.183   7.165   6.040  0.1999  0.2462  0.0423
  784loPI   GL212206  12.953   7.358   6.229 -0.2109  0.0741 -0.2240
  784loPI   C1A12207  13.353   7.026   6.398 -0.1647  0.1086 -0.4396
  784loPI   C2A12208  13.369   7.005   6.923 -0.0656 -0.1902  0.2111
  784loPI   C3A12209  13.373   7.017   7.319  0.0044 -0.0472  0.0070
  784loPI   C4A12210  13.273   6.982   7.786 -0.0456  0.0733 -0.0941
  784loPI   C5A12211  13.317   6.889   8.293 -0.1033  0.0975 -0.0710
  784loPI   C6A12212  13.599   6.675   8.428 -0.0937  0.0202 -0.3058
  784loPI   C1B12213  12.990   7.309   6.646  0.0721 -0.2224 -0.1015
  784loPI   C2B12214  13.011   7.336   7.118 -0.1328 -0.2157  0.0052
  784loPI   C3B12215  12.965   7.315   7.521  0.0909 -0.1141  0.2138
  784loPI   C4B12216  12.925   7.369   7.968  0.0599 -0.1327 -0.2367
  785loPI    C112217   6.002   9.921   5.644 -0.0444 -0.1957  0.1071
  785loPI    C212218   6.073   9.574   5.459 -0.1085 -0.0666 -0.1645
  785loPI    C312219   6.100   9.918   5.256  0.1781  0.1066  0.1569
  785loPI   PO412220   5.810   9.899   5.756 -0.2155  0.3789 -0.1032
  785loPI   GL112221   5.825  10.030   6.212  0.2870 -0.0400  0.0212
  785loPI   GL212222   5.575   9.890   6.232  0.0528 -0.1493 -0.2852
  785loPI   C1A12223   6.032  10.186   6.556 -0.2970 -0.1275  0.0052
  785loPI   C2A12224   5.948  10.297   6.972 -0.0674  0.0296  0.1823
  785loPI   C3A12225   6.174  10.181   7.295  0.2399 -0.0785 -0.0113
  785loPI   C4A12226   6.173  10.132   7.776 -0.1951  0.3988 -0.1679
  785loPI   C5A12227   6.237   9.979   8.215 -0.1629 -0.2432 -0.4078
  785loPI   C6A12228   6.391   9.571   8.389 -0.0715 -0.2539 -0.1628
  785loPI   C1B12229   5.515   9.964   6.664 -0.1899 -0.2147 -0.2515
  785loPI   C2B12230   5.467   9.865   7.102  0.1386  0.2201 -0.0256
  785loPI   C3B12231   5.462   9.986   7.542  0.0490 -0.1194  0.2147
  785loPI   C4B12232   5.644   9.944   8.022  0.0373 -0.3322  0.0146
  786loPI    C112233  16.268   1.359   5.557 -0.0532  0.0043 -0.2781
  786loPI    C212234  16.220   1.756   5.550 -0.0781  0.0057 -0.0792
  786loPI    C312235  15.951   1.519   5.373 -0.1650  0.0691 -0.0327
  786loPI   PO412236  16.308   1.308   5.856  0.0687  0.2006 -0.0890
  786loPI   GL112237  16.044   1.235   6.296  0.1089  0.1883 -0.4247
  786loPI   GL212238  16.352   1.293   6.486  0.1043  0.0524 -0.1052
  786loPI   C1A12239  15.813   1.176   6.703  0.0936  0.3183  0.3060
  786loPI   C2A12240  15.780   1.183   7.161  0.2890 -0.0570 -0.1340
  786loPI   C3A12241  15.784   1.113   7.608  0.0759 -0.0046  0.2351
  786loPI   C4A12242  15.821   0.986   8.078 -0.0604  0.1400 -0.1116
  786loPI   C5A12243  15.860   1.063   8.425 -0.1219  0.1636 -0.4004
  786loPI   C6A12244  16.111   0.846   8.715 -0.2236 -0.0284  0.1464
  786loPI   C1B12245  16.258   1.308   6.875 -0.3512 -0.0144 -0.1643
  786loPI   C2B12246  16.320   1.256   7.342 -0.0786 -0.0898 -0.0917
  786loPI   C3B12247  16.316   1.242   7.749  0.2068  0.0810  0.1577
  786loPI   C4B12248  16.327   1.150   8.195 -0.2213 -0.2174 -0.1599
  787loPI    C112249   0.516   2.574   5.886  0.2192 -0.2171 -0.1658
  787loPI    C212250   0.413   2.382   5.551 -0.2658 -0.1809 -0.0439
  787loPI    C312251   0.492   2.774   5.541 -0.0036 -0.2351 -0.1621
  787loPI   PO412252   0.680   2.342   6.025  0.2076  0.2922 -0.1741
  787loPI   GL112253   0.776   2.305   6.413 -0.0319  0.0710 -0.0174
  787loPI   GL212254   0.526   2.097   6.471  0.0571 -0.1729  0.2158
  787loPI   C1A12255   0.696   2.416   6.806 -0.2139  0.1698  0.3272
  787loPI   C2A12256   0.726   2.365   7.191  0.1522 -0.4381 -0.1504
  787loPI   C3A12257   0.745   2.433   7.557 -0.2068  0.2987 -0.2847
  787loPI   C4A12258   0.682   2.324   7.949  0.0899 -0.0398 -0.2867
  787loPI   C5A12259   0.628   2.351   8.328 -0.0774  0.2635 -0.1733
  787loPI   C6A12260   0.815   2.224   8.639 -0.1776 -0.0397  0.1840
  787loPI   C1B12261   0.268   2.247   6.765 -0.0155  0.1136 -0.0174
  787loPI   C2B12262   0.229   2.286   7.139 -0.1675  0.2477 -0.0044
  787loPI   C3B12263   0.233   2.276   7.560 -0.1008 -0.1376 -0.0253
  787loPI   C4B12264   0.214   2.155   8.039 -0.1155  0.2796 -0.0904
  788loPI    C112265   4.319  14.157   5.829  0.2423 -0.2339 -0.2317
  788loPI    C212266   4.676  14.101   6.002  0.1576 -0.3893 -0.1055
  788loPI    C312267   4.584  13.905   5.666  0.0983 -0.5398 -0.0027
  788loPI   PO412268   4.157  14.106   5.958 -0.2095 -0.0745 -0.1789
  788loPI   GL112269   3.752  14.124   6.223 -0.2490  0.1565 -0.1840
  788loPI   GL212270   3.472  13.931   6.340 -0.1163 -0.0218 -0.0161
  788loPI   C1A12271   4.058  14.220   6.560  0.0068  0.1796 -0.1406
  788loPI   C2A12272   3.975  14.144   7.045  0.2831 -0.2262 -0.1638
  788loPI   C3A12273   3.992  14.200   7.427 -0.1510  0.0681 -0.4579
  788loPI   C4A12274   4.151  14.177   7.897  0.0985  0.0937 -0.4383
  788loPI   C5A12275   4.235  14.353   8.187 -0.0682 -0.2144 -0.3353
  788loPI   C6A12276   4.541  14.439   8.642  0.0882 -0.0591 -0.1347
  788loPI   C1B12277   3.583  14.099   6.747  0.0192  0.0225  0.1284
  788loPI   C2B12278   3.496  14.001   7.222 -0.0074 -0.1098 -0.2481
  788loPI   C3B12279   3.483  13.928   7.624 -0.0546 -0.0051  0.3147
  788loPI   C4B12280   3.645  13.924   8.046 -0.1653 -0.2858  0.1502
  789loPI    C112281  13.232  15.792   6.235 -0.0361 -0.0500 -0.0573
  789loPI    C212282  13.387  16.160   6.257  0.0635 -0.0939 -0.0105
  789loPI    C312283  13.513  15.907   5.974 -0.0813 -0.0571 -0.1093
  789loPI   PO412284  13.282  15.662   6.432  0.0507  0.0662  0.1660
  789loPI   GL112285  12.983  15.570   6.707  0.1125  0.2350 -0.0639
  789loPI   GL212286  12.688  15.716   6.784  0.0604 -0.1182 -0.0026
  789loPI   C1A12287  12.908  15.388   7.082 -0.0030  0.1652 -0.4017
  789loPI   C2A12288  12.958  15.472   7.486  0.1834  0.2786  0.1382
  789loPI   C3A12289  13.131  15.444   7.879  0.0596  0.1677  0.1170
  789loPI   C4A12290  13.213  15.501   8.314 -0.3319  0.0765  0.3911
  789loPI   C5A12291  13.018  15.758   8.628  0.1640  0.1895 -0.0683
  789loPI   C6A12292  13.146  16.284   8.794  0.0169  0.0861 -0.0414
  789loPI   C1B12293  12.558  15.781   7.210 -0.0105 -0.0834  0.0269
  789loPI   C2B12294  12.564  15.803   7.630 -0.0984  0.1343  0.2106
  789loPI   C3B12295  12.733  15.695   8.091  0.2987  0.0069 -0.0744
  789loPI   C4B12296  12.574  15.656   8.505  0.2641  0.1069 -0.0436
  790loPI    C112297  17.175  16.758   5.395 -0.0686 -0.2294 -0.0309
  790loPI    C212298  16.905  16.480   5.297 -0.4209  0.0353  0.1625
  790loPI    C312299  16.914  16.828   5.100  0.1004 -0.1510 -0.1632
  790loPI   PO412300  17.198  16.787   5.701 -0.3772 -0.1344 -0.3144
  790loPI   GL112301  16.940  17.025   6.165 -0.3096 -0.2053 -0.0036
  790loPI   GL212302  17.249  16.894   6.261  0.3392 -0.1563 -0.2439
  790loPI   C1A12303  16.790  17.187   6.581 -0.2501  0.1225 -0.2226
  790loPI   C2A12304  16.796  17.232   6.944 -0.2592 -0.3457 -0.1224
  790loPI   C3A12305  16.856  17.179   7.406 -0.0426  0.1338 -0.1800
  790loPI   C4A12306  16.794  17.198   7.756  0.1139 -0.0772 -0.0698
  790loPI   C5A12307  16.853  17.203   8.157  0.0599 -0.3730 -0.1304
  790loPI   C6A12308  16.885  17.108   8.543 -0.3387  0.1126 -0.3331
  790loPI   C1B12309  17.196  16.890   6.724  0.2604 -0.5134  0.0853
  790loPI   C2B12310  17.156  16.807   7.122  0.0842 -0.0867 -0.0348
  790loPI   C3B12311  17.253  16.911   7.556 -0.1506 -0.1407 -0.2261
  790loPI   C4B12312  17.235  16.888   8.051 -0.1640 -0.0654  0.0516
  791loPI    C112313  10.761  14.309   5.764  0.1839 -0.1058 -0.0480
  791loPI    C212314  10.948  14.040   5.993  0.0963 -0.1764 -0.0588
  791loPI    C312315  10.982  14.021   5.595  0.0089 -0.2322 -0.0637
  791loPI   PO412316  10.935  14.537   5.913 -0.1571 -0.2775 -0.0100
  791loPI   GL112317  10.940  14.531   6.295  0.0442  0.0737 -0.0780
  791loPI   GL212318  11.043  14.806   6.517 -0.0574 -0.0285  0.0147
  791loPI   C1A12319  11.035  14.298   6.666  0.0969 -0.1430 -0.2107
  791loPI   C2A12320  10.931  14.210   7.065 -0.1676  0.2035 -0.3291
  791loPI   C3A12321  10.966  14.168   7.490 -0.1751  0.0386  0.1200
  791loPI   C4A12322  11.037  14.147   7.922 -0.4076 -0.1390  0.3129
  791loPI   C5A12323  11.102  14.129   8.406  0.1383 -0.0957 -0.1185
  791loPI   C6A12324  11.156  14.338   8.771 -0.0460 -0.1585 -0.0502
  791loPI   C1B12325  11.038  14.740   6.952  0.0800 -0.0903 -0.2579
  791loPI   C2B12326  11.030  14.690   7.397  0.2005 -0.1919 -0.4979
  791loPI   C3B12327  11.159  14.682   7.831 -0.0783 -0.0492 -0.0793
  791loPI   C4B12328  10.963  14.673   8.240  0.0000  0.0103 -0.2322
  792loPI    C112329   0.184  11.417   5.623 -0.1277 -0.0791 -0.2056
  792loPI    C212330   0.578  11.475   5.580 -0.0822 -0.2066  0.0202
  792loPI    C312331   0.354  11.377   5.263  0.0595 -0.0924 -0.1169
  792loPI   PO412332   0.170  11.461   5.849 -0.0820  0.2103  0.0373
  792loPI   GL112333  -0.040  11.578   6.177 -0.0148 -0.1659 -0.0827
  792loPI   GL212334   0.035  11.219   6.292  0.2546  0.0526 -0.3083
  792loPI   C1A12335   0.001  11.717   6.558 -0.0154  0.0090  0.4137
  792loPI   C2A12336  -0.043  11.715   7.076  0.1653 -0.0847  0.0893
  792loPI   C3A12337  -0.178  11.714   7.474 -0.2104  0.1683  0.1519
  792loPI   C4A12338  -0.141  11.727   7.913  0.0291  0.0506 -0.1535
  792loPI   C5A12339  -0.405  11.897   8.244 -0.0414 -0.3598 -0.1108
  792loPI   C6A12340  -0.492  11.932   8.711 -0.0083  0.0853  0.1799
  792loPI   C1B12341  -0.111  11.266   6.812 -0.2290 -0.0700 -0.1687
  792loPI   C2B12342  -0.254  11.214   7.348  0.2813 -0.0776 -0.2593
  792loPI   C3B12343  -0.239  11.140   7.759  0.1026  0.0872  0.0223
  792loPI   C4B12344   0.016  11.270   8.150  0.2276  0.0355  0.0328
  793loPI    C112345   8.204  15.263   5.230  0.1874 -0.0519  0.0856
  793loPI    C212346   8.534  15.363   5.028  0.0684  0.0962 -0.0373
  793loPI    C312347   8.296  15.073   4.890  0.0991  0.0516  0.0034
  793loPI   PO412348   8.335  15.153   5.567  0.5347  0.0379 -0.0258
  793loPI   GL112349   8.375  15.421   5.920  0.0659 -0.2774 -0.1736
  793loPI   GL212350   8.421  15.157   6.239  0.3251 -0.1605  0.2119
  793loPI   C1A12351   8.465  15.675   6.433 -0.0696 -0.1628 -0.2375
  793loPI   C2A12352   8.447  15.660   6.883  0.1369 -0.2812 -0.0643
  793loPI   C3A12353   8.469  15.736   7.318  0.1579 -0.0519 -0.0748
  793loPI   C4A12354   8.657  15.627   7.670  0.0863  0.2317  0.0708
  793loPI   C5A12355   8.488  15.605   8.062 -0.1783 -0.1858  0.1233
  793loPI   C6A12356   8.460  15.390   8.433 -0.1795  0.0916  0.1175
  793loPI   C1B12357   8.361  15.162   6.674  0.2091  0.0091  0.2396
  793loPI   C2B12358   8.416  15.248   7.201 -0.1995  0.2270  0.0850
  793loPI   C3B12359   8.385  15.109   7.516 -0.1424 -0.0847  0.2431
  793loPI   C4B12360   8.425  15.138   7.937 -0.1279 -0.0249 -0.3366
  794loPI    C112361   5.858  13.636   5.363  0.1937  0.0382 -0.0530
  794loPI    C212362   6.165  13.436   5.524 -0.0614  0.0057  0.4111
  794loPI    C312363   5.845  13.237   5.389  0.0019  0.0577  0.1782
  794loPI   PO412364   5.840  13.808   5.542  0.0887  0.1990 -0.1462
  794loPI   GL112365   6.074  13.679   5.906 -0.4433 -0.3413 -0.0998
  794loPI   GL212366   5.957  13.944   5.996  0.0701  0.0194 -0.1887
  794loPI   C1A12367   5.953  13.421   6.222 -0.0968  0.0128  0.1295
  794loPI   C2A12368   5.774  13.360   6.659 -0.0380  0.0157  0.0748
  794loPI   C3A12369   5.760  13.311   7.027  0.1653  0.1237  0.1478
  794loPI   C4A12370   5.779  13.310   7.460  0.1431 -0.0341 -0.1185
  794loPI   C5A12371   5.788  13.260   7.935  0.0146 -0.0097 -0.1026
  794loPI   C6A12372   5.825  13.220   8.278  0.1160 -0.1104  0.1163
  794loPI   C1B12373   5.882  13.830   6.455  0.0452 -0.3674  0.1688
  794loPI   C2B12374   5.816  13.859   6.907 -0.0836  0.1039  0.1227
  794loPI   C3B12375   5.897  13.895   7.360  0.0218 -0.0375  0.0308
  794loPI   C4B12376   5.922  13.776   7.762  0.1003  0.3420 -0.1592
  795loPI    C112377   2.756   1.021   5.510 -0.0498  0.0287  0.0221
  795loPI    C212378   2.664   1.366   5.329  0.2618  0.0477 -0.1083
  795loPI    C312379   2.538   1.019   5.175 -0.2516  0.1087  0.1515
  795loPI   PO412380   2.736   1.060   5.800  0.4674  0.1886  0.0135
  795loPI   GL112381   2.617   1.182   6.219  0.1520 -0.3969  0.1149
  795loPI   GL212382   2.608   0.770   6.255 -0.1447  0.3489  0.1305
  795loPI   C1A12383   2.781   1.237   6.602  0.0318  0.2426 -0.0621
  795loPI   C2A12384   2.725   1.164   7.050  0.1984 -0.1610  0.2146
  795loPI   C3A12385   2.776   1.150   7.509  0.1485 -0.2612  0.1265
  795loPI   C4A12386   2.796   1.247   7.867  0.0376  0.1178  0.0584
  795loPI   C5A12387   2.723   1.097   8.280 -0.4140 -0.2296 -0.0025
  795loPI   C6A12388   2.711   0.986   8.787  0.0999  0.1060 -0.2358
  795loPI   C1B12389   2.556   0.750   6.602 -0.1240 -0.2626 -0.0805
  795loPI   C2B12390   2.595   0.685   7.046  0.0147  0.0080  0.0608
  795loPI   C3B12391   2.641   0.687   7.460 -0.2135  0.0634  0.0937
  795loPI   C4B12392   2.627   0.757   7.893  0.1170 -0.0581 -0.0213
  796loPI    C112393   9.877  12.751   5.524 -0.1229  0.0111 -0.1573
  796loPI    C212394   9.586  12.477   5.536  0.2867 -0.4334 -0.0706
  796loPI    C312395   9.697  12.635   5.186 -0.1192 -0.1835 -0.0935
  796loPI   PO412396   9.870  12.874   5.790  0.0309  0.0878  0.4121
  796loPI   GL112397  10.033  12.791   6.210  0.1672  0.0383  0.0039
  796loPI   GL212398   9.698  12.959   6.248  0.3169 -0.1051 -0.3327
  796loPI   C1A12399   9.920  12.747   6.679 -0.1826 -0.0499  0.0098
  796loPI   C2A12400   9.904  12.781   7.100 -0.3127  0.2023 -0.1198
  796loPI   C3A12401   9.932  12.775   7.504 -0.0850  0.0204  0.0448
  796loPI   C4A12402   9.841  12.755   7.915  0.0827 -0.2122  0.2417
  796loPI   C5A12403   9.884  12.807   8.363 -0.1670  0.1163  0.0548
  796loPI   C6A12404   9.634  12.949   8.532 -0.5319  0.1206  0.0657
  796loPI   C1B12405   9.512  13.055   6.718 -0.1795 -0.1211 -0.0528
  796loPI   C2B12406   9.442  13.112   7.146 -0.0557  0.2537 -0.0823
  796loPI   C3B12407   9.411  13.099   7.542 -0.1720 -0.0399 -0.3398
  796loPI   C4B12408   9.560  13.089   7.996 -0.0222 -0.1371  0.2200
  797loPI    C112409   1.013  16.512   5.692  0.1589 -0.0796  0.0726
  797loPI    C212410   1.111  16.614   5.318  0.0623 -0.0561  0.0534
  797loPI    C312411   0.811  16.358   5.383  0.1519 -0.1475  0.1108
  797loPI   PO412412   1.139  16.727   5.868 -0.0617  0.0057  0.1057
  797loPI   GL112413   1.283  16.823   6.271  0.0802 -0.2401 -0.1877
  797loPI   GL212414   1.393  17.110   6.378 -0.1864  0.0309  0.1393
  797loPI   C1A12415   1.320  16.478   6.585 -0.0861  0.1271  0.1909
  797loPI   C2A12416   1.340  16.455   7.050  0.0567 -0.1918  0.0993
  797loPI   C3A12417   1.358  16.591   7.416 -0.0078  0.1547 -0.0720
  797loPI   C4A12418   1.363  16.507   7.783  0.1140 -0.1801 -0.1301
  797loPI   C5A12419   1.289  16.466   8.261 -0.1605  0.5897  0.0606
  797loPI   C6A12420   1.526  16.538   8.598  0.1288  0.0314  0.2379
  797loPI   C1B12421   1.366  17.019   6.823 -0.1485  0.1630 -0.1185
  797loPI   C2B12422   1.448  17.003   7.262  0.2819 -0.0369  0.2094
  797loPI   C3B12423   1.441  17.031   7.781  0.0603 -0.4206 -0.1249
  797loPI   C4B12424   1.493  16.990   8.250 -0.2017 -0.1980 -0.3295
  798loPI    C112425   8.256  14.334   5.651 -0.1495  0.0867 -0.2038
  798loPI    C212426   8.426  14.324   5.289  0.0820  0.0426 -0.0951
  798loPI    C312427   8.074  14.145   5.349  0.0016  0.1228 -0.3187
  798loPI   PO412428   8.356  14.215   5.815  0.2369 -0.1880  0.0073
  798loPI   GL112429   8.771  14.101   6.064  0.0828  0.1698 -0.4256
  798loPI   GL212430   8.597  13.811   6.200 -0.3427  0.0216  0.0621
  798loPI   C1A12431   8.650  14.283   6.492  0.0389 -0.0834  0.1002
  798loPI   C2A12432   8.700  14.341   6.935 -0.1184  0.2138 -0.0220
  798loPI   C3A12433   8.663  14.331   7.303  0.0840  0.0923 -0.3000
  798loPI   C4A12434   8.786  14.317   7.717 -0.0874  0.1144  0.2718
  798loPI   C5A12435   8.750  14.320   8.088  0.2235 -0.0680  0.3531
  798loPI   C6A12436   8.878  14.434   8.496 -0.0199  0.1982  0.0198
  798loPI   C1B12437   8.650  13.806   6.655 -0.1471  0.0612  0.0850
  798loPI   C2B12438   8.584  13.880   7.110  0.2080  0.0360  0.0996
  798loPI   C3B12439   8.590  13.809   7.495 -0.0093 -0.0822  0.1205
  798loPI   C4B12440   8.577  13.755   7.967 -0.1674  0.0160  0.2136
  799loPI    C112441   1.044   7.288   5.682  0.1844 -0.1914  0.1761
  799loPI    C212442   1.328   7.152   5.435  0.0504  0.0964 -0.1460
  799loPI    C312443   0.979   6.959   5.464  0.1466 -0.0611 -0.0113
  799loPI   PO412444   1.231   7.438   5.865 -0.0623  0.0428  0.2683
  799loPI   GL112445   1.210   7.524   6.198 -0.2071  0.1820  0.1658
  799loPI   GL212446   1.147   7.803   6.334 -0.0011 -0.0031 -0.1973
  799loPI   C1A12447   1.414   7.468   6.557  0.1426  0.2687 -0.1397
  799loPI   C2A12448   1.484   7.499   6.990 -0.3211  0.1046 -0.1839
  799loPI   C3A12449   1.422   7.524   7.425 -0.0823 -0.1081  0.0168
  799loPI   C4A12450   1.378   7.470   7.907  0.0650 -0.0617  0.2774
  799loPI   C5A12451   1.675   7.309   8.291  0.0145  0.0439  0.0431
  799loPI   C6A12452   1.658   7.387   8.788  0.1522 -0.1108 -0.1812
  799loPI   C1B12453   1.085   7.751   6.789 -0.2764 -0.0439 -0.0801
  799loPI   C2B12454   1.033   7.786   7.184  0.1818  0.2436  0.2088
  799loPI   C3B12455   1.047   7.838   7.674  0.0990  0.0873 -0.0423
  799loPI   C4B12456   1.068   7.779   8.140 -0.2152  0.0536 -0.1468
  800loPI    C112457  11.371   2.860   5.730  0.3146  0.1239 -0.1222
  800loPI    C212458  11.148   2.561   5.586  0.0879  0.1414  0.1829
  800loPI    C312459  11.536   2.585   5.491  0.0715 -0.1575  0.0280
  800loPI   PO412460  11.224   2.895   5.950  0.0452 -0.0660  0.0247
  800loPI   GL112461  10.881   2.765   6.274 -0.2752  0.0150 -0.0371
  800loPI   GL212462  10.639   2.831   6.419  0.0136 -0.0996  0.0923
  800loPI   C1A12463  11.085   2.832   6.642 -0.2823  0.1042  0.1934
  800loPI   C2A12464  11.158   2.928   7.040 -0.0973 -0.3325 -0.2050
  800loPI   C3A12465  11.203   2.943   7.431 -0.2280  0.0000 -0.2607
  800loPI   C4A12466  11.046   2.886   7.843  0.0987 -0.1395  0.0837
  800loPI   C5A12467  11.197   2.724   8.181  0.3647  0.0613 -0.5658
  800loPI   C6A12468  11.104   2.469   8.438  0.0068  0.1550 -0.0590
  800loPI   C1B12469  10.603   2.680   6.824 -0.1796  0.0346  0.0755
  800loPI   C2B12470  10.687   2.722   7.250  0.2162 -0.0439  0.0160
  800loPI   C3B12471  10.622   2.748   7.638  0.0761 -0.0832 -0.0664
  800loPI   C4B12472  10.679   2.669   8.121  0.2038  0.1233  0.1114
  801loPI    C112473  10.991  11.088   5.623 -0.0015 -0.0071  0.2029
  801loPI    C212474  11.095  11.413   5.833  0.0471  0.1027  0.0121
  801loPI    C312475  11.100  11.424   5.434  0.0314 -0.1285  0.0042
  801loPI   PO412476  11.129  10.927   5.855 -0.1554 -0.3894 -0.0706
  801loPI   GL112477  11.004  10.734   6.196  0.3435 -0.0213 -0.0842
  801loPI   GL212478  11.243  10.509   6.162  0.1452 -0.2288 -0.2665
  801loPI   C1A12479  10.841  10.832   6.550  0.1820 -0.1638  0.1302
  801loPI   C2A12480  10.833  10.755   6.931  0.0866  0.0763 -0.0617
  801loPI   C3A12481  10.880  10.700   7.328  0.2106 -0.3102  0.1275
  801loPI   C4A12482  10.899  10.795   7.684  0.1512  0.1164  0.0319
  801loPI   C5A12483  11.043  10.740   8.063  0.1559 -0.2154 -0.3048
  801loPI   C6A12484  10.782  10.716   8.408 -0.1164  0.3288 -0.1858
  801loPI   C1B12485  11.258  10.502   6.658 -0.0432  0.0821 -0.0771
  801loPI   C2B12486  11.296  10.504   7.098 -0.0885  0.0062 -0.0953
  801loPI   C3B12487  11.335  10.415   7.575  0.3664 -0.0048  0.2547
  801loPI   C4B12488  11.479  10.459   8.034 -0.2793  0.2771  0.0220
  802loPI    C112489   0.255  17.233   5.685  0.0297 -0.1100  0.0530
  802loPI    C212490   0.129  17.211   5.306  0.1116 -0.0317  0.0209
  802loPI    C312491   0.099  17.556   5.507  0.0270 -0.0850  0.1005
  802loPI   PO412492   0.091  17.057   5.826 -0.0387  0.0009  0.1245
  802loPI   GL112493   0.147  16.793   6.266 -0.0386  0.4863  0.0156
  802loPI   GL212494   0.401  16.693   6.378 -0.1127 -0.2822  0.2537
  802loPI   C1A12495  -0.017  16.973   6.640 -0.3100 -0.0663  0.0675
  802loPI   C2A12496  -0.050  16.961   7.082 -0.1217 -0.2963 -0.0830
  802loPI   C3A12497   0.103  17.035   7.458 -0.0313 -0.0105  0.1614
  802loPI   C4A12498   0.028  17.001   7.927  0.0703 -0.0266  0.2395
  802loPI   C5A12499   0.156  16.948   8.276  0.0384  0.1944 -0.1553
  802loPI   C6A12500   0.127  17.192   8.624 -0.0299  0.2376  0.0927
  802loPI   C1B12501   0.425  16.685   6.765 -0.1931 -0.0264 -0.2379
  802loPI   C2B12502   0.568  16.689   7.289 -0.1105  0.0648 -0.2415
  802loPI   C3B12503   0.507  16.733   7.709  0.1735 -0.0455 -0.0525
  802loPI   C4B12504   0.529  16.585   8.122  0.0058 -0.1039  0.2081
  803loPI    C112505   7.445  16.475   5.878  0.4364  0.0125 -0.0600
  803loPI    C212506   7.150  16.667   5.687  0.1318  0.0350  0.4135
  803loPI    C312507   7.438  16.483   5.478 -0.2025  0.0292 -0.0596
  803loPI   PO412508   7.448  16.350   6.046  0.0455  0.2867  0.0265
  803loPI   GL112509   7.315  16.051   6.311  0.2571 -0.3782 -0.0673
  803loPI   GL212510   7.553  15.879   6.380  0.0733  0.2603  0.2125
  803loPI   C1A12511   7.206  16.203   6.711  0.0034  0.1230  0.0416
  803loPI   C2A12512   7.177  16.225   7.208 -0.2829 -0.1739 -0.0007
  803loPI   C3A12513   7.335  16.252   7.603 -0.2264  0.1398 -0.4439
  803loPI   C4A12514   7.166  16.317   8.040  0.1649  0.1092 -0.3159
  803loPI   C5A12515   7.347  16.287   8.463  0.3446  0.0551  0.1874
  803loPI   C6A12516   7.783  16.401   8.688 -0.0237  0.3011  0.2303
  803loPI   C1B12517   7.587  15.811   6.829 -0.0377  0.1983  0.0402
  803loPI   C2B12518   7.556  15.781   7.220 -0.3732 -0.1795 -0.1383
  803loPI   C3B12519   7.673  15.863   7.655  0.1552 -0.0405  0.0052
  803loPI   C4B12520   7.614  15.987   8.101 -0.1409  0.1041 -0.0246
  804loPI    C112521   4.105   6.833   5.602  0.0095 -0.0871 -0.0515
  804loPI    C212522   4.172   6.570   5.308  0.3110  0.0166 -0.0789
  804loPI    C312523   4.086   6.951   5.220  0.1302 -0.0130 -0.0350
  804loPI   PO412524   4.094   6.736   5.816 -0.0193  0.1945 -0.1110
  804loPI   GL112525   3.910   6.874   6.175 -0.0572  0.2947  0.1854
  804loPI   GL212526   4.122   7.120   6.308 -0.1057  0.0258 -0.1988
  804loPI   C1A12527   3.674   6.771   6.408  0.2625  0.1757 -0.2296
  804loPI   C2A12528   3.566   6.868   6.777  0.1675 -0.1555 -0.0922
  804loPI   C3A12529   3.582   6.806   7.201  0.0452  0.0026  0.2831
  804loPI   C4A12530   3.577   6.909   7.642 -0.0769  0.0847  0.0411
  804loPI   C5A12531   3.658   6.830   8.030  0.2939  0.2405 -0.0750
  804loPI   C6A12532   3.744   7.055   8.370 -0.1170 -0.1462 -0.1797
  804loPI   C1B12533   4.107   7.031   6.739  0.0954 -0.0222 -0.1092
  804loPI   C2B12534   4.092   6.982   7.161  0.0309 -0.0971 -0.4413
  804loPI   C3B12535   4.046   6.984   7.607 -0.1221 -0.1752  0.0678
  804loPI   C4B12536   4.137   6.994   7.985 -0.1963  0.0251  0.0613
  805loPI    C112537  13.787  13.564   5.997  0.0682 -0.2129  0.0152
  805loPI    C212538  14.021  13.241   5.971  0.1074 -0.1682 -0.2044
  805loPI    C312539  13.986  13.488   5.658 -0.1847 -0.1403 -0.1521
  805loPI   PO412540  13.523  13.404   6.158  0.0523  0.0317 -0.0551
  805loPI   GL112541  13.333  13.578   6.482 -0.2028  0.0741  0.2147
  805loPI   GL212542  13.236  13.344   6.677 -0.1854  0.0817 -0.0507
  805loPI   C1A12543  13.067  13.747   6.913  0.2103  0.0875 -0.0091
  805loPI   C2A12544  13.255  13.824   7.295 -0.1496  0.5078  0.1258
  805loPI   C3A12545  13.406  13.871   7.687 -0.0548  0.2769  0.1737
  805loPI   C4A12546  13.518  14.149   7.878 -0.2980 -0.0997 -0.3815
  805loPI   C5A12547  13.901  14.421   8.045 -0.2733 -0.1152 -0.0824
  805loPI   C6A12548  13.982  14.615   8.459  0.0358 -0.1929  0.0366
  805loPI   C1B12549  13.190  13.156   6.996 -0.2252 -0.1721 -0.0849
  805loPI   C2B12550  13.294  12.985   7.379  0.1084 -0.1198  0.1379
  805loPI   C3B12551  13.544  12.949   7.755 -0.0284 -0.1592 -0.2044
  805loPI   C4B12552  13.919  13.174   7.679  0.2272 -0.0789 -0.4211
  806loPI    C112553  15.848  15.141   5.644  0.0610 -0.2639 -0.1479
  806loPI    C212554  16.229  15.128   5.766  0.0303 -0.1188 -0.0340
  806loPI    C312555  16.144  15.215   5.385  0.1174 -0.3359 -0.1046
  806loPI   PO412556  15.763  15.307   5.902 -0.0439 -0.0219  0.0592
  806loPI   GL112557  16.080  15.280   6.237  0.1665 -0.4358  0.1724
  806loPI   GL212558  16.064  15.556   6.503 -0.0304 -0.1823  0.2026
  806loPI   C1A12559  16.073  15.009   6.638 -0.0365 -0.3415 -0.0721
  806loPI   C2A12560  15.964  14.962   7.122 -0.1861  0.0072  0.2069
  806loPI   C3A12561  16.065  14.925   7.517 -0.0710 -0.2763  0.0327
  806loPI   C4A12562  16.074  14.885   7.960  0.1090 -0.1926 -0.2180
  806loPI   C5A12563  16.171  14.899   8.326 -0.1715 -0.0238 -0.0023
  806loPI   C6A12564  15.963  15.061   8.658 -0.0570 -0.3502  0.1052
  806loPI   C1B12565  16.045  15.594   6.916 -0.2243 -0.1069 -0.2842
  806loPI   C2B12566  16.110  15.535   7.360  0.1353  0.4411  0.1412
  806loPI   C3B12567  16.260  15.468   7.775  0.1434  0.1083  0.1809
  806loPI   C4B12568  16.068  15.484   8.067  0.2129 -0.0017 -0.1190
  807loPI    C112569   5.063   5.213   5.737  0.0560 -0.2058 -0.1070
  807loPI    C212570   4.794   5.321   5.462 -0.0752  0.0952  0.1335
  807loPI    C312571   5.136   5.146   5.350 -0.1397  0.1869 -0.2162
  807loPI   PO412572   4.779   5.105   5.989 -0.2178  0.2425  0.0164
  807loPI   GL112573   4.698   5.305   6.401  0.2617  0.2272  0.2423
  807loPI   GL212574   4.490   5.623   6.391  0.1716 -0.1892 -0.0681
  807loPI   C1A12575   4.680   5.324   6.855 -0.0931 -0.1600 -0.1042
  807loPI   C2A12576   4.747   5.394   7.272  0.1355  0.1725  0.2470
  807loPI   C3A12577   4.723   5.238   7.773 -0.0728 -0.1022 -0.0442
  807loPI   C4A12578   4.620   5.407   8.214  0.0783 -0.0537  0.0059
  807loPI   C5A12579   4.456   5.575   8.523  0.0626 -0.0318  0.2728
  807loPI   C6A12580   4.081   5.868   8.727  0.0292 -0.0895 -0.0356
  807loPI   C1B12581   4.259   5.751   6.673  0.0896  0.0575  0.1353
  807loPI   C2B12582   4.256   5.632   7.101 -0.1663  0.0884 -0.2881
  807loPI   C3B12583   4.266   5.724   7.538  0.0243  0.2664  0.1909
  807loPI   C4B12584   4.234   5.735   7.962  0.0063 -0.1224 -0.0307
  808loPI    C112585   3.484  10.355   5.513 -0.0036  0.1770 -0.0121
  808loPI    C212586   3.791  10.170   5.337 -0.1204 -0.0029 -0.0285
  808loPI    C312587   3.685  10.537   5.219  0.0566  0.0399 -0.0563
  808loPI   PO412588   3.484  10.267   5.755 -0.1922 -0.0194 -0.0282
  808loPI   GL112589   3.371  10.317   6.188  0.2022  0.1472 -0.2735
  808loPI   GL212590   3.353   9.974   6.192  0.0951  0.0858 -0.1884
  808loPI   C1A12591   3.380  10.558   6.514  0.2741 -0.0081  0.0477
  808loPI   C2A12592   3.328  10.595   6.993  0.1279 -0.3331  0.5179
  808loPI   C3A12593   3.336  10.541   7.446  0.1634  0.2699  0.2314
  808loPI   C4A12594   3.414  10.611   7.894 -0.1439 -0.0888  0.1583
  808loPI   C5A12595   3.484  10.738   8.342 -0.2263 -0.1363 -0.1068
  808loPI   C6A12596   3.346  10.845   8.743 -0.0249 -0.0752  0.2077
  808loPI   C1B12597   3.243  10.062   6.626 -0.1514 -0.1671 -0.0761
  808loPI   C2B12598   3.286  10.074   6.951  0.2113  0.0274 -0.2291
  808loPI   C3B12599   3.247  10.011   7.340  0.2149 -0.0850 -0.0454
  808loPI   C4B12600   3.251  10.098   7.714  0.0217 -0.2036 -0.0503
  809loPI    C112601   0.566  14.959   5.699 -0.0824 -0.2082  0.0366
  809loPI    C212602   0.718  14.607   5.586  0.2228 -0.0622 -0.0189
  809loPI    C312603   0.817  14.940   5.388 -0.2061  0.0346 -0.0817
  809loPI   PO412604   0.578  14.935   5.914  0.0034  0.1109 -0.3275
  809loPI   GL112605   0.482  14.749   6.294  0.1207  0.1092 -0.1554
  809loPI   GL212606   0.282  15.052   6.276 -0.1251  0.0551 -0.1046
  809loPI   C1A12607   0.448  14.875   6.780 -0.4436  0.0506  0.0144
  809loPI   C2A12608   0.548  14.891   7.176  0.1472  0.2786  0.2816
  809loPI   C3A12609   0.580  14.877   7.646 -0.0012  0.0003 -0.0385
  809loPI   C4A12610   0.672  14.765   8.124 -0.1308 -0.1239 -0.0278
  809loPI   C5A12611   0.996  14.688   8.456  0.0176  0.0643 -0.0082
  809loPI   C6A12612   1.299  14.795   8.753 -0.0628 -0.1442 -0.1779
  809loPI   C1B12613   0.072  15.231   6.699 -0.0812  0.1779  0.1932
  809loPI   C2B12614   0.100  15.245   7.153 -0.0382  0.0753  0.2908
  809loPI   C3B12615   0.155  15.104   7.570 -0.1166 -0.2403  0.1321
  809loPI   C4B12616   0.316  15.046   8.022  0.3622  0.0475  0.0273
  810loPI    C112617   0.705   6.104   5.696  0.0459  0.2694 -0.1288
  810loPI    C212618   0.773   6.419   5.933  0.2141  0.0669  0.0971
  810loPI    C312619   1.035   6.116   5.922 -0.1212 -0.2324  0.1584
  810loPI   PO412620   0.554   5.987   5.767  0.0873 -0.2578  0.6256
  810loPI   GL112621   0.560   5.967   6.233  0.2135  0.0496 -0.2412
  810loPI   GL212622   0.703   6.188   6.385 -0.0218 -0.2442 -0.3138
  810loPI   C1A12623   0.809   5.744   6.541  0.0770 -0.1001 -0.1034
  810loPI   C2A12624   0.762   5.763   6.996  0.1293  0.2036 -0.0902
  810loPI   C3A12625   0.801   5.766   7.414  0.0904  0.0006  0.3396
  810loPI   C4A12626   0.749   5.872   7.808  0.0188 -0.0934 -0.1179
  810loPI   C5A12627   0.777   5.908   8.286  0.0247  0.2649  0.3840
  810loPI   C6A12628   0.927   6.096   8.693  0.1715 -0.0324 -0.1836
  810loPI   C1B12629   0.797   6.226   6.870 -0.0163 -0.3016 -0.3442
  810loPI   C2B12630   0.799   6.362   7.247  0.0606 -0.1180 -0.1137
  810loPI   C3B12631   0.817   6.377   7.720 -0.1097 -0.0680  0.1077
  810loPI   C4B12632   0.873   6.377   8.212 -0.0028  0.1335  0.1487
  811loPI    C112633   6.299   2.560   5.752 -0.3372  0.1346 -0.1232
  811loPI    C212634   6.229   2.735   5.400 -0.1303 -0.0383 -0.2532
  811loPI    C312635   6.435   2.392   5.415  0.1654  0.1469  0.0637
  811loPI   PO412636   6.406   2.665   5.861  0.0350  0.0690  0.0856
  811loPI   GL112637   6.305   2.836   6.240  0.0041  0.1770  0.0709
  811loPI   GL212638   6.604   2.777   6.273  0.1196 -0.2042 -0.0255
  811loPI   C1A12639   6.127   2.896   6.640 -0.1631  0.0886  0.0374
  811loPI   C2A12640   6.165   2.898   7.125  0.0155 -0.1019 -0.2321
  811loPI   C3A12641   6.225   2.934   7.572 -0.2060 -0.4119  0.2183
  811loPI   C4A12642   6.279   3.125   8.015  0.0406  0.3988 -0.0040
  811loPI   C5A12643   6.000   3.086   8.338  0.0313 -0.2156 -0.0203
  811loPI   C6A12644   5.973   3.040   8.848 -0.1395  0.1018 -0.0660
  811loPI   C1B12645   6.588   2.600   6.649  0.1813 -0.0952  0.0635
  811loPI   C2B12646   6.541   2.573   7.114  0.1809  0.2694  0.1793
  811loPI   C3B12647   6.589   2.601   7.590  0.3163  0.1558 -0.0799
  811loPI   C4B12648   6.654   2.692   7.971  0.2884 -0.2508  0.1490
  812loPI    C112649  15.664   0.029   5.648 -0.0769  0.0095  0.1414
  812loPI    C212650  15.309  -0.152   5.609  0.0307 -0.1243 -0.2603
  812loPI    C312651  15.647  -0.365   5.586  0.1411 -0.0168  0.2402
  812loPI   PO412652  15.587   0.245   5.852  0.3425  0.2633  0.1098
  812loPI   GL112653  15.372   0.167   6.325 -0.3114  0.1926 -0.0119
  812loPI   GL212654  15.169   0.395   6.481 -0.3578 -0.0431 -0.1972
  812loPI   C1A12655  15.510   0.020   6.755  0.2943 -0.1639 -0.0996
  812loPI   C2A12656  15.574   0.135   7.186  0.0779  0.1369  0.3338
  812loPI   C3A12657  15.592   0.022   7.633 -0.4296 -0.0370 -0.2067
  812loPI   C4A12658  15.598   0.041   8.124 -0.3615 -0.2770  0.2477
  812loPI   C5A12659  15.883   0.103   8.432 -0.1340  0.1264  0.1761
  812loPI   C6A12660  15.798   0.260   8.801 -0.0138  0.0022  0.3752
  812loPI   C1B12661  15.183   0.478   6.935  0.0255 -0.0145  0.2271
  812loPI   C2B12662  15.214   0.457   7.378  0.1692 -0.1265  0.3797
  812loPI   C3B12663  15.240   0.391   7.893  0.1086 -0.0213  0.2170
  812loPI   C4B12664  15.252   0.443   8.281  0.2239 -0.0174  0.0862
  813loPI    C112665  16.137   6.709   5.234 -0.0730 -0.0039  0.2861
  813loPI    C212666  15.930   6.366   5.236  0.2303 -0.1917  0.1294
  813loPI    C312667  16.275   6.391   5.034  0.3248  0.1397  0.3241
  813loPI   PO412668  16.111   6.859   5.525 -0.0692 -0.1268 -0.2804
  813loPI   GL112669  15.930   6.987   5.931  0.1139  0.3068  0.0132
  813loPI   GL212670  15.680   7.036   6.065  0.0319  0.1334 -0.0043
  813loPI   C1A12671  16.079   7.150   6.291 -0.0671  0.1995  0.0326
  813loPI   C2A12672  16.057   7.102   6.690 -0.1820 -0.2384 -0.0758
  813loPI   C3A12673  16.208   7.032   7.122  0.2934 -0.0978 -0.1396
  813loPI   C4A12674  16.162   6.893   7.549 -0.1620  0.0580 -0.0697
  813loPI   C5A12675  16.168   6.898   8.011  0.1356  0.2647 -0.0392
  813loPI   C6A12676  15.958   6.713   8.413 -0.0885 -0.2123 -0.0197
  813loPI   C1B12677  15.667   7.354   6.397 -0.0233  0.0806  0.4323
  813loPI   C2B12678  15.723   7.456   6.849 -0.1257  0.0010 -0.0012
  813loPI   C3B12679  15.791   7.297   7.196 -0.2383  0.2967 -0.0679
  813loPI   C4B12680  15.760   7.255   7.629  0.1816 -0.2227  0.0483
  814loPI    C112681   0.539  15.426   5.452 -0.0326 -0.1981  0.0419
  814loPI    C212682   0.303  15.726   5.573  0.1792 -0.0551  0.1056
  814loPI    C312683   0.259  15.572   5.206  0.0067 -0.0106  0.1069
  814loPI   PO412684   0.690  15.480   5.722  0.0969  0.2359 -0.2446
  814loPI   GL112685   0.656  15.385   6.185 -0.1803  0.1894  0.0335
  814loPI   GL212686   0.900  15.187   6.248 -0.0331  0.3307  0.3867
  814loPI   C1A12687   0.587  15.373   6.585  0.4078 -0.1848 -0.3337
  814loPI   C2A12688   0.582  15.333   6.983  0.1214 -0.1961 -0.1675
  814loPI   C3A12689   0.629  15.350   7.401  0.0062 -0.3496 -0.0407
  814loPI   C4A12690   0.663  15.359   7.783 -0.0918  0.0405 -0.2519
  814loPI   C5A12691   0.768  15.310   8.181  0.2218  0.0761  0.1827
  814loPI   C6A12692   1.087  15.228   8.603  0.1856  0.0261  0.1569
  814loPI   C1B12693   0.966  14.999   6.713  0.0964 -0.2966 -0.0244
  814loPI   C2B12694   1.027  15.005   7.159 -0.1186 -0.0692  0.1270
  814loPI   C3B12695   1.045  15.045   7.557  0.0298 -0.1252 -0.1342
  814loPI   C4B12696   1.124  14.974   8.014 -0.1103  0.1866  0.0229
  815loPI    C112697   3.992  12.564   5.629  0.1903  0.4013 -0.2636
  815loPI    C212698   4.191  12.335   5.368  0.1776 -0.1125  0.1589
  815loPI    C312699   3.792  12.353   5.354  0.1904  0.0703 -0.0170
  815loPI   PO412700   4.023  12.538   5.938 -0.0446  0.1108  0.1116
  815loPI   GL112701   4.377  12.629   6.168  0.1785  0.0554 -0.2641
  815loPI   GL212702   4.727  12.498   6.176  0.0233  0.2245 -0.1280
  815loPI   C1A12703   4.198  12.755   6.614  0.1133  0.1957 -0.0527
  815loPI   C2A12704   4.209  12.853   6.996  0.1676  0.1986  0.3607
  815loPI   C3A12705   4.311  12.827   7.500 -0.1367 -0.1643  0.1447
  815loPI   C4A12706   4.237  12.967   7.908  0.1679  0.0364 -0.0617
  815loPI   C5A12707   4.311  13.019   8.303  0.0325  0.0844  0.4068
  815loPI   C6A12708   3.969  13.082   8.684 -0.1579 -0.0039  0.2175
  815loPI   C1B12709   4.700  12.522   6.638  0.1905  0.1900 -0.0662
  815loPI   C2B12710   4.598  12.517   7.094  0.1280  0.4059 -0.0779
  815loPI   C3B12711   4.679  12.411   7.529  0.0908  0.1572  0.0063
  815loPI   C4B12712   4.619  12.481   7.974 -0.3502 -0.2375  0.0717
  816loPI    C112713  15.813   0.771   5.649  0.0153  0.0941 -0.2597
  816loPI    C212714  15.486   0.607   5.488 -0.0383 -0.1568  0.0936
  816loPI    C312715  15.846   0.455   5.407 -0.0257 -0.0179 -0.1200
  816loPI   PO412716  15.761   0.791   5.905 -0.0284  0.4667 -0.2462
  816loPI   GL112717  15.842   0.502   6.231  0.1943 -0.1918 -0.0216
  816loPI   GL212718  15.723   0.525   6.401 -0.1161  0.2176 -0.2331
  816loPI   C1A12719  16.118   0.778   6.520 -0.3062  0.2994 -0.0179
  816loPI   C2A12720  16.182   0.808   6.914 -0.0044  0.1339  0.2990
  816loPI   C3A12721  16.213   0.712   7.340  0.1172 -0.1091 -0.3690
  816loPI   C4A12722  16.175   0.699   7.834  0.0535  0.1356  0.1919
  816loPI   C5A12723  16.256   0.621   8.294  0.2856  0.2073 -0.1201
  816loPI   C6A12724  16.583   0.756   8.542 -0.3028  0.1180  0.2925
  816loPI   C1B12725  15.702   0.646   6.857 -0.0884 -0.1544 -0.5060
  816loPI   C2B12726  15.707   0.640   7.335  0.1759 -0.1080 -0.2498
  816loPI   C3B12727  15.690   0.557   7.796 -0.1459 -0.0164 -0.0974
  816loPI   C4B12728  15.725   0.545   8.200  0.1439 -0.0968  0.1414
  817loPI    C112729  14.371  17.097   6.025  0.1445  0.0441  0.0290
  817loPI    C212730  14.531  16.910   5.710  0.0445  0.2953 -0.1742
  817loPI    C312731  14.233  17.172   5.658  0.1222  0.4459  0.1141
  817loPI   PO412732  14.580  17.172   6.141 -0.1596 -0.0437 -0.0879
  817loPI   GL112733  14.695  17.153   6.449 -0.1859  0.1940  0.2343
  817loPI   GL212734  14.473  16.972   6.536 -0.1875 -0.0767  0.2174
  817loPI   C1A12735  14.943  17.067   6.827 -0.1510 -0.0614  0.1815
  817loPI   C2A12736  15.048  17.066   7.221 -0.1775  0.0373  0.0006
  817loPI   C3A12737  14.949  17.104   7.612 -0.1108 -0.2279 -0.1052
  817loPI   C4A12738  15.056  16.953   8.032 -0.0725  0.0150 -0.0821
  817loPI   C5A12739  15.265  17.138   8.412 -0.1652  0.0005  0.2342
  817loPI   C6A12740  15.392  17.031   8.873  0.0850 -0.1839  0.0676
  817loPI   C1B12741  14.497  17.002   6.995 -0.0325  0.2576  0.1916
  817loPI   C2B12742  14.449  16.974   7.469 -0.2022  0.4333  0.0876
  817loPI   C3B12743  14.268  17.218   7.792 -0.1890  0.3313  0.0797
  817loPI   C4B12744  14.166  17.297   8.241 -0.0562  0.0557 -0.0089
  818loPI    C112745   1.928   3.817   5.963 -0.0024  0.0621 -0.1281
  818loPI    C212746   1.629   3.903   6.214  0.2202  0.0782  0.1356
  818loPI    C312747   1.556   3.862   5.823 -0.1182  0.1219  0.1914
  818loPI   PO412748   2.080   3.664   6.045 -0.2669  0.1404 -0.0028
  818loPI   GL112749   2.093   3.599   6.416  0.3348  0.1025 -0.1728
  818loPI   GL212750   2.108   3.360   6.435 -0.4073  0.1433  0.1051
  818loPI   C1A12751   1.822   3.750   6.692 -0.0941  0.1309 -0.1195
  818loPI   C2A12752   1.811   3.756   7.053  0.0109  0.0163 -0.1214
  818loPI   C3A12753   1.861   3.734   7.442 -0.2022 -0.4276 -0.4548
  818loPI   C4A12754   1.781   3.706   7.923 -0.0010 -0.1345  0.1063
  818loPI   C5A12755   1.671   3.745   8.405  0.0239 -0.1841 -0.0963
  818loPI   C6A12756   1.616   3.897   8.905 -0.1102 -0.3489 -0.0736
  818loPI   C1B12757   2.163   3.445   6.877  0.3262  0.5331 -0.1414
  818loPI   C2B12758   2.232   3.446   7.357 -0.0091 -0.1416 -0.2216
  818loPI   C3B12759   2.270   3.416   7.811 -0.2904  0.2034  0.1378
  818loPI   C4B12760   2.054   3.417   8.231  0.0384  0.0253 -0.0028
  819loPI    C112761  16.636   6.942   5.527  0.0305  0.0423  0.1517
  819loPI    C212762  16.687   6.554   5.448  0.0627  0.0798 -0.0160
  819loPI    C312763  16.674   6.819   5.149 -0.4212  0.1555  0.0627
  819loPI   PO412764  16.662   6.897   5.814  0.1891 -0.2187 -0.1203
  819loPI   GL112765  16.970   6.768   6.136 -0.2151  0.0611 -0.2596
  819loPI   GL212766  16.740   6.569   6.156 -0.2067  0.4160 -0.2812
  819loPI   C1A12767  17.072   6.863   6.609 -0.2287 -0.1573  0.0367
  819loPI   C2A12768  17.122   6.845   7.064  0.1544 -0.0409 -0.4162
  819loPI   C3A12769  17.090   6.822   7.514  0.3637  0.0259 -0.0675
  819loPI   C4A12770  16.989   6.675   8.040 -0.4181  0.1330 -0.1528
  819loPI   C5A12771  16.974   6.545   8.474 -0.2208  0.0292  0.0637
  819loPI   C6A12772  16.784   6.277   8.756  0.6274  0.1146  0.0136
  819loPI   C1B12773  16.612   6.712   6.576 -0.0055 -0.1720 -0.0706
  819loPI   C2B12774  16.574   6.690   6.952 -0.1426 -0.0944  0.1078
  819loPI   C3B12775  16.590   6.515   7.299  0.0321 -0.0152  0.1264
  819loPI   C4B12776  16.488   6.495   7.671  0.0789 -0.1729 -0.1923
  820loPI    C112777   8.222   7.128   5.603 -0.1082  0.0117 -0.0400
  820loPI    C212778   8.508   7.125   5.323 -0.0770 -0.0388 -0.0078
  820loPI    C312779   8.173   7.337   5.265 -0.1344 -0.1658 -0.1474
  820loPI   PO412780   8.323   7.130   5.838 -0.1938  0.0641 -0.0264
  820loPI   GL112781   8.202   7.069   6.254  0.0756 -0.2476  0.2483
  820loPI   GL212782   8.112   6.758   6.386 -0.3401  0.2116 -0.1433
  820loPI   C1A12783   8.264   7.150   6.561 -0.5339  0.3679 -0.1599
  820loPI   C2A12784   8.423   6.999   6.982  0.0429  0.0248 -0.1019
  820loPI   C3A12785   8.274   7.005   7.376 -0.2767  0.2417 -0.1575
  820loPI   C4A12786   8.380   7.004   7.819 -0.0080  0.3432 -0.2890
  820loPI   C5A12787   8.254   6.970   8.230  0.3477  0.3304 -0.1456
  820loPI   C6A12788   8.030   7.212   8.520  0.0152 -0.0532  0.3282
  820loPI   C1B12789   8.249   6.535   6.814 -0.5490 -0.2449 -0.1389
  820loPI   C2B12790   8.293   6.554   7.241  0.1760  0.2241  0.2502
  820loPI   C3B12791   8.249   6.527   7.593 -0.1127  0.0006 -0.2434
  820loPI   C4B12792   8.222   6.474   8.059  0.0442  0.0465 -0.2003
  821loPI    C112793  17.571  16.073   5.737  0.3834  0.0263 -0.1660
  821loPI    C212794  17.445  16.334   5.461  0.2690  0.1425 -0.0060
  821loPI    C312795  17.604  15.985   5.348 -0.0180  0.0759 -0.2163
  821loPI   PO412796  17.346  16.041   5.916  0.1624  0.1667  0.0935
  821loPI   GL112797  17.302  16.339   6.242 -0.1883  0.3025  0.0983
  821loPI   GL212798  17.130  16.209   6.560  0.1348  0.1513  0.0763
  821loPI   C1A12799  17.608  16.424   6.529  0.0206 -0.0775  0.0193
  821loPI   C2A12800  17.688  16.502   6.944  0.0715  0.4412  0.2247
  821loPI   C3A12801  17.633  16.578   7.430 -0.2516 -0.1172 -0.1419
  821loPI   C4A12802  17.750  16.524   7.894  0.0235 -0.1294  0.4376
  821loPI   C5A12803  17.622  16.507   8.245 -0.0246 -0.3248  0.4556
  821loPI   C6A12804  17.536  16.297   8.704 -0.1270 -0.2082 -0.1973
  821loPI   C1B12805  17.221  16.362   6.899  0.0840 -0.1159 -0.0881
  821loPI   C2B12806  17.129  16.397   7.409  0.0082  0.0766  0.1316
  821loPI   C3B12807  17.238  16.370   7.881 -0.2913 -0.1169  0.0926
  821loPI   C4B12808  17.148  16.302   8.311 -0.1259 -0.1149  0.0815
  822loPI    C112809  10.906   9.182   5.407  0.1649 -0.1618  0.0470
  822loPI    C212810  10.645   9.434   5.238  0.3856  0.2288  0.2746
  822loPI    C312811  10.752   9.100   5.047 -0.1061  0.1735  0.0811
  822loPI   PO412812  10.795   9.035   5.651 -0.2554  0.0403  0.1203
  822loPI   GL112813  10.862   9.223   6.007 -0.0786  0.1185  0.0944
  822loPI   GL212814  11.036   8.943   6.202 -0.2192  0.1916  0.0469
  822loPI   C1A12815  11.109   9.416   6.428  0.2123  0.1926  0.3550
  822loPI   C2A12816  11.095   9.447   6.897  0.1042  0.1601  0.0159
  822loPI   C3A12817  11.127   9.374   7.299 -0.1353 -0.3180 -0.0095
  822loPI   C4A12818  11.151   9.483   7.680 -0.0490  0.0174 -0.1148
  822loPI   C5A12819  10.948   9.537   8.099 -0.3458 -0.0432 -0.2181
  822loPI   C6A12820  10.602   9.808   8.114  0.2523 -0.0960 -0.1461
  822loPI   C1B12821  11.051   8.941   6.761  0.1115  0.1692 -0.0451
  822loPI   C2B12822  11.049   8.868   7.176  0.1262 -0.0014  0.1728
  822loPI   C3B12823  11.090   8.927   7.607  0.0521  0.0657  0.0125
  822loPI   C4B12824  10.947   8.953   8.010  0.0806  0.0286  0.0848
  823loPI    C112825   4.213   1.669   5.323 -0.2952 -0.1219 -0.1412
  823loPI    C212826   4.507   1.747   5.064  0.0567  0.0241  0.2901
  823loPI    C312827   4.267   1.433   5.004  0.2501 -0.0550 -0.1080
  823loPI   PO412828   4.363   1.699   5.548  0.2754 -0.0464 -0.0195
  823loPI   GL112829   4.545   1.628   5.966  0.2573  0.1396 -0.3608
  823loPI   GL212830   4.244   1.824   6.079  0.0284 -0.1752  0.0587
  823loPI   C1A12831   4.571   1.480   6.379 -0.2542  0.0906  0.0188
  823loPI   C2A12832   4.509   1.382   6.771 -0.2626  0.5355  0.2875
  823loPI   C3A12833   4.569   1.371   7.186  0.1199 -0.2269 -0.0124
  823loPI   C4A12834   4.545   1.338   7.658  0.2750 -0.1355 -0.1706
  823loPI   C5A12835   4.606   1.445   8.059 -0.3522 -0.1692  0.0830
  823loPI   C6A12836   4.567   1.332   8.427  0.3439 -0.0491  0.2752
  823loPI   C1B12837   4.160   1.746   6.455  0.1821 -0.1121  0.3577
  823loPI   C2B12838   4.134   1.711   6.935 -0.0384  0.0131  0.0424
  823loPI   C3B12839   4.121   1.639   7.373 -0.0641 -0.1987  0.0174
  823loPI   C4B12840   4.227   1.745   7.821 -0.3739 -0.1666 -0.0227
  824loPI    C112841   5.704   0.996   6.023 -0.1928 -0.1236  0.1930
  824loPI    C212842   5.313   1.073   5.990 -0.1670 -0.0040  0.1628
  824loPI    C312843   5.533   1.008   5.662 -0.1221  0.1296  0.1659
  824loPI   PO412844   5.865   1.168   6.100 -0.0693 -0.0663 -0.1636
  824loPI   GL112845   5.833   1.443   6.473  0.0285  0.0557  0.0240
  824loPI   GL212846   5.429   1.331   6.464 -0.0137 -0.1509 -0.1669
  824loPI   C1A12847   5.909   1.426   6.855 -0.1073  0.1496  0.1371
  824loPI   C2A12848   5.899   1.367   7.268 -0.0177  0.1860 -0.1964
  824loPI   C3A12849   5.940   1.341   7.659 -0.0256  0.4131  0.2840
  824loPI   C4A12850   6.028   1.392   8.115 -0.0444 -0.1539  0.0615
  824loPI   C5A12851   5.865   1.654   8.388 -0.0701 -0.1489 -0.0099
  824loPI   C6A12852   5.627   1.882   8.620 -0.0313  0.0009  0.2275
  824loPI   C1B12853   5.419   1.309   6.843  0.2219  0.0080 -0.1333
  824loPI   C2B12854   5.434   1.249   7.212 -0.2998  0.0805  0.1146
  824loPI   C3B12855   5.444   1.264   7.637  0.0587 -0.2994 -0.0143
  824loPI   C4B12856   5.509   1.323   8.133  0.0480 -0.0532 -0.2039
  825loPI    C112857  10.668  13.304   5.901 -0.0224 -0.2314  0.0403
  825loPI    C212858  10.968  13.558   5.825 -0.0756 -0.0861  0.3007
  825loPI    C312859  10.949  13.207   5.633 -0.0361  0.1300 -0.1109
  825loPI   PO412860  10.441  13.350   5.751 -0.5086  0.0822  0.4801
  825loPI   GL112861  10.103  13.242   6.043 -0.1602 -0.0541  0.1282
  825loPI   GL212862   9.919  13.474   6.285 -0.1166  0.0997  0.0172
  825loPI   C1A12863  10.348  13.083   6.422  0.0297  0.2136 -0.0515
  825loPI   C2A12864  10.340  13.061   6.868  0.0329  0.0006 -0.2138
  825loPI   C3A12865  10.394  12.983   7.406  0.2486  0.0471  0.0159
  825loPI   C4A12866  10.473  12.967   7.849 -0.0398  0.1378 -0.2394
  825loPI   C5A12867  10.441  12.861   8.208  0.1429  0.0397  0.1783
  825loPI   C6A12868  10.336  12.618   8.625 -0.0736 -0.1731 -0.1237
  825loPI   C1B12869   9.932  13.305   6.735  0.0860 -0.2289  0.0573
  825loPI   C2B12870   9.854  13.337   7.232 -0.4329  0.0203 -0.1791
  825loPI   C3B12871   9.944  13.340   7.705 -0.2907  0.0982  0.1577
  825loPI   C4B12872  10.046  13.187   8.086 -0.2842  0.0377  0.2113
  826loPI    C112873   0.209   1.228   5.627 -0.0595 -0.0873 -0.0720
  826loPI    C212874  -0.130   1.325   5.438 -0.0710  0.2010  0.0911
  826loPI    C312875   0.189   1.207   5.228 -0.1852  0.1997 -0.0831
  826loPI   PO412876   0.081   1.512   5.807 -0.0653  0.2695  0.1724
  826loPI   GL112877   0.095   1.648   6.288  0.3439  0.0524  0.0584
  826loPI   GL212878   0.111   1.255   6.419 -0.2805 -0.0837 -0.0892
  826loPI   C1A12879   0.098   1.760   6.726 -0.1036  0.1937  0.2901
  826loPI   C2A12880  -0.047   1.813   7.083 -0.0680  0.0151 -0.0905
  826loPI   C3A12881   0.110   1.807   7.430 -0.0608  0.0396  0.1056
  826loPI   C4A12882   0.073   1.715   7.858  0.0237 -0.1624  0.2671
  826loPI   C5A12883   0.132   1.694   8.315  0.1603  0.0359 -0.3914
  826loPI   C6A12884   0.035   1.733   8.762 -0.1352  0.3754  0.4359
  826loPI   C1B12885  -0.035   1.206   6.786  0.1960  0.2467  0.1013
  826loPI   C2B12886  -0.017   1.157   7.252 -0.0567 -0.0960  0.0577
  826loPI   C3B12887  -0.031   1.216   7.724  0.2559  0.0124  0.0426
  826loPI   C4B12888   0.065   1.243   8.116 -0.0732  0.0779  0.0273
  827loPI    C112889  12.813  13.975   5.713  0.0259 -0.0195 -0.1068
  827loPI    C212890  13.101  14.225   5.595  0.1470 -0.1604 -0.1124
  827loPI    C312891  12.992  13.921   5.360  0.1118 -0.2070 -0.0361
  827loPI   PO412892  12.781  14.235   5.953  0.1019  0.3043 -0.1026
  827loPI   GL112893  12.730  14.337   6.342  0.0388  0.0055  0.0025
  827loPI   GL212894  12.939  14.602   6.615  0.1063 -0.1317 -0.0384
  827loPI   C1A12895  12.448  14.287   6.752 -0.0567  0.0517 -0.1479
  827loPI   C2A12896  12.378  14.247   7.246 -0.1324  0.1121 -0.2069
  827loPI   C3A12897  12.355  14.704   7.466 -0.3254  0.4064 -0.2405
  827loPI   C4A12898  12.494  14.820   7.840 -0.2819 -0.0756 -0.0167
  827loPI   C5A12899  12.659  14.681   8.173 -0.0542 -0.1392  0.2428
  827loPI   C6A12900  12.980  14.556   8.277 -0.0316 -0.3051 -0.0646
  827loPI   C1B12901  12.703  14.575   7.079 -0.3039 -0.0984  0.1480
  827loPI   C2B12902  12.829  14.946   7.431 -0.0902  0.1080 -0.1287
  827loPI   C3B12903  12.989  14.941   7.821  0.0551 -0.0307 -0.1767
  827loPI   C4B12904  13.263  14.991   8.259  0.2149  0.0342 -0.2686
  828loPI    C112905   9.610  13.352   5.739  0.2761  0.1109  0.0524
  828loPI    C212906   9.516  13.096   5.447  0.1331  0.2202  0.0020
  828loPI    C312907   9.619  13.472   5.358  0.1783  0.2278  0.0863
  828loPI   PO412908   9.479  13.402   5.920 -0.3294 -0.1529  0.0448
  828loPI   GL112909   9.062  13.397   6.195 -0.1558  0.0954 -0.0059
  828loPI   GL212910   8.730  13.301   6.195  0.0245  0.0821 -0.1111
  828loPI   C1A12911   9.079  13.462   6.675 -0.1200 -0.1594 -0.1357
  828loPI   C2A12912   8.970  13.573   7.141 -0.0082  0.2544 -0.0553
  828loPI   C3A12913   9.055  13.490   7.551 -0.1354 -0.3006 -0.1304
  828loPI   C4A12914   9.103  13.389   8.001 -0.1958  0.0167  0.3567
  828loPI   C5A12915   9.253  13.227   8.417  0.1873  0.1095 -0.3686
  828loPI   C6A12916   9.360  13.145   8.864 -0.3263 -0.0460 -0.1419
  828loPI   C1B12917   8.573  13.218   6.459 -0.0868  0.1675 -0.2688
  828loPI   C2B12918   8.537  13.284   6.916 -0.1578  0.2060  0.1995
  828loPI   C3B12919   8.598  13.354   7.319 -0.2859 -0.0706 -0.0112
  828loPI   C4B12920   8.627  13.308   7.788 -0.0706 -0.2249  0.0396
  829loPI    C112921  10.688   3.358   5.785 -0.0110  0.1704  0.0438
  829loPI    C212922  10.992   3.180   5.596 -0.1245 -0.0616  0.0765
  829loPI    C312923  10.712   3.373   5.386  0.0226  0.1186  0.0438
  829loPI   PO412924  10.785   3.257   6.047  0.1117 -0.0999  0.1331
  829loPI   GL112925  10.991   3.241   6.373 -0.1028 -0.2156  0.0862
  829loPI   GL212926  11.355   3.173   6.372  0.2004 -0.0133 -0.0313
  829loPI   C1A12927  10.833   3.214   6.731 -0.0319 -0.2299  0.2178
  829loPI   C2A12928  10.760   3.180   7.138  0.1229 -0.1887  0.1340
  829loPI   C3A12929  10.814   3.221   7.558  0.1214  0.1208 -0.1939
  829loPI   C4A12930  10.736   3.269   7.977 -0.1391 -0.1469 -0.0355
  829loPI   C5A12931  10.733   3.277   8.345  0.1003  0.0064  0.0254
  829loPI   C6A12932  10.653   3.176   8.728 -0.0893  0.0389 -0.0552
  829loPI   C1B12933  11.312   3.346   6.808 -0.0647 -0.0939  0.0756
  829loPI   C2B12934  11.183   3.425   7.252 -0.0613 -0.1932  0.1851
  829loPI   C3B12935  11.265   3.373   7.687 -0.3422 -0.0107  0.0269
  829loPI   C4B12936  11.243   3.335   8.124  0.0737 -0.3973 -0.1407
  830loPI    C112937  15.621   9.981   5.108 -0.0227 -0.0667 -0.1478
  830loPI    C212938  15.677  10.376   5.125 -0.0118 -0.0678 -0.1575
  830loPI    C312939  15.693  10.186   4.773  0.3819 -0.1344 -0.1081
  830loPI   PO412940  15.420   9.989   5.357  0.1363  0.1837  0.1701
  830loPI   GL112941  15.390  10.088   5.790 -0.0044  0.1053 -0.1363
  830loPI   GL212942  15.065   9.865   5.792 -0.1138  0.0611 -0.1355
  830loPI   C1A12943  15.305  10.031   6.264 -0.0506 -0.2898  0.2403
  830loPI   C2A12944  15.426  10.067   6.689 -0.0957 -0.1050  0.1275
  830loPI   C3A12945  15.396   9.960   7.187  0.2333 -0.0916 -0.0959
  830loPI   C4A12946  15.406  10.037   7.567 -0.1283  0.1630 -0.1697
  830loPI   C5A12947  15.249   9.972   7.873  0.0300 -0.2887  0.0035
  830loPI   C6A12948  15.248   9.740   8.330  0.0694  0.0258  0.2740
  830loPI   C1B12949  14.864   9.878   6.184  0.3467 -0.1031 -0.0690
  830loPI   C2B12950  14.881   9.852   6.627 -0.0467  0.1828  0.1128
  830loPI   C3B12951  14.953   9.822   7.055  0.3766 -0.0212  0.1353
  830loPI   C4B12952  14.920   9.865   7.485 -0.3162 -0.1849  0.0937
  831loPI    C112953  12.231   1.925   5.591 -0.1990  0.0281  0.0744
  831loPI    C212954  12.090   2.035   5.233 -0.0091  0.2007  0.0510
  831loPI    C312955  12.395   1.778   5.257 -0.0569  0.1475  0.0905
  831loPI   PO412956  12.040   1.851   5.785 -0.0957  0.2263 -0.2386
  831loPI   GL112957  11.921   1.995   6.132  0.0363 -0.0243  0.0248
  831loPI   GL212958  11.878   2.253   6.224 -0.2149  0.0026  0.5919
  831loPI   C1A12959  12.246   1.820   6.459 -0.0921 -0.0730  0.1987
  831loPI   C2A12960  12.266   1.992   6.822  0.1237  0.1397 -0.0163
  831loPI   C3A12961  12.374   1.872   7.188 -0.0656  0.1024 -0.0812
  831loPI   C4A12962  12.410   1.843   7.642  0.0109 -0.1656 -0.0037
  831loPI   C5A12963  12.376   1.874   8.048  0.2244 -0.0610  0.4267
  831loPI   C6A12964  12.451   1.802   8.489 -0.2287  0.1694 -0.2010
  831loPI   C1B12965  11.952   2.306   6.674  0.1322 -0.2285  0.0610
  831loPI   C2B12966  12.053   2.342   7.098 -0.0813  0.0916 -0.1849
  831loPI   C3B12967  12.002   2.122   7.509 -0.2565  0.4735  0.2552
  831loPI   C4B12968  12.008   2.211   7.937 -0.2034  0.2707  0.1132
  832loPI    C112969  10.316  10.352   5.488  0.0149  0.1849 -0.0134
  832loPI    C212970  10.084  10.552   5.230 -0.1625  0.0819  0.0642
  832loPI    C312971  10.133  10.157   5.190 -0.1436  0.0750  0.1538
  832loPI   PO412972  10.237  10.403   5.702 -0.0169  0.2736 -0.0307
  832loPI   GL112973   9.985  10.422   6.036 -0.1901 -0.0899  0.0878
  832loPI   GL212974   9.740  10.608   6.107  0.1522 -0.2490 -0.1351
  832loPI   C1A12975   9.977  10.387   6.475  0.1697  0.3281  0.0399
  832loPI   C2A12976   9.958  10.371   6.923 -0.0036 -0.0556 -0.1169
  832loPI   C3A12977   9.834  10.356   7.271 -0.0053  0.2013 -0.2112
  832loPI   C4A12978   9.878  10.517   7.674  0.0688  0.0506 -0.1155
  832loPI   C5A12979   9.878  10.490   8.115  0.2532  0.0211  0.2583
  832loPI   C6A12980   9.903  10.426   8.504 -0.2959  0.0529 -0.0901
  832loPI   C1B12981   9.594  10.749   6.452  0.0893  0.0139  0.1764
  832loPI   C2B12982   9.509  10.709   6.905  0.2159 -0.0845 -0.1058
  832loPI   C3B12983   9.437  10.705   7.284 -0.1190  0.0003  0.4430
  832loPI   C4B12984   9.527  10.834   7.688  0.2757  0.0890 -0.0616
  833loPI    C112985   9.731   8.077   5.813 -0.0263 -0.1461 -0.0720
  833loPI    C212986   9.892   7.939   5.474 -0.0450 -0.0990 -0.1003
  833loPI    C312987   9.496   7.987   5.502 -0.0492 -0.1596 -0.0509
  833loPI   PO412988   9.822   7.922   5.965 -0.1221 -0.0360  0.0231
  833loPI   GL112989   9.861   7.933   6.414 -0.2495 -0.3319  0.2560
  833loPI   GL212990   9.557   7.870   6.433 -0.0137  0.0584 -0.0636
  833loPI   C1A12991   9.971   8.073   6.844 -0.1111 -0.0388  0.0250
  833loPI   C2A12992   9.912   8.074   7.254 -0.2140 -0.0734 -0.2835
  833loPI   C3A12993   9.863   8.055   7.627  0.1364 -0.0780  0.1583
  833loPI   C4A12994  10.066   7.994   8.044  0.0640  0.2961  0.0743
  833loPI   C5A12995   9.877   8.017   8.451  0.2628 -0.0938  0.0141
  833loPI   C6A12996   9.615   7.740   8.770  0.1114 -0.2682 -0.0232
  833loPI   C1B12997   9.467   7.871   6.889  0.1056  0.0345  0.3083
  833loPI   C2B12998   9.404   7.953   7.282 -0.1050 -0.2884 -0.4502
  833loPI   C3B12999   9.368   7.826   7.808 -0.2051 -0.1039 -0.0682
  833loPI   C4B13000   9.450   7.829   8.200  0.2005  0.3811  0.0034
  834loPI    C113001   2.362   0.067   5.347 -0.1217  0.0005 -0.0522
  834loPI    C213002   2.086  -0.222   5.354 -0.1073 -0.0157 -0.1361
  834loPI    C313003   2.404  -0.255   5.115 -0.0198 -0.0086 -0.0214
  834loPI   PO413004   2.256   0.104   5.680  0.3433 -0.0554 -0.0241
  834loPI   GL113005   2.487  -0.035   6.032 -0.0288  0.1193  0.1761
  834loPI   GL213006   2.725  -0.130   6.096 -0.1635 -0.1905 -0.1622
  834loPI   C1A13007   2.279  -0.225   6.426  0.0032 -0.0700  0.0385
  834loPI   C2A13008   2.337  -0.298   6.776  0.0625 -0.1520 -0.0500
  834loPI   C3A13009   2.435  -0.357   7.199  0.1980 -0.1020  0.1818
  834loPI   C4A13010   2.370  -0.320   7.668 -0.1964  0.0131 -0.0934
  834loPI   C5A13011   2.478  -0.370   8.086  0.0261  0.2330  0.0547
  834loPI   C6A13012   2.566  -0.777   8.227  0.0205  0.2366  0.0071
  834loPI   C1B13013   2.760  -0.161   6.480 -0.1616  0.2601 -0.1310
  834loPI   C2B13014   2.911  -0.156   6.856 -0.1379 -0.0506 -0.2660
  834loPI   C3B13015   2.880  -0.185   7.302 -0.0039  0.0191  0.0889
  834loPI   C4B13016   2.868  -0.105   7.715  0.0955 -0.1959 -0.0603
  835loPI    C113017  17.415  10.593   5.522  0.0441 -0.1288  0.0673
  835loPI    C213018  17.092  10.733   5.332  0.0419 -0.0857  0.1028
  835loPI    C313019  17.208  10.355   5.277  0.0472 -0.0704  0.0075
  835loPI   PO413020  17.368  10.611   5.772  0.3196 -0.0519 -0.1770
  835loPI   GL113021  17.324  10.286   6.107 -0.0411 -0.0860  0.4235
  835loPI   GL213022  17.579  10.164   6.091  0.2586 -0.1845  0.1450
  835loPI   C1A13023  17.367  10.270   6.505  0.2380  0.3081 -0.3290
  835loPI   C2A13024  17.277  10.273   7.000 -0.0064 -0.2519  0.1277
  835loPI   C3A13025  17.230  10.164   7.404  0.0380  0.1774 -0.3347
  835loPI   C4A13026  17.207  10.154   7.820  0.0578  0.0805  0.2839
  835loPI   C5A13027  17.083  10.330   8.144 -0.0558  0.1191  0.0331
  835loPI   C6A13028  16.752  10.554   8.215  0.0874  0.1069 -0.0717
  835loPI   C1B13029  17.814  10.041   6.312 -0.2709  0.0843 -0.2810
  835loPI   C2B13030  17.761   9.856   6.759 -0.2738 -0.0020 -0.3601
  835loPI   C3B13031  17.661   9.913   7.186  0.0103  0.0581  0.0983
  835loPI   C4B13032  17.595   9.859   7.667  0.1941  0.2278  0.0513
  836loPI    C113033   8.632   4.481   5.408  0.1682 -0.0965  0.1557
  836loPI    C213034   8.339   4.689   5.231  0.1817  0.0217  0.2711
  836loPI    C313035   8.549   4.421   5.022 -0.0663 -0.1266  0.2095
  836loPI   PO413036   8.499   4.305   5.534  0.0696 -0.2217  0.2553
  836loPI   GL113037   8.389   4.204   5.966 -0.0685 -0.1595 -0.1200
  836loPI   GL213038   8.294   4.515   5.954 -0.2102 -0.0492  0.0296
  836loPI   C1A13039   8.217   4.172   6.392 -0.0224 -0.1331  0.1158
  836loPI   C2A13040   8.212   4.208   6.876 -0.0156 -0.1418  0.0541
  836loPI   C3A13041   8.148   4.170   7.280 -0.2908 -0.3684 -0.3210
  836loPI   C4A13042   8.215   4.111   7.735 -0.1176 -0.4692 -0.2064
  836loPI   C5A13043   8.212   4.392   8.065  0.0139  0.1281  0.1076
  836loPI   C6A13044   8.424   4.659   8.253 -0.3778 -0.1335 -0.0504
  836loPI   C1B13045   8.301   4.688   6.303 -0.0332  0.2612 -0.4025
  836loPI   C2B13046   8.338   4.704   6.746 -0.3243 -0.2128  0.0392
  836loPI   C3B13047   8.295   4.702   7.157 -0.3091 -0.2551  0.2230
  836loPI   C4B13048   8.369   4.572   7.522  0.0158 -0.0164 -0.1530
  837loPI    C113049   4.866   0.331   5.520 -0.0951  0.0327 -0.0637
  837loPI    C213050   4.808  -0.043   5.390 -0.1313  0.0213 -0.0154
  837loPI    C313051   5.010   0.219   5.165 -0.1243 -0.0212 -0.0587
  837loPI   PO413052   4.948   0.327   5.778 -0.0862  0.1099 -0.1448
  837loPI   GL113053   5.197   0.087   6.149 -0.1560 -0.2089 -0.0040
  837loPI   GL213054   5.250  -0.191   6.205 -0.0924 -0.0158 -0.1565
  837loPI   C1A13055   5.250   0.227   6.641  0.2116  0.0645  0.0044
  837loPI   C2A13056   5.273   0.276   7.029 -0.0253  0.1366  0.2037
  837loPI   C3A13057   5.253   0.173   7.467 -0.2297 -0.2979  0.2814
  837loPI   C4A13058   5.210   0.211   7.970 -0.1642 -0.0201  0.2389
  837loPI   C5A13059   5.012   0.090   8.452 -0.1893  0.0314  0.0210
  837loPI   C6A13060   5.355  -0.089   8.708 -0.0897 -0.0640  0.0490
  837loPI   C1B13061   5.159  -0.250   6.629  0.0146 -0.1309  0.0831
  837loPI   C2B13062   5.174  -0.222   7.069 -0.1089  0.0676 -0.1446
  837loPI   C3B13063   5.211  -0.334   7.476  0.0470  0.2446 -0.2026
  837loPI   C4B13064   5.149  -0.413   7.918  0.0814 -0.0136 -0.4124
  838loPI    C113065  12.395   0.388   5.634  0.0813  0.0552 -0.2042
  838loPI    C213066  12.197   0.414   5.287 -0.0944 -0.1985 -0.1261
  838loPI    C313067  12.558   0.242   5.300 -0.0402 -0.0911 -0.2010
  838loPI   PO413068  12.291   0.534   5.777  0.0175 -0.3218 -0.0870
  838loPI   GL113069  12.248   0.591   6.256 -0.0615 -0.0345 -0.1658
  838loPI   GL213070  12.127   0.752   6.444  0.6760  0.3141 -0.0445
  838loPI   C1A13071  12.470   0.482   6.612 -0.1569  0.2628 -0.1643
  838loPI   C2A13072  12.446   0.442   7.020  0.1803 -0.3178  0.1021
  838loPI   C3A13073  12.522   0.459   7.408 -0.1363  0.0300 -0.0239
  838loPI   C4A13074  12.605   0.473   7.840  0.3165 -0.4663 -0.1750
  838loPI   C5A13075  12.573   0.497   8.296 -0.2009  0.2722 -0.2016
  838loPI   C6A13076  12.307   0.649   8.653  0.0547  0.0949  0.2550
  838loPI   C1B13077  12.117   0.808   6.835  0.1226  0.1474 -0.3235
  838loPI   C2B13078  12.141   0.819   7.251  0.0177  0.1414 -0.0479
  838loPI   C3B13079  12.152   0.804   7.725 -0.0514 -0.0224 -0.1661
  838loPI   C4B13080  12.263   0.872   8.159  0.2005 -0.1747 -0.0855
  839loPI    C113081  11.809   6.406   5.739 -0.0761 -0.0409  0.0530
  839loPI    C213082  12.174   6.243   5.736 -0.0486  0.0189  0.1204
  839loPI    C313083  11.973   6.289   5.394 -0.0644 -0.1726  0.1025
  839loPI   PO413084  11.646   6.289   5.910  0.0317 -0.1764 -0.2388
  839loPI   GL113085  11.522   6.475   6.290  0.3843  0.1707 -0.0638
  839loPI   GL213086  11.365   6.151   6.324 -0.1669 -0.1043 -0.1487
  839loPI   C1A13087  11.390   6.751   6.570  0.0568 -0.0891  0.1059
  839loPI   C2A13088  11.435   6.760   7.022 -0.2119  0.0673 -0.1258
  839loPI   C3A13089  11.512   6.615   7.405  0.1497  0.2269  0.2815
  839loPI   C4A13090  11.530   6.660   7.846 -0.1291  0.1616  0.1630
  839loPI   C5A13091  11.346   6.822   8.233 -0.0404 -0.0157 -0.1172
  839loPI   C6A13092  11.175   7.175   8.340  0.1727 -0.0924  0.0610
  839loPI   C1B13093  11.421   6.176   6.761  0.2168  0.2764  0.2783
  839loPI   C2B13094  11.333   6.189   7.233  0.0996  0.1350  0.0455
  839loPI   C3B13095  11.336   6.157   7.650  0.0192  0.4321  0.0582
  839loPI   C4B13096  11.328   6.250   8.054 -0.0450 -0.4689 -0.1602
  840loPI    C113097   5.650  16.307   5.448 -0.1946  0.0952  0.0613
  840loPI    C213098   5.789  16.106   5.131 -0.0586  0.1919  0.0586
  840loPI    C313099   5.477  16.353   5.090 -0.2364 -0.0286  0.0651
  840loPI   PO413100   5.695  16.099   5.659  0.0639 -0.0337 -0.0530
  840loPI   GL113101   5.743  16.017   6.121  0.0294  0.0370  0.0991
  840loPI   GL213102   5.829  16.275   6.398 -0.1111  0.1087  0.1959
  840loPI   C1A13103   5.845  15.744   6.495  0.4268  0.3063 -0.1322
  840loPI   C2A13104   5.730  15.663   6.906 -0.0410 -0.1561  0.0882
  840loPI   C3A13105   5.772  15.677   7.275 -0.0765  0.1304 -0.1416
  840loPI   C4A13106   5.750  15.609   7.771  0.4160 -0.1485  0.2415
  840loPI   C5A13107   5.748  15.747   8.229  0.0984 -0.1747  0.0113
  840loPI   C6A13108   5.645  16.143   8.325 -0.0503 -0.0939  0.0814
  840loPI   C1B13109   5.858  16.153   6.729 -0.0180  0.0995 -0.1675
  840loPI   C2B13110   5.835  16.165   7.196 -0.3462  0.1413  0.2596
  840loPI   C3B13111   5.861  16.226   7.521 -0.1970  0.0230 -0.1254
  840loPI   C4B13112   5.961  16.199   7.991  0.2530  0.0872 -0.0876
  841loPI    C113113  10.819  17.652   5.801  0.1097  0.1205  0.2184
  841loPI    C213114  10.883  17.278   5.677  0.0529  0.1171  0.1993
  841loPI    C313115  10.653  17.523   5.461  0.3231  0.2536  0.0615
  841loPI   PO413116  10.973  17.659   5.992  0.1628 -0.0380  0.1976
  841loPI   GL113117  11.074  17.750   6.326 -0.1504 -0.1983  0.0162
  841loPI   GL213118  11.430  17.818   6.314  0.1242  0.2012 -0.0853
  841loPI   C1A13119  11.004  17.672   6.811 -0.0264  0.1388 -0.1686
  841loPI   C2A13120  11.052  17.598   7.289 -0.3674 -0.1360  0.0283
  841loPI   C3A13121  10.993  17.555   7.714 -0.1574  0.4778 -0.2400
  841loPI   C4A13122  11.168  17.547   8.166 -0.0592 -0.1046 -0.1504
  841loPI   C5A13123  11.470  17.745   8.409 -0.0541  0.3379 -0.3695
  841loPI   C6A13124  11.831  18.034   8.532  0.1486  0.0734  0.1541
  841loPI   C1B13125  11.510  17.839   6.752  0.1402  0.3406 -0.1090
  841loPI   C2B13126  11.571  17.725   7.092 -0.2232  0.6471 -0.0553
  841loPI   C3B13127  11.555  17.785   7.489  0.0288 -0.0334 -0.1386
  841loPI   C4B13128  11.685  17.752   7.953  0.2523 -0.0695  0.0593
  842loPI    C113129   1.963  11.002   5.656  0.0217  0.1411 -0.0070
  842loPI    C213130   1.982  11.194   5.306  0.1954  0.1900  0.0287
  842loPI    C313131   1.709  10.907   5.362  0.2690  0.0721 -0.2017
  842loPI   PO413132   2.048  11.152   5.832  0.1929  0.0500 -0.0461
  842loPI   GL113133   2.208  10.954   6.198 -0.0051 -0.2527  0.1865
  842loPI   GL213134   2.207  10.698   6.402  0.0940 -0.1383 -0.0850
  842loPI   C1A13135   2.097  11.057   6.691 -0.2289 -0.3921  0.1077
  842loPI   C2A13136   2.009  11.092   7.054  0.2691  0.1015  0.0793
  842loPI   C3A13137   2.071  11.063   7.506  0.0458  0.1958 -0.1368
  842loPI   C4A13138   2.162  11.033   7.915  0.0403  0.0191  0.0840
  842loPI   C5A13139   1.905  11.064   8.196 -0.0137  0.1073  0.0170
  842loPI   C6A13140   1.834  11.129   8.482  0.2454  0.1353 -0.0947
  842loPI   C1B13141   2.046  10.571   6.730  0.0108  0.1794  0.1207
  842loPI   C2B13142   1.950  10.553   7.069 -0.2956 -0.0601  0.0409
  842loPI   C3B13143   1.916  10.595   7.583  0.1396 -0.2566 -0.1005
  842loPI   C4B13144   1.966  10.566   8.042 -0.3413 -0.2196  0.2079
  843loPI    C113145   7.435   2.766   5.804 -0.2050 -0.0464 -0.0840
  843loPI    C213146   7.669   2.563   5.551  0.1641 -0.0320  0.2377
  843loPI    C313147   7.639   2.961   5.520  0.3442 -0.0107  0.3186
  843loPI   PO413148   7.568   2.593   6.048 -0.1182 -0.1097  0.3087
  843loPI   GL113149   7.570   2.578   6.453 -0.5018 -0.2502  0.1980
  843loPI   GL213150   7.578   2.978   6.364  0.1047  0.2123 -0.2137
  843loPI   C1A13151   7.475   2.509   6.889 -0.2706  0.0429  0.0888
  843loPI   C2A13152   7.467   2.451   7.273  0.0146  0.1419 -0.2269
  843loPI   C3A13153   7.568   2.484   7.666  0.1904  0.0167  0.0159
  843loPI   C4A13154   7.557   2.442   8.083  0.3164 -0.3138  0.1894
  843loPI   C5A13155   7.393   2.483   8.416 -0.1221 -0.0847  0.1754
  843loPI   C6A13156   7.276   2.595   8.832  0.1694  0.2349 -0.2153
  843loPI   C1B13157   7.588   3.004   6.789  0.2212  0.0144 -0.0512
  843loPI   C2B13158   7.601   3.085   7.177  0.4360 -0.1834 -0.1223
  843loPI   C3B13159   7.564   3.046   7.592  0.1541  0.0804  0.1268
  843loPI   C4B13160   7.650   2.984   7.977  0.1421  0.0973  0.1429
  844loPI    C113161   6.663   6.956   5.791  0.0183 -0.0314  0.2221
  844loPI    C213162   6.941   6.958   5.503 -0.1660  0.4413  0.0380
  844loPI    C313163   6.660   6.673   5.508  0.3400 -0.0711  0.2552
  844loPI   PO413164   6.766   6.946   6.032 -0.2390 -0.1171 -0.1025
  844loPI   GL113165   6.970   7.237   6.278 -0.3073 -0.2423  0.0603
  844loPI   GL213166   6.996   7.527   6.348 -0.1308 -0.1130  0.2735
  844loPI   C1A13167   6.901   7.095   6.705 -0.1179  0.1715  0.1876
  844loPI   C2A13168   6.792   7.063   7.077 -0.0165  0.1024 -0.2053
  844loPI   C3A13169   6.977   7.020   7.428  0.0955 -0.1231  0.2607
  844loPI   C4A13170   6.911   6.975   7.845 -0.1364 -0.0103  0.0782
  844loPI   C5A13171   7.039   6.780   8.313 -0.4231  0.1184 -0.0247
  844loPI   C6A13172   7.056   6.996   8.639  0.3232  0.0874 -0.2630
  844loPI   C1B13173   6.997   7.593   6.802 -0.0456 -0.3432 -0.0473
  844loPI   C2B13174   6.973   7.619   7.183 -0.0249  0.0368 -0.0978
  844loPI   C3B13175   7.080   7.513   7.563  0.1551 -0.0885  0.1135
  844loPI   C4B13176   7.058   7.414   8.039 -0.0207 -0.2189 -0.3091
  845loPI    C113177   2.831   7.246   5.639  0.0464  0.2182 -0.0197
  845loPI    C213178   2.526   7.410   5.440  0.1006  0.0816 -0.2180
  845loPI    C313179   2.810   7.210   5.242  0.0602 -0.2127  0.0138
  845loPI   PO413180   2.688   7.282   5.914  0.0650  0.4146  0.0154
  845loPI   GL113181   2.505   7.578   6.182 -0.1494  0.0679  0.1371
  845loPI   GL213182   2.739   7.545   6.419 -0.2120 -0.2016 -0.2032
  845loPI   C1A13183   2.319   7.469   6.615  0.1526  0.0173  0.1695
  845loPI   C2A13184   2.248   7.356   7.024 -0.0516  0.3451 -0.0197
  845loPI   C3A13185   2.342   7.330   7.561  0.1566 -0.2479 -0.1677
  845loPI   C4A13186   2.363   7.334   7.995 -0.1142 -0.0596  0.1103
  845loPI   C5A13187   2.142   7.296   8.363  0.1058 -0.1028 -0.1106
  845loPI   C6A13188   2.112   7.229   8.787 -0.2362  0.2889 -0.0838
  845loPI   C1B13189   2.857   7.543   6.749  0.1924  0.1329 -0.1574
  845loPI   C2B13190   2.844   7.604   7.235 -0.3031 -0.0983 -0.0082
  845loPI   C3B13191   2.764   7.577   7.676 -0.1478 -0.0050 -0.0238
  845loPI   C4B13192   2.848   7.467   8.111  0.0742  0.1966 -0.0391
  846loPI    C113193   9.438   3.239   5.491  0.1730  0.1164 -0.1424
  846loPI    C213194   9.459   3.010   5.164  0.3054  0.0282 -0.0733
  846loPI    C313195   9.378   3.401   5.131  0.0483 -0.0334 -0.1897
  846loPI   PO413196   9.311   3.204   5.724  0.1598  0.2018  0.2846
  846loPI   GL113197   9.288   3.354   6.072  0.1183 -0.2479 -0.0533
  846loPI   GL213198   9.116   3.674   6.123 -0.0536  0.1099  0.1351
  846loPI   C1A13199   9.398   3.229   6.512 -0.0490 -0.0709 -0.1866
  846loPI   C2A13200   9.421   3.152   6.841  0.0483  0.0230 -0.1976
  846loPI   C3A13201   9.383   3.248   7.287 -0.1845 -0.1336 -0.3514
  846loPI   C4A13202   9.437   3.177   7.682  0.2836 -0.3474  0.2452
  846loPI   C5A13203   9.411   3.328   8.011 -0.0429 -0.0249 -0.1429
  846loPI   C6A13204   9.446   3.708   8.107  0.0656 -0.2870  0.0277
  846loPI   C1B13205   9.018   3.551   6.539 -0.4940 -0.1442  0.3062
  846loPI   C2B13206   8.959   3.505   6.929  0.6386 -0.0304 -0.0545
  846loPI   C3B13207   9.001   3.610   7.355 -0.1688 -0.1939  0.0108
  846loPI   C4B13208   9.035   3.540   7.755 -0.3924  0.1601 -0.2759
  847loPI    C113209   5.703   0.085   5.706 -0.1219 -0.0750 -0.0563
  847loPI    C213210   5.413   0.187   5.449 -0.2429  0.1247  0.1558
  847loPI    C313211   5.759   0.039   5.312 -0.4403 -0.1116 -0.1001
  847loPI   PO413212   5.635   0.036   5.879 -0.1325 -0.1453  0.1537
  847loPI   GL113213   5.674   0.256   6.234  0.0297 -0.3470 -0.2624
  847loPI   GL213214   5.761  -0.002   6.362 -0.1483  0.0098  0.0254
  847loPI   C1A13215   5.719   0.432   6.717 -0.3003 -0.0106 -0.2408
  847loPI   C2A13216   5.699   0.491   7.184  0.0865 -0.0301 -0.1776
  847loPI   C3A13217   5.777   0.425   7.677  0.2381  0.4060 -0.2961
  847loPI   C4A13218   5.866   0.335   8.049 -0.0488  0.0771 -0.0519
  847loPI   C5A13219   5.876   0.246   8.475  0.2182 -0.1502  0.0422
  847loPI   C6A13220   5.853  -0.052   8.570 -0.1174 -0.0925  0.0445
  847loPI   C1B13221   5.662  -0.113   6.818 -0.0169 -0.0452 -0.1581
  847loPI   C2B13222   5.678  -0.072   7.291  0.4052  0.4129  0.2330
  847loPI   C3B13223   5.615  -0.101   7.706  0.1260  0.3154 -0.0063
  847loPI   C4B13224   5.661  -0.160   8.071  0.0042 -0.0374  0.0746
  848loPI    C113225  16.068   7.619   5.342 -0.0334 -0.1015 -0.1968
  848loPI    C213226  16.012   7.964   5.147 -0.1288 -0.1117 -0.1884
  848loPI    C313227  16.183   7.654   4.961  0.0397 -0.0320 -0.1688
  848loPI   PO413228  16.181   7.680   5.519 -0.4710 -0.1168  0.0668
  848loPI   GL113229  16.339   7.713   5.939  0.0910 -0.4011  0.1298
  848loPI   GL213230  16.607   7.673   5.961  0.1524  0.1597  0.2509
  848loPI   C1A13231  16.225   7.732   6.339  0.0039  0.0225  0.1290
  848loPI   C2A13232  16.262   7.573   6.743 -0.1247 -0.2348 -0.0912
  848loPI   C3A13233  16.369   7.492   7.139  0.1780  0.0616  0.2191
  848loPI   C4A13234  16.241   7.419   7.498 -0.0564 -0.1906 -0.1750
  848loPI   C5A13235  16.284   7.378   7.910  0.1254  0.1127  0.2688
  848loPI   C6A13236  16.524   7.613   8.214  0.0139  0.1117 -0.1840
  848loPI   C1B13237  16.742   7.783   6.429  0.1820 -0.0973 -0.2459
  848loPI   C2B13238  16.783   7.631   6.809  0.1129 -0.0464 -0.1160
  848loPI   C3B13239  16.858   7.680   7.263  0.1071 -0.1232  0.2523
  848loPI   C4B13240  16.684   7.578   7.730  0.1723  0.0369 -0.1170
  849loPI    C113241   0.178   8.872   5.645 -0.1859  0.1365 -0.0799
  849loPI    C213242   0.418   8.612   5.459 -0.1242  0.1216  0.0195
  849loPI    C313243   0.220   8.889   5.247  0.0839  0.2193 -0.0496
  849loPI   PO413244   0.361   8.960   5.899 -0.3724  0.0087 -0.1502
  849loPI   GL113245   0.053   8.980   6.193 -0.1287  0.1528  0.2732
  849loPI   GL213246   0.363   8.980   6.382  0.1077 -0.1346  0.3090
  849loPI   C1A13247  -0.116   8.916   6.704 -0.1396 -0.2218  0.2822
  849loPI   C2A13248  -0.176   8.870   7.157  0.1514  0.0061 -0.0383
  849loPI   C3A13249  -0.209   8.776   7.515 -0.0059  0.2566  0.3455
  849loPI   C4A13250  -0.196   8.848   7.944  0.1728 -0.3354 -0.2208
  849loPI   C5A13251  -0.114   9.099   8.277  0.1349  0.1007  0.1865
  849loPI   C6A13252  -0.353   9.222   8.685  0.1314  0.2480 -0.2718
  849loPI   C1B13253   0.306   9.097   6.842  0.0445 -0.4964 -0.1047
  849loPI   C2B13254   0.386   8.964   7.307  0.1629  0.1239 -0.1995
  849loPI   C3B13255   0.232   8.995   7.678  0.1659  0.1054  0.0930
  849loPI   C4B13256   0.337   8.834   7.997 -0.0979 -0.0258  0.1359
  850loPI    C113257   9.207   2.406   5.451 -0.4922 -0.2701 -0.0283
  850loPI    C213258   9.320   2.090   5.234 -0.0870 -0.0599 -0.1330
  850loPI    C313259   9.482   2.449   5.164 -0.3660  0.1250  0.1449
  850loPI   PO413260   9.242   2.309   5.702  0.2008  0.1919 -0.3925
  850loPI   GL113261   9.091   2.397   6.139  0.3554 -0.2535 -0.1679
  850loPI   GL213262   9.155   2.144   6.225  0.1292  0.0574  0.2517
  850loPI   C1A13263   8.814   2.521   6.523  0.2424 -0.1165  0.0016
  850loPI   C2A13264   8.875   2.527   6.927 -0.3487 -0.1049  0.1185
  850loPI   C3A13265   8.847   2.601   7.374 -0.1035  0.0446  0.0157
  850loPI   C4A13266   8.835   2.510   7.774  0.0769  0.1513  0.1876
  850loPI   C5A13267   8.858   2.347   8.102  0.0662 -0.2211 -0.0343
  850loPI   C6A13268   8.954   2.293   8.587 -0.2120 -0.0053  0.1486
  850loPI   C1B13269   9.154   2.111   6.620 -0.1678  0.0669  0.0313
  850loPI   C2B13270   9.275   2.145   7.060  0.4431  0.0278  0.0359
  850loPI   C3B13271   9.201   2.252   7.478 -0.0077 -0.2316  0.1594
  850loPI   C4B13272   9.271   2.110   7.854 -0.0438 -0.2838 -0.0089
  851loPI    C113273  12.936   9.319   5.787 -0.0072 -0.0037  0.0838
  851loPI    C213274  12.782   9.356   5.420  0.2813  0.1509 -0.0255
  851loPI    C313275  12.895   9.681   5.622  0.2180  0.0586  0.1609
  851loPI   PO413276  13.088   9.160   5.779 -0.2138 -0.1610  0.4327
  851loPI   GL113277  13.392   8.953   6.095 -0.0120 -0.0478 -0.0617
  851loPI   GL213278  13.481   9.216   6.124  0.1701 -0.1044  0.0219
  851loPI   C1A13279  13.283   8.853   6.542  0.2529  0.3215  0.1396
  851loPI   C2A13280  13.317   8.794   6.975 -0.1484  0.2273 -0.1574
  851loPI   C3A13281  13.323   8.747   7.426  0.3462 -0.0911  0.0547
  851loPI   C4A13282  13.354   8.887   7.821  0.3487  0.2357 -0.1673
  851loPI   C5A13283  13.207   8.799   8.272  0.0018 -0.0638 -0.2323
  851loPI   C6A13284  13.482   8.607   8.658  0.2067 -0.2482  0.2954
  851loPI   C1B13285  13.425   9.376   6.609  0.0144  0.2069  0.2793
  851loPI   C2B13286  13.370   9.335   7.077  0.3894  0.0384 -0.0828
  851loPI   C3B13287  13.389   9.290   7.461  0.0848  0.0751  0.1482
  851loPI   C4B13288  13.502   9.327   7.902 -0.1620  0.2053 -0.2434
  852loPI    C113289   1.446   2.929   5.943 -0.0460 -0.1466 -0.1230
  852loPI    C213290   1.398   2.674   5.640  0.2120 -0.1351 -0.1757
  852loPI    C313291   1.693   2.943   5.629  0.0500  0.0501 -0.0404
  852loPI   PO413292   1.472   2.878   6.223  0.0775  0.0032 -0.1442
  852loPI   GL113293   1.297   3.093   6.576  0.1291 -0.0487  0.0859
  852loPI   GL213294   1.657   3.188   6.629 -0.3419 -0.0438  0.0368
  852loPI   C1A13295   1.311   3.013   6.955  0.3542 -0.0656 -0.0437
  852loPI   C2A13296   1.230   3.135   7.303  0.2849 -0.0032 -0.0838
  852loPI   C3A13297   1.216   3.082   7.712  0.1889  0.0918 -0.0894
  852loPI   C4A13298   1.166   3.040   8.165  0.2381  0.0387 -0.0539
  852loPI   C5A13299   1.143   3.024   8.565 -0.0394 -0.0432  0.1204
  852loPI   C6A13300   1.471   2.934   8.894  0.1016  0.0186  0.1193
  852loPI   C1B13301   1.770   3.265   7.092 -0.1669 -0.0865  0.3468
  852loPI   C2B13302   1.670   3.222   7.536  0.0242 -0.2996 -0.1378
  852loPI   C3B13303   1.642   3.195   7.988 -0.1554  0.1948 -0.0408
  852loPI   C4B13304   1.671   3.138   8.485 -0.2341  0.0256  0.2980
  853loPI    C113305  12.729  15.748   5.993 -0.0242 -0.0447 -0.0454
  853loPI    C213306  12.944  16.066   5.881  0.0117 -0.0612 -0.0234
  853loPI    C313307  13.055  15.699   5.768 -0.0448 -0.0636 -0.0713
  853loPI   PO413308  12.642  15.780   6.301  0.3027  0.0487 -0.2985
  853loPI   GL113309  12.952  16.095   6.517 -0.1992 -0.0147  0.0611
  853loPI   GL213310  12.663  16.187   6.746 -0.0579  0.0889 -0.2046
  853loPI   C1A13311  13.023  16.020   7.016  0.1647 -0.1128  0.0958
  853loPI   C2A13312  12.990  15.995   7.509 -0.1093 -0.1913  0.1316
  853loPI   C3A13313  13.076  15.950   7.910  0.0948 -0.0385  0.0170
  853loPI   C4A13314  13.281  16.069   8.266  0.1672  0.1538 -0.1420
  853loPI   C5A13315  13.623  16.187   8.497 -0.1738 -0.1052  0.0527
  853loPI   C6A13316  13.931  16.377   8.419  0.1391  0.2269  0.1896
  853loPI   C1B13317  12.685  16.289   7.205  0.3028  0.1823 -0.0573
  853loPI   C2B13318  12.641  16.334   7.608  0.0960 -0.1216  0.3865
  853loPI   C3B13319  12.739  16.305   7.987 -0.2597  0.0529 -0.2562
  853loPI   C4B13320  12.666  16.356   8.447 -0.0661  0.0738 -0.0957
  854loPI    C113321  13.638   2.584   6.043  0.0493 -0.0298  0.2605
  854loPI    C213322  13.833   2.907   5.909  0.2063 -0.1514  0.1926
  854loPI    C313323  13.695   2.635   5.650  0.1715 -0.1941  0.2558
  854loPI   PO413324  13.525   2.652   6.173  0.0101  0.1187 -0.0241
  854loPI   GL113325  13.491   2.560   6.524  0.2662  0.0835 -0.1691
  854loPI   GL213326  13.819   2.331   6.527  0.0377 -0.0123 -0.0834
  854loPI   C1A13327  13.360   2.658   7.037  0.1329 -0.0393  0.0503
  854loPI   C2A13328  13.408   2.643   7.517  0.1596 -0.1283  0.1937
  854loPI   C3A13329  13.516   2.624   7.957  0.1286  0.1383 -0.2226
  854loPI   C4A13330  13.536   2.701   8.412 -0.0154  0.1087  0.4444
  854loPI   C5A13331  13.635   3.014   8.621  0.1118  0.0592  0.0891
  854loPI   C6A13332  13.856   3.349   8.520  0.1581 -0.0313  0.3047
  854loPI   C1B13333  13.802   2.309   7.026 -0.1091 -0.2697  0.0149
  854loPI   C2B13334  13.792   2.302   7.440 -0.0258  0.1296 -0.0098
  854loPI   C3B13335  13.897   2.281   7.878  0.1160 -0.2005 -0.1314
  854loPI   C4B13336  13.791   2.327   8.297  0.0782  0.0139 -0.0943
  855loPI    C113337   2.980  11.088   5.533  0.2110 -0.1497 -0.0369
  855loPI    C213338   3.165  11.345   5.289 -0.0880  0.2891  0.1859
  855loPI    C313339   2.866  11.119   5.150  0.1714  0.0599 -0.0096
  855loPI   PO413340   2.951  11.203   5.796  0.0533  0.1117  0.0268
  855loPI   GL113341   3.018  11.305   6.129 -0.2035 -0.1677 -0.2153
  855loPI   GL213342   2.962  11.607   6.199  0.0904  0.2761  0.1812
  855loPI   C1A13343   3.064  11.340   6.585  0.0201  0.0446  0.1093
  855loPI   C2A13344   3.137  11.343   6.949  0.3350  0.1730 -0.0175
  855loPI   C3A13345   3.047  11.406   7.404  0.2530  0.1542 -0.2071
  855loPI   C4A13346   3.083  11.458   7.762  0.0687  0.1450 -0.3910
  855loPI   C5A13347   3.203  11.507   8.155  0.2099 -0.0333 -0.1475
  855loPI   C6A13348   2.974  11.609   8.536  0.2142 -0.1821  0.0860
  855loPI   C1B13349   2.718  11.732   6.525 -0.0406  0.1766 -0.3428
  855loPI   C2B13350   2.677  11.752   6.975  0.0811 -0.0162 -0.1023
  855loPI   C3B13351   2.709  11.748   7.445 -0.1034  0.0099 -0.2938
  855loPI   C4B13352   2.678  11.715   7.901  0.0744  0.2839 -0.1829
  856loPI    C113353   2.975   8.131   5.605  0.1898  0.0101 -0.0815
  856loPI    C213354   2.981   7.764   5.444 -0.0113  0.0272 -0.1314
  856loPI    C313355   2.950   8.085   5.208  0.1246  0.0756 -0.0850
  856loPI   PO413356   2.936   8.128   5.865 -0.0120  0.0820  0.1676
  856loPI   GL113357   2.710   8.067   6.211  0.0970  0.2562 -0.1271
  856loPI   GL213358   2.981   7.981   6.337 -0.1189 -0.1296  0.1234
  856loPI   C1A13359   2.522   8.008   6.546 -0.1806  0.1826 -0.1298
  856loPI   C2A13360   2.449   7.865   6.992 -0.0823  0.1168  0.0199
  856loPI   C3A13361   2.348   7.849   7.423 -0.1439  0.0855 -0.1369
  856loPI   C4A13362   2.394   7.855   7.909  0.0083 -0.1288  0.1309
  856loPI   C5A13363   2.534   7.822   8.403  0.0966  0.4789 -0.1169
  856loPI   C6A13364   2.603   7.930   8.792  0.0370 -0.0527  0.0564
  856loPI   C1B13365   2.967   8.074   6.727 -0.2371  0.0860 -0.0117
  856loPI   C2B13366   2.808   8.100   7.145 -0.2166 -0.1272  0.0887
  856loPI   C3B13367   2.860   8.037   7.614  0.3370  0.0646 -0.0715
  856loPI   C4B13368   2.922   7.974   8.011  0.0975  0.3047 -0.0665
  857loPI    C113369  16.830   5.463   6.010  0.1420  0.0434 -0.1385
  857loPI    C213370  16.584   5.627   5.741  0.0025  0.1596  0.0577
  857loPI    C313371  16.671   5.237   5.720 -0.2065  0.1151 -0.0077
  857loPI   PO413372  16.711   5.437   6.324  0.2096 -0.0033 -0.1618
  857loPI   GL113373  16.564   5.177   6.640  0.1759  0.1321 -0.0312
  857loPI   GL213374  16.267   5.328   6.549  0.2679  0.1871  0.0452
  857loPI   C1A13375  16.691   5.014   6.952  0.0573  0.3646  0.1088
  857loPI   C2A13376  16.760   5.005   7.364 -0.0352 -0.1129 -0.2274
  857loPI   C3A13377  16.736   4.992   7.778  0.2118 -0.0659 -0.1023
  857loPI   C4A13378  16.972   4.792   8.064  0.0957 -0.1265 -0.2156
  857loPI   C5A13379  17.079   4.601   8.411  0.1272 -0.3192 -0.0716
  857loPI   C6A13380  17.049   4.784   8.830 -0.2341 -0.1073 -0.0203
  857loPI   C1B13381  16.189   5.138   7.001 -0.1179 -0.2110 -0.0890
  857loPI   C2B13382  16.134   4.947   7.359 -0.1631  0.3876 -0.2480
  857loPI   C3B13383  16.191   4.983   7.721 -0.3285  0.0737 -0.0590
  857loPI   C4B13384  16.263   5.078   8.140 -0.1644  0.1764  0.0422
  858loPI    C113385   1.193   2.278   5.861 -0.0202  0.2543 -0.0831
  858loPI    C213386   0.959   2.447   5.585 -0.4146 -0.1314  0.0035
  858loPI    C313387   1.180   2.127   5.491  0.0001  0.1614 -0.0465
  858loPI   PO413388   1.330   2.416   6.060 -0.0229  0.0617  0.0643
  858loPI   GL113389   1.386   2.464   6.496 -0.0012 -0.2719 -0.0709
  858loPI   GL213390   1.140   2.584   6.642  0.0934  0.4634  0.1734
  858loPI   C1A13391   1.608   2.669   6.871  0.2413  0.1754  0.0386
  858loPI   C2A13392   1.684   2.757   7.240 -0.2123  0.0046 -0.0179
  858loPI   C3A13393   1.626   2.760   7.654  0.3657  0.1868 -0.0246
  858loPI   C4A13394   1.593   2.733   8.095 -0.0537  0.0641  0.0787
  858loPI   C5A13395   1.699   2.640   8.472 -0.0179 -0.0335  0.2800
  858loPI   C6A13396   1.813   2.432   8.854 -0.0032 -0.0782 -0.1536
  858loPI   C1B13397   1.169   2.517   7.031 -0.0390 -0.1641 -0.1411
  858loPI   C2B13398   1.199   2.578   7.377 -0.1577  0.1159 -0.1388
  858loPI   C3B13399   1.162   2.605   7.827 -0.0159 -0.2592  0.3558
  858loPI   C4B13400   1.128   2.569   8.363 -0.0494  0.1663  0.0112
  859loPI    C113401  13.957   1.478   5.593 -0.2181  0.2165  0.0664
  859loPI    C213402  13.745   1.715   5.350 -0.2154  0.1859  0.0341
  859loPI    C313403  13.757   1.320   5.284  0.0692  0.2184 -0.1239
  859loPI   PO413404  13.887   1.603   5.829 -0.3930 -0.0371  0.1162
  859loPI   GL113405  13.741   1.669   6.257  0.1535 -0.2558  0.1490
  859loPI   GL213406  14.053   1.532   6.430  0.1060 -0.3216  0.1017
  859loPI   C1A13407  13.643   1.818   6.614 -0.3748 -0.2408  0.0536
  859loPI   C2A13408  13.661   1.744   7.053 -0.0767  0.2325 -0.2329
  859loPI   C3A13409  13.676   1.754   7.467 -0.0296  0.1173  0.0554
  859loPI   C4A13410  13.788   1.818   7.924  0.2025  0.0079  0.2505
  859loPI   C5A13411  13.715   1.846   8.342  0.0560  0.0328 -0.2776
  859loPI   C6A13412  13.491   2.000   8.733 -0.2010  0.1320  0.2544
  859loPI   C1B13413  13.962   1.425   6.851  0.0268  0.2070  0.1672
  859loPI   C2B13414  14.003   1.363   7.217  0.1996  0.0176 -0.0936
  859loPI   C3B13415  14.028   1.395   7.678  0.0930 -0.1173 -0.0260
  859loPI   C4B13416  14.112   1.421   8.116  0.0390  0.2747  0.2349
  860loPI    C113417   4.594  11.843   5.404  0.1179 -0.1619 -0.1097
  860loPI    C213418   4.224  11.843   5.252  0.0827 -0.0815 -0.0248
  860loPI    C313419   4.536  11.932   5.018  0.0174  0.1558 -0.0238
  860loPI   PO413420   4.589  11.986   5.599  0.3522 -0.0645 -0.1445
  860loPI   GL113421   4.343  12.137   5.999 -0.0372 -0.1901 -0.3244
  860loPI   GL213422   4.683  11.952   6.081 -0.0454 -0.0053 -0.0726
  860loPI   C1A13423   4.222  12.230   6.485  0.1197  0.0580 -0.0292
  860loPI   C2A13424   4.213  12.317   6.876  0.0237  0.1266  0.0098
  860loPI   C3A13425   4.243  12.186   7.374  0.3724 -0.2504 -0.0750
  860loPI   C4A13426   4.217  12.317   7.789 -0.3363  0.3379 -0.1253
  860loPI   C5A13427   4.267  12.338   8.333 -0.0148  0.1175  0.0356
  860loPI   C6A13428   4.314  12.576   8.599  0.3124  0.0576 -0.1324
  860loPI   C1B13429   4.585  11.894   6.580  0.3597  0.2327  0.1793
  860loPI   C2B13430   4.569  11.984   7.050  0.0298  0.0899  0.0831
  860loPI   C3B13431   4.625  11.919   7.468 -0.2747 -0.3152 -0.1408
  860loPI   C4B13432   4.642  12.001   7.915 -0.1096  0.1251 -0.5365
  861loPI    C113433   9.264   0.268   5.449  0.2060  0.0927  0.0058
  861loPI    C213434   8.990   0.326   5.164  0.0774  0.0276  0.1150
  861loPI    C313435   9.377   0.390   5.085  0.0592 -0.1379 -0.1196
  861loPI   PO413436   9.167   0.390   5.629  0.3102  0.2143 -0.0652
  861loPI   GL113437   9.135   0.346   6.020 -0.1037 -0.0478  0.0519
  861loPI   GL213438   9.267   0.239   6.160  0.0567 -0.2908  0.1108
  861loPI   C1A13439   8.970   0.640   6.379  0.1051 -0.1917 -0.1376
  861loPI   C2A13440   8.863   0.568   6.753 -0.2119 -0.2114  0.0897
  861loPI   C3A13441   8.901   0.665   7.167  0.1061  0.2793 -0.1687
  861loPI   C4A13442   8.904   0.690   7.592 -0.4075 -0.2405  0.1228
  861loPI   C5A13443   8.927   0.573   7.966 -0.0919  0.4724  0.1736
  861loPI   C6A13444   9.058   0.541   8.365 -0.0690  0.1842 -0.0918
  861loPI   C1B13445   9.239   0.223   6.520 -0.3416  0.1859 -0.2222
  861loPI   C2B13446   9.261   0.252   6.924  0.1305  0.0685 -0.2136
  861loPI   C3B13447   9.247   0.377   7.382 -0.1754  0.0576 -0.0211
  861loPI   C4B13448   9.339   0.266   7.837 -0.0070  0.0315 -0.3373
  862loPI    C113449  11.348  17.469   5.762  0.1637  0.1567 -0.0095
  862loPI    C213450  11.278  17.380   5.379  0.3723  0.1410 -0.0451
  862loPI    C313451  11.167  17.736   5.525  0.0015  0.0249 -0.0352
  862loPI   PO413452  11.556  17.453   5.840 -0.4305  0.3137  0.0529
  862loPI   GL113453  11.739  17.433   6.288  0.1047  0.3485 -0.0292
  862loPI   GL213454  11.563  17.138   6.486 -0.1351 -0.0579  0.0180
  862loPI   C1A13455  11.856  17.434   6.642  0.1750 -0.0851  0.0534
  862loPI   C2A13456  11.950  17.384   7.084 -0.0509  0.0815  0.0929
  862loPI   C3A13457  11.974  17.433   7.516  0.2561 -0.0210  0.0476
  862loPI   C4A13458  12.028  17.396   7.903  0.3989  0.1075  0.0832
  862loPI   C5A13459  11.982  17.413   8.359  0.1095 -0.4849 -0.0001
  862loPI   C6A13460  11.864  17.570   8.818  0.0106 -0.1717  0.0914
  862loPI   C1B13461  11.402  17.299   6.893 -0.1246  0.2674  0.1381
  862loPI   C2B13462  11.463  17.272   7.297  0.1223  0.0736 -0.1907
  862loPI   C3B13463  11.496  17.343   7.765  0.0050  0.0041  0.0041
  862loPI   C4B13464  11.542  17.261   8.176  0.1115 -0.1048 -0.0767
  863loPI    C113465   4.449  15.017   5.334  0.2167 -0.2101 -0.1213
  863loPI    C213466   4.064  14.957   5.243  0.0811  0.1639  0.1794
  863loPI    C313467   4.317  15.089   4.963 -0.0014 -0.1002 -0.0242
  863loPI   PO413468   4.472  14.980   5.620 -0.0620  0.3393  0.2728
  863loPI   GL113469   4.363  15.203   6.013 -0.0815 -0.0212 -0.1347
  863loPI   GL213470   4.256  15.060   6.201 -0.0604 -0.1475 -0.2510
  863loPI   C1A13471   4.328  15.613   6.272  0.6097 -0.1027 -0.0731
  863loPI   C2A13472   4.369  15.671   6.723 -0.3671 -0.0150 -0.0373
  863loPI   C3A13473   4.380  15.620   7.140  0.2359  0.1957  0.0975
  863loPI   C4A13474   4.345  15.661   7.593 -0.1413 -0.0404 -0.0787
  863loPI   C5A13475   4.344  15.614   8.022  0.1340 -0.0123 -0.0945
  863loPI   C6A13476   4.538  15.447   8.423  0.0550 -0.0026  0.1125
  863loPI   C1B13477   4.254  15.185   6.575 -0.2078 -0.5730 -0.0274
  863loPI   C2B13478   4.238  15.174   7.066  0.0902  0.0407 -0.1676
  863loPI   C3B13479   4.306  15.174   7.452  0.1538  0.0996  0.0118
  863loPI   C4B13480   4.381  15.096   8.044  0.4226 -0.2612  0.2826
  864loPI    C113481   2.388   8.823   5.748 -0.2734  0.0268  0.1861
  864loPI    C213482   2.568   9.008   5.441 -0.0437  0.0611  0.3392
  864loPI    C313483   2.362   8.670   5.379  0.1154 -0.0059  0.1684
  864loPI   PO413484   2.450   8.944   5.986 -0.0645  0.1817  0.0477
  864loPI   GL113485   2.592   8.918   6.387 -0.2680  0.0200 -0.1809
  864loPI   GL213486   2.453   8.569   6.381  0.0291  0.2370 -0.2322
  864loPI   C1A13487   2.573   8.861   6.799 -0.3381 -0.2314  0.3668
  864loPI   C2A13488   2.565   8.852   7.183 -0.0427 -0.0539 -0.0336
  864loPI   C3A13489   2.563   8.837   7.658 -0.2301 -0.1895  0.1260
  864loPI   C4A13490   2.618   8.919   8.027 -0.1993 -0.1621 -0.1317
  864loPI   C5A13491   2.537   8.877   8.503 -0.0038 -0.0406 -0.0033
  864loPI   C6A13492   2.542   8.447   8.598  0.2368 -0.3088 -0.0674
  864loPI   C1B13493   2.436   8.385   6.832  0.0805 -0.0788  0.1834
  864loPI   C2B13494   2.454   8.382   7.300 -0.1091  0.1640 -0.0708
  864loPI   C3B13495   2.480   8.293   7.712 -0.0750 -0.0630 -0.1145
  864loPI   C4B13496   2.440   8.356   8.148  0.1059  0.0737 -0.0272
  865loPI    C113497  11.081   5.128   5.544  0.0704  0.1864  0.0847
  865loPI    C213498  11.094   4.730   5.573 -0.2811  0.1735  0.1097
  865loPI    C313499  11.418   4.932   5.453 -0.0706 -0.1098  0.1884
  865loPI   PO413500  10.911   5.155   5.780  0.2096 -0.1624  0.1326
  865loPI   GL113501  10.875   5.369   6.211 -0.0310 -0.0714 -0.1597
  865loPI   GL213502  11.142   5.193   6.301 -0.1483  0.0628  0.0090
  865loPI   C1A13503  10.768   5.477   6.596 -0.0592 -0.2544  0.0706
  865loPI   C2A13504  10.818   5.524   7.005 -0.0134 -0.2083 -0.0122
  865loPI   C3A13505  10.792   5.502   7.446 -0.0118 -0.3411  0.3871
  865loPI   C4A13506  10.773   5.565   7.921  0.1274  0.1379 -0.0141
  865loPI   C5A13507  10.798   5.527   8.420  0.2521  0.1689  0.1887
  865loPI   C6A13508  11.163   5.667   8.742  0.2681 -0.4222  0.4153
  865loPI   C1B13509  11.209   5.168   6.719 -0.1189 -0.0858 -0.0734
  865loPI   C2B13510  11.189   5.198   7.207  0.0364 -0.4722  0.1406
  865loPI   C3B13511  11.081   5.208   7.751 -0.3279 -0.1200 -0.0321
  865loPI   C4B13512  11.212   5.179   8.130 -0.1400 -0.2427 -0.0780
  866loPI    C113513   6.873   6.481   5.885  0.0695 -0.0546  0.0743
  866loPI    C213514   7.138   6.483   5.585 -0.0505 -0.3130 -0.0366
  866loPI    C313515   6.884   6.177   5.626 -0.0791 -0.2497  0.2933
  866loPI   PO413516   6.977   6.499   6.082  0.1352 -0.3064  0.1754
  866loPI   GL113517   7.014   6.200   6.439 -0.1025 -0.4696 -0.0574
  866loPI   GL213518   6.690   6.170   6.554 -0.2012  0.0896 -0.0986
  866loPI   C1A13519   7.231   6.215   6.861 -0.3163  0.2350 -0.0051
  866loPI   C2A13520   7.211   6.123   7.327  0.1533 -0.0354 -0.0932
  866loPI   C3A13521   7.089   6.146   7.688 -0.0112  0.2503 -0.2239
  866loPI   C4A13522   7.310   6.153   8.075  0.1634 -0.1126 -0.5042
  866loPI   C5A13523   7.288   6.123   8.572 -0.2393  0.2955  0.3359
  866loPI   C6A13524   7.599   5.722   8.534 -0.4096  0.0684  0.1795
  866loPI   C1B13525   6.723   6.070   6.969  0.3066 -0.0049 -0.0046
  866loPI   C2B13526   6.648   6.038   7.430  0.1597 -0.0453 -0.0681
  866loPI   C3B13527   6.661   5.953   7.917 -0.0777  0.4695  0.0017
  866loPI   C4B13528   6.984   5.864   8.257  0.0114 -0.0281 -0.1578
  867loPI    C113529  17.297  17.358   5.876 -0.1080 -0.1522 -0.2419
  867loPI    C213530  17.220  17.600   5.567 -0.2274  0.1324  0.0059
  867loPI    C313531  17.373  17.236   5.502  0.1871  0.3608 -0.3597
  867loPI   PO413532  17.479  17.461   5.979 -0.1007 -0.1774  0.0700
  867loPI   GL113533  17.662  17.275   6.271 -0.1502 -0.0359  0.0894
  867loPI   GL213534  17.832  17.482   6.456  0.2586  0.1858  0.2495
  867loPI   C1A13535  17.287  17.395   6.640 -0.0063  0.0168 -0.1930
  867loPI   C2A13536  17.249  17.308   7.119  0.0848  0.1394  0.1574
  867loPI   C3A13537  17.308  17.448   7.495 -0.3842 -0.2350 -0.0195
  867loPI   C4A13538  17.342  17.364   7.965  0.1627 -0.1576 -0.2009
  867loPI   C5A13539  17.362  17.337   8.409 -0.2197 -0.1277  0.2204
  867loPI   C6A13540  17.282  17.460   8.848  0.0965 -0.2739 -0.0154
  867loPI   C1B13541  17.705  17.449   6.825 -0.0618 -0.3118 -0.3090
  867loPI   C2B13542  17.789  17.495   7.252  0.0039  0.2097  0.1612
  867loPI   C3B13543  17.883  17.521   7.663 -0.1444  0.1683  0.1519
  867loPI   C4B13544  17.851  17.509   8.143 -0.0714 -0.0493 -0.0396
  868loPI    C113545   2.248   4.564   5.447  0.3661  0.0066 -0.1397
  868loPI    C213546   2.391   4.203   5.350  0.1400 -0.0596 -0.2339
  868loPI    C313547   2.099   4.368   5.131 -0.0315  0.0078  0.0406
  868loPI   PO413548   2.168   4.589   5.752 -0.2783  0.0935  0.1279
  868loPI   GL113549   2.276   4.580   6.208 -0.1864 -0.1123  0.0108
  868loPI   GL213550   2.020   4.772   6.296  0.0846 -0.2923 -0.2898
  868loPI   C1A13551   2.318   4.503   6.582  0.0219  0.0998  0.1222
  868loPI   C2A13552   2.317   4.480   7.029 -0.1004  0.2254 -0.0737
  868loPI   C3A13553   2.340   4.396   7.439 -0.3931 -0.1214  0.1558
  868loPI   C4A13554   2.411   4.349   7.875 -0.2125 -0.3019 -0.0736
  868loPI   C5A13555   2.385   4.443   8.321 -0.3765 -0.2461 -0.1535
  868loPI   C6A13556   2.395   4.208   8.710  0.0330 -0.1005  0.0495
  868loPI   C1B13557   1.912   4.755   6.689  0.1445 -0.3596 -0.0073
  868loPI   C2B13558   1.885   4.799   7.179 -0.0980 -0.0294 -0.2732
  868loPI   C3B13559   2.014   4.714   7.651 -0.1966 -0.1214  0.1045
  868loPI   C4B13560   1.989   4.779   8.152 -0.1356 -0.0170 -0.0045
  869loPI    C113561  17.363  11.101   5.453  0.0360 -0.0481  0.0215
  869loPI    C213562  17.149  11.309   5.187  0.0305  0.1851  0.2048
  869loPI    C313563  17.546  11.279   5.145 -0.0064 -0.0444 -0.0015
  869loPI   PO413564  17.161  11.146   5.702 -0.0537 -0.1389  0.1841
  869loPI   GL113565  17.173  10.969   6.128 -0.3226 -0.1525 -0.2682
  869loPI   GL213566  17.074  10.768   6.151 -0.3056 -0.0745  0.0761
  869loPI   C1A13567  17.238  11.276   6.389  0.1214 -0.0825  0.1100
  869loPI   C2A13568  17.036  11.241   6.777 -0.2563 -0.0439 -0.3372
  869loPI   C3A13569  16.968  11.034   7.242  0.3168 -0.1114  0.0289
  869loPI   C4A13570  16.945  11.010   7.665  0.3146  0.1981 -0.1832
  869loPI   C5A13571  17.088  10.879   8.030  0.0515 -0.0146 -0.0482
  869loPI   C6A13572  17.441  10.770   8.156  0.1789 -0.0064  0.1058
  869loPI   C1B13573  16.912  10.472   6.470  0.0270 -0.0462 -0.1226
  869loPI   C2B13574  16.813  10.494   6.851 -0.2053 -0.1023  0.1915
  869loPI   C3B13575  16.865  10.519   7.263 -0.3523 -0.0897  0.0090
  869loPI   C4B13576  16.848  10.433   7.690 -0.3075 -0.1343  0.0793
  870loPI    C113577   5.295   8.771   5.394  0.0908  0.0395  0.0651
  870loPI    C213578   5.649   8.601   5.322  0.0944  0.1268 -0.1302
  870loPI    C313579   5.350   8.558   5.060 -0.0216  0.1034  0.0049
  870loPI   PO413580   5.203   8.725   5.668  0.0061 -0.0155 -0.2971
  870loPI   GL113581   5.098   8.541   5.994 -0.0828  0.2701  0.0438
  870loPI   GL213582   5.263   8.477   6.149 -0.0611  0.0606 -0.0959
  870loPI   C1A13583   4.940   8.825   6.274  0.0539 -0.0905 -0.0780
  870loPI   C2A13584   4.867   8.776   6.738 -0.1833  0.0627 -0.3516
  870loPI   C3A13585   4.881   8.711   7.241  0.1925  0.0996  0.3901
  870loPI   C4A13586   4.896   8.694   7.670  0.1403 -0.0740 -0.2504
  870loPI   C5A13587   4.859   8.712   8.040 -0.1670 -0.0610  0.0296
  870loPI   C6A13588   4.677   8.830   8.425 -0.2406  0.0637 -0.2122
  870loPI   C1B13589   5.307   8.392   6.590  0.4290  0.0321 -0.2318
  870loPI   C2B13590   5.239   8.415   7.030 -0.0922  0.4736 -0.0669
  870loPI   C3B13591   5.268   8.419   7.385 -0.0665  0.1282  0.2212
  870loPI   C4B13592   5.261   8.433   7.895 -0.0501 -0.0767  0.1999
  871loPI    C113593   7.524   3.815   5.309  0.2035 -0.1758  0.2532
  871loPI    C213594   7.770   3.805   4.995 -0.0405 -0.2579  0.0614
  871loPI    C313595   7.602   3.467   5.128 -0.1349 -0.1876  0.1216
  871loPI   PO413596   7.670   3.949   5.468  0.2612 -0.2497 -0.3172
  871loPI   GL113597   7.677   3.805   5.972 -0.1320 -0.1914  0.5012
  871loPI   GL213598   7.349   3.786   6.161 -0.0185 -0.0368 -0.1291
  871loPI   C1A13599   7.778   3.902   6.341  0.2593  0.1318 -0.2497
  871loPI   C2A13600   7.732   4.057   6.711  0.1248  0.0519 -0.1295
  871loPI   C3A13601   7.648   4.028   7.077  0.1578 -0.0667  0.2513
  871loPI   C4A13602   7.683   3.953   7.579 -0.2410  0.2646  0.2218
  871loPI   C5A13603   7.717   4.090   7.958 -0.2221 -0.1062  0.0617
  871loPI   C6A13604   8.021   3.990   8.269  0.2339  0.0623 -0.1614
  871loPI   C1B13605   7.305   3.833   6.615 -0.0280  0.0108  0.0903
  871loPI   C2B13606   7.111   3.762   6.962 -0.0656 -0.1910 -0.0263
  871loPI   C3B13607   7.186   3.897   7.341  0.2086 -0.0664  0.3306
  871loPI   C4B13608   7.212   3.808   7.749  0.1699 -0.0092  0.2130
  872loPI    C113609  14.200   2.005   5.725 -0.0768 -0.0261 -0.0496
  872loPI    C213610  14.418   1.714   5.559 -0.0160 -0.0172  0.0138
  872loPI    C313611  14.184   1.945   5.330 -0.1055 -0.1500 -0.0301
  872loPI   PO413612  14.276   1.902   6.024 -0.1342 -0.2315  0.1375
  872loPI   GL113613  14.243   2.012   6.410  0.0822  0.1302 -0.0799
  872loPI   GL213614  14.547   2.060   6.522 -0.2460  0.0897  0.0124
  872loPI   C1A13615  14.106   1.956   6.764  0.2217 -0.1384 -0.2465
  872loPI   C2A13616  14.170   1.866   7.218  0.0396  0.0609  0.1987
  872loPI   C3A13617  14.139   1.938   7.586 -0.2873 -0.0170  0.4101
  872loPI   C4A13618  14.224   1.958   8.079 -0.2839 -0.1675  0.2771
  872loPI   C5A13619  14.212   2.157   8.398 -0.1942  0.0419 -0.0736
  872loPI   C6A13620  14.012   2.145   8.854 -0.2341  0.0132  0.1656
  872loPI   C1B13621  14.669   2.021   6.889  0.2431 -0.0617  0.1809
  872loPI   C2B13622  14.611   2.120   7.310  0.1219 -0.3558 -0.0763
  872loPI   C3B13623  14.633   2.170   7.720 -0.2999 -0.4594 -0.3195
  872loPI   C4B13624  14.713   2.187   8.098  0.0926 -0.0022  0.2347
  873loPI    C113625  11.779  10.129   5.803  0.1713 -0.0623  0.2247
  873loPI    C213626  12.159  10.147   5.925  0.2928 -0.0939 -0.1366
  873loPI    C313627  12.058  10.289   5.565 -0.0763  0.1005  0.0388
  873loPI   PO413628  11.622  10.193   6.033 -0.0491 -0.0266  0.1017
  873loPI   GL113629  11.803  10.283   6.314 -0.1100  0.2432  0.1501
  873loPI   GL213630  11.692  10.510   6.400 -0.0894  0.1121 -0.3878
  873loPI   C1A13631  11.668  10.098   6.675  0.3568  0.0785 -0.0835
  873loPI   C2A13632  11.724  10.064   7.178  0.1778  0.0677  0.1491
  873loPI   C3A13633  11.768  10.122   7.673 -0.0547  0.1683  0.2631
  873loPI   C4A13634  11.805  10.037   8.052 -0.1127  0.1901  0.2064
  873loPI   C5A13635  11.920  10.287   8.252  0.1892 -0.4249 -0.1947
  873loPI   C6A13636  11.935  10.696   8.515 -0.0163 -0.1633 -0.0624
  873loPI   C1B13637  11.720  10.595   6.816 -0.0612  0.1196  0.0466
  873loPI   C2B13638  11.732  10.612   7.308 -0.0194 -0.0729  0.3949
  873loPI   C3B13639  11.872  10.632   7.673  0.0173  0.3388  0.1808
  873loPI   C4B13640  11.926  10.716   8.027  0.0231  0.0536 -0.0976
  874loPI    C113641  15.729  12.231   5.204 -0.1095 -0.0509  0.0902
  874loPI    C213642  15.805  12.005   4.883 -0.0547 -0.2464  0.2383
  874loPI    C313643  16.070  12.281   5.001 -0.0746 -0.1748  0.1171
  874loPI   PO413644  15.765  12.072   5.468  0.3087 -0.1246 -0.0367
  874loPI   GL113645  15.717  11.931   5.909  0.0441  0.5183  0.3303
  874loPI   GL213646  15.718  11.669   6.102 -0.3046 -0.0263  0.2384
  874loPI   C1A13647  15.907  12.080   6.392 -0.0774 -0.1536 -0.1464
  874loPI   C2A13648  15.816  12.111   6.808 -0.0885 -0.3938  0.0722
  874loPI   C3A13649  15.770  12.003   7.203  0.0573  0.1220  0.0107
  874loPI   C4A13650  15.843  12.023   7.632  0.1006 -0.1850  0.2144
  874loPI   C5A13651  15.930  12.160   8.105 -0.2226  0.1671 -0.0153
  874loPI   C6A13652  16.321  12.181   8.406 -0.1450  0.0984 -0.3370
  874loPI   C1B13653  15.747  11.617   6.603 -0.0972 -0.0638  0.1623
  874loPI   C2B13654  15.779  11.506   7.027 -0.1418 -0.0921  0.0555
  874loPI   C3B13655  15.719  11.562   7.548  0.0439 -0.1850 -0.1043
  874loPI   C4B13656  15.737  11.615   7.958  0.0352 -0.3115 -0.0866
  875loPI    C113657   9.863   9.489   5.716  0.0242  0.1402  0.1222
  875loPI    C213658   9.917   9.684   5.371 -0.0733  0.1215  0.0959
  875loPI    C313659  10.217   9.473   5.531 -0.1094 -0.0964 -0.1193
  875loPI   PO413660   9.799   9.615   5.895  0.2829 -0.0632  0.4956
  875loPI   GL113661   9.751   9.431   6.349  0.2810  0.0567 -0.1489
  875loPI   GL213662   9.531   9.693   6.402 -0.0533  0.1610 -0.0478
  875loPI   C1A13663   9.711   9.333   6.775  0.2298 -0.0580 -0.0387
  875loPI   C2A13664   9.732   9.356   7.249 -0.0166  0.0962 -0.1126
  875loPI   C3A13665   9.699   9.408   7.714  0.2464  0.0710  0.1204
  875loPI   C4A13666   9.749   9.367   8.077  0.0589 -0.1564  0.1351
  875loPI   C5A13667  10.044   9.412   8.418 -0.0562 -0.0092 -0.3480
  875loPI   C6A13668  10.095   9.270   8.812 -0.2187  0.3564  0.1905
  875loPI   C1B13669   9.265   9.636   6.742  0.2202 -0.3470 -0.1057
  875loPI   C2B13670   9.228   9.611   7.096 -0.1233  0.1197  0.1127
  875loPI   C3B13671   9.355   9.675   7.544  0.1219 -0.0150 -0.1671
  875loPI   C4B13672   9.267   9.761   7.970  0.4361 -0.0510 -0.2294
  876loPI    C113673   4.027   7.292   5.637  0.0528  0.1537  0.0075
  876loPI    C213674   4.351   7.523   5.600 -0.0403  0.2980  0.0801
  876loPI    C313675   4.040   7.575   5.354 -0.0246  0.1863  0.0360
  876loPI   PO413676   3.995   7.301   5.919 -0.0562 -0.1932  0.0653
  876loPI   GL113677   4.137   7.637   6.173  0.1784  0.0924  0.0965
  876loPI   GL213678   4.432   7.537   6.172  0.2832  0.2838  0.0189
  876loPI   C1A13679   4.126   7.571   6.625 -0.0414 -0.2477 -0.0341
  876loPI   C2A13680   4.265   7.559   7.004 -0.1109  0.2109  0.0105
  876loPI   C3A13681   4.173   7.528   7.491 -0.2546  0.2053 -0.1179
  876loPI   C4A13682   4.156   7.462   7.822 -0.0359  0.0967 -0.0165
  876loPI   C5A13683   4.092   7.431   8.287  0.3045  0.0529  0.3604
  876loPI   C6A13684   4.291   7.551   8.594  0.0956  0.1785 -0.2071
  876loPI   C1B13685   4.618   7.813   6.620 -0.1479  0.1490 -0.2535
  876loPI   C2B13686   4.733   7.772   6.962 -0.2322  0.0127 -0.2099
  876loPI   C3B13687   4.647   7.709   7.395  0.2651  0.0013  0.0626
  876loPI   C4B13688   4.764   7.796   7.763 -0.1650  0.1578 -0.3675
  877loPI    C113689  17.651   5.681   5.842  0.1769  0.0875  0.0465
  877loPI    C213690  17.723   5.383   6.099  0.0690  0.0087 -0.0135
  877loPI    C313691  17.717   5.310   5.706  0.1139  0.1049 -0.0323
  877loPI   PO413692  17.774   5.827   5.899  0.0449 -0.0982  0.2727
  877loPI   GL113693  17.750   5.910   6.315  0.3160  0.2190  0.4305
  877loPI   GL213694  17.622   5.730   6.489  0.1586 -0.2328  0.1128
  877loPI   C1A13695  17.966   6.122   6.658 -0.0781 -0.2483 -0.0716
  877loPI   C2A13696  17.973   6.130   7.122 -0.0547  0.3399 -0.0320
  877loPI   C3A13697  18.079   6.066   7.520  0.0418  0.0002  0.0116
  877loPI   C4A13698  18.106   6.184   8.046  0.0658  0.3935  0.1792
  877loPI   C5A13699  18.058   6.293   8.486  0.2363 -0.1107  0.1904
  877loPI   C6A13700  18.047   6.693   8.730 -0.0844  0.2452  0.2071
  877loPI   C1B13701  17.364   5.876   6.765  0.0628 -0.1160 -0.1433
  877loPI   C2B13702  17.418   5.975   7.114 -0.1413 -0.3309  0.1170
  877loPI   C3B13703  17.446   5.952   7.539  0.0247  0.0545 -0.0101
  877loPI   C4B13704  17.664   6.076   7.822 -0.3008 -0.5589 -0.2225
  878loPI    C113705  14.355   8.608   5.568 -0.0599 -0.0742  0.1951
  878loPI    C213706  14.307   8.270   5.359 -0.1457  0.0116  0.0739
  878loPI    C313707  14.246   8.624   5.184  0.0358  0.0945  0.1740
  878loPI   PO413708  14.263   8.515   5.858  0.0723  0.0844  0.3276
  878loPI   GL113709  14.126   8.234   6.207 -0.0555 -0.5705 -0.1315
  878loPI   GL213710  13.987   8.138   6.269 -0.1673 -0.1524 -0.0313
  878loPI   C1A13711  14.427   8.364   6.458  0.1060  0.1285 -0.2267
  878loPI   C2A13712  14.499   8.349   6.845  0.1045 -0.2286  0.1480
  878loPI   C3A13713  14.634   8.396   7.223 -0.0484 -0.0136 -0.0310
  878loPI   C4A13714  14.638   8.310   7.693  0.0802  0.0565 -0.1216
  878loPI   C5A13715  14.694   8.334   8.110  0.0896  0.4031  0.2299
  878loPI   C6A13716  14.400   8.311   8.409  0.1655  0.0190  0.0060
  878loPI   C1B13717  14.031   8.169   6.732 -0.5609  0.1617 -0.3466
  878loPI   C2B13718  14.162   8.210   7.196  0.0094  0.1308  0.2723
  878loPI   C3B13719  14.068   8.126   7.591 -0.1834  0.1600 -0.0803
  878loPI   C4B13720  14.057   8.066   8.011 -0.0224  0.1265 -0.2659
  879loPI    C113721  13.575  10.739   5.409  0.2230 -0.1257 -0.1300
  879loPI    C213722  13.565  11.136   5.457 -0.2383 -0.1329 -0.1195
  879loPI    C313723  13.660  10.980   5.101 -0.1062 -0.0133 -0.1373
  879loPI   PO413724  13.400  10.680   5.695 -0.0119 -0.2071 -0.0040
  879loPI   GL113725  13.445  10.551   6.164  0.2838 -0.1387 -0.1632
  879loPI   GL213726  13.373  10.730   6.191 -0.2828  0.1400 -0.1033
  879loPI   C1A13727  13.685  10.502   6.520  0.0009  0.0607 -0.0112
  879loPI   C2A13728  13.706  10.326   6.879 -0.0988  0.2002  0.0047
  879loPI   C3A13729  13.534  10.333   7.382  0.2014  0.0653 -0.0604
  879loPI   C4A13730  13.691  10.193   7.718 -0.0209 -0.1193  0.0113
  879loPI   C5A13731  13.640  10.147   8.100 -0.3637  0.2839  0.2070
  879loPI   C6A13732  13.332  10.112   8.403 -0.2415  0.0212 -0.2097
  879loPI   C1B13733  13.191  10.797   6.577  0.2329  0.0195  0.0679
  879loPI   C2B13734  13.025  10.804   7.024  0.0868 -0.0393 -0.1577
  879loPI   C3B13735  13.127  10.666   7.438 -0.0084  0.0095  0.2349
  879loPI   C4B13736  13.346  10.558   7.858  0.0862  0.1482 -0.0943
  880loPI    C113737   9.314   7.740   5.968  0.1006  0.1335  0.1331
  880loPI    C213738   9.087   7.738   5.638  0.1579  0.1155  0.0936
  880loPI    C313739   9.130   7.403   5.853  0.0351  0.1535  0.1786
  880loPI   PO413740   9.282   8.033   6.037  0.1199 -0.0017  0.3586
  880loPI   GL113741   9.165   8.251   6.391 -0.0799 -0.0350 -0.0333
  880loPI   GL213742   8.873   8.260   6.418 -0.2788  0.0186 -0.0918
  880loPI   C1A13743   9.048   8.240   6.953 -0.0375  0.2869  0.0277
  880loPI   C2A13744   9.096   8.270   7.392 -0.0187 -0.3653 -0.3488
  880loPI   C3A13745   9.100   8.292   7.823 -0.0824  0.0123  0.0245
  880loPI   C4A13746   9.149   8.266   8.330 -0.3249 -0.0793 -0.1678
  880loPI   C5A13747   9.442   8.140   8.571  0.0589 -0.3223 -0.2341
  880loPI   C6A13748   9.802   8.446   8.717 -0.2861 -0.0326 -0.1082
  880loPI   C1B13749   8.635   8.069   6.633 -0.2112 -0.2559 -0.3052
  880loPI   C2B13750   8.462   8.079   7.045  0.1037 -0.1090 -0.0532
  880loPI   C3B13751   8.604   8.093   7.464 -0.0626  0.0916 -0.0827
  880loPI   C4B13752   8.603   8.025   7.940  0.2866 -0.1862 -0.1177
  881loPI    C113753  12.561  11.792   5.969  0.0608 -0.0116  0.0956
  881loPI    C213754  12.321  11.575   5.734 -0.1348  0.2137  0.0846
  881loPI    C313755  12.562  11.851   5.574  0.1102  0.0107  0.0990
  881loPI   PO413756  12.537  11.700   6.163 -0.1738  0.3763  0.0673
  881loPI   GL113757  12.331  11.786   6.568 -0.0919 -0.1225  0.2386
  881loPI   GL213758  12.632  11.622   6.697 -0.3498 -0.3246 -0.0909
  881loPI   C1A13759  12.015  11.667   6.868  0.1180 -0.0599 -0.3904
  881loPI   C2A13760  12.008  11.625   7.280  0.1250 -0.1870  0.1362
  881loPI   C3A13761  12.019  11.709   7.778 -0.1882  0.4066 -0.0759
  881loPI   C4A13762  12.391  11.835   8.071  0.1915 -0.1031  0.1373
  881loPI   C5A13763  12.749  11.615   8.251  0.1689 -0.2276 -0.0725
  881loPI   C6A13764  12.991  11.327   8.453  0.1607 -0.1794 -0.1697
  881loPI   C1B13765  12.497  11.851   7.115  0.1248 -0.0638 -0.2879
  881loPI   C2B13766  12.426  11.827   7.518 -0.3522  0.0583 -0.1984
  881loPI   C3B13767  12.749  11.830   7.747 -0.3513  0.2859  0.3139
  881loPI   C4B13768  13.108  12.074   7.926  0.2376  0.3987 -0.1760
  882loPI    C113769  12.341   4.768   5.924 -0.2209  0.0497 -0.3435
  882loPI    C213770  12.368   4.599   5.563 -0.2637  0.0463 -0.3451
  882loPI    C313771  12.429   4.992   5.604 -0.0798  0.0170 -0.3285
  882loPI   PO413772  12.514   4.625   6.045  0.3032  0.2847  0.0570
  882loPI   GL113773  12.577   4.401   6.398 -0.0235  0.2640  0.2103
  882loPI   GL213774  12.630   4.744   6.501  0.3269  0.0923 -0.0770
  882loPI   C1A13775  12.370   4.280   6.776 -0.3056 -0.3789  0.1475
  882loPI   C2A13776  12.343   4.276   7.148 -0.1238 -0.3104 -0.3184
  882loPI   C3A13777  12.356   4.230   7.456  0.0044  0.1231 -0.0006
  882loPI   C4A13778  12.266   4.249   7.875  0.0370  0.0954  0.0481
  882loPI   C5A13779  12.306   4.161   8.306 -0.2485  0.1302  0.0985
  882loPI   C6A13780  12.186   4.296   8.709 -0.0882 -0.1821 -0.1006
  882loPI   C1B13781  12.455   4.802   6.797  0.0270  0.0863  0.0888
  882loPI   C2B13782  12.447   4.828   7.201  0.0623  0.3307 -0.1638
  882loPI   C3B13783  12.425   4.702   7.637 -0.2910 -0.2687 -0.3557
  882loPI   C4B13784  12.493   4.656   8.126  0.1920  0.1794 -0.0366
  883loPI    C113785   6.055   0.562   5.820  0.0690  0.0361 -0.1726
  883loPI    C213786   6.021   0.890   5.592  0.2186  0.1106 -0.0895
  883loPI    C313787   5.855   0.545   5.473 -0.1564  0.2750 -0.0580
  883loPI   PO413788   6.019   0.626   6.058 -0.1158  0.0260 -0.0261
  883loPI   GL113789   5.978   0.753   6.408  0.0099 -0.0592  0.1929
  883loPI   GL213790   5.801   0.964   6.568  0.3501 -0.0132 -0.1480
  883loPI   C1A13791   6.174   0.613   6.881 -0.1068  0.1443 -0.1727
  883loPI   C2A13792   6.219   0.550   7.343  0.0513 -0.1464 -0.0502
  883loPI   C3A13793   6.199   0.646   7.709 -0.2236 -0.2648 -0.2057
  883loPI   C4A13794   6.219   0.714   8.070  0.0924  0.1160 -0.0553
  883loPI   C5A13795   6.267   0.688   8.563 -0.3338 -0.1110  0.1538
  883loPI   C6A13796   6.200   0.331   8.901 -0.1650 -0.0276 -0.1745
  883loPI   C1B13797   5.819   0.963   7.044 -0.1018 -0.0126 -0.1776
  883loPI   C2B13798   5.767   0.897   7.432  0.1499 -0.0131 -0.2763
  883loPI   C3B13799   5.779   0.929   7.924 -0.0424 -0.2743  0.2299
  883loPI   C4B13800   5.679   0.771   8.362 -0.0664  0.1418  0.0834
  884loPI    C113801   2.068   8.315   5.722  0.0069 -0.0448 -0.0872
  884loPI    C213802   1.961   8.253   5.341 -0.1695 -0.1388 -0.0237
  884loPI    C313803   2.037   7.942   5.580  0.0879 -0.0766 -0.0218
  884loPI   PO413804   1.987   8.508   5.775 -0.0759 -0.1582 -0.0207
  884loPI   GL113805   2.017   8.826   6.231  0.0560 -0.0477 -0.3471
  884loPI   GL213806   2.102   9.216   6.266 -0.1115  0.0371  0.0680
  884loPI   C1A13807   2.081   8.735   6.616 -0.0157  0.0396  0.0725
  884loPI   C2A13808   2.118   8.734   6.964  0.0684  0.1637 -0.3196
  884loPI   C3A13809   2.066   8.729   7.399 -0.1316  0.1710  0.1558
  884loPI   C4A13810   2.074   8.642   7.786 -0.0942 -0.0154 -0.1228
  884loPI   C5A13811   2.112   8.762   8.210  0.0830  0.0241  0.2175
  884loPI   C6A13812   1.961   9.094   8.404  0.0397  0.0754 -0.1009
  884loPI   C1B13813   2.239   9.192   6.659  0.0128  0.0501 -0.2485
  884loPI   C2B13814   2.272   9.226   7.072 -0.3149 -0.2499  0.0557
  884loPI   C3B13815   2.255   9.168   7.497  0.2971  0.2267 -0.2370
  884loPI   C4B13816   2.238   9.202   7.978  0.0736 -0.4059  0.1902
  885loPI    C113817   7.637   7.143   5.735 -0.0598  0.1245  0.0143
  885loPI    C213818   7.694   7.421   5.454 -0.0702 -0.0413 -0.1544
  885loPI    C313819   7.387   7.167   5.424 -0.3420  0.2270  0.2438
  885loPI   PO413820   7.795   7.241   5.900  0.0511 -0.3005 -0.2467
  885loPI   GL113821   7.701   7.620   6.228  0.0315 -0.1722 -0.0578
  885loPI   GL213822   7.471   7.317   6.314  0.0077 -0.0934 -0.0177
  885loPI   C1A13823   7.884   7.521   6.529 -0.1234 -0.1538  0.1956
  885loPI   C2A13824   7.870   7.419   6.852 -0.1121  0.0169 -0.0030
  885loPI   C3A13825   7.915   7.345   7.245  0.0300 -0.0498  0.0130
  885loPI   C4A13826   7.989   7.423   7.617 -0.4360  0.1667 -0.0484
  885loPI   C5A13827   7.974   7.362   8.061 -0.0742 -0.0978 -0.1059
  885loPI   C6A13828   7.825   7.634   8.340 -0.1716 -0.0025 -0.1296
  885loPI   C1B13829   7.394   7.289   6.723  0.2950 -0.0513  0.0376
  885loPI   C2B13830   7.331   7.230   7.105  0.0861  0.1348  0.0130
  885loPI   C3B13831   7.438   7.163   7.441  0.0719  0.0259  0.0015
  885loPI   C4B13832   7.487   7.082   7.899  0.0740  0.0886  0.1914
  886loPI    C113833   7.095  13.141   5.460 -0.0600  0.0662 -0.3042
  886loPI    C213834   7.484  13.203   5.528 -0.0707  0.1103 -0.2834
  886loPI    C313835   7.368  12.986   5.213 -0.0109 -0.3357 -0.0067
  886loPI   PO413836   7.046  13.125   5.747  0.2640 -0.0718 -0.1484
  886loPI   GL113837   7.066  13.387   6.124 -0.1133  0.4309  0.2110
  886loPI   GL213838   6.963  13.702   6.146  0.0425 -0.0180 -0.2487
  886loPI   C1A13839   7.204  13.350   6.523  0.1321  0.4949  0.5174
  886loPI   C2A13840   7.189  13.359   6.892 -0.0055 -0.2641 -0.0109
  886loPI   C3A13841   7.125  13.307   7.340 -0.1877 -0.1672 -0.0032
  886loPI   C4A13842   7.156  13.281   7.831  0.1779 -0.4650  0.0215
  886loPI   C5A13843   7.312  13.382   8.182  0.1627 -0.0877  0.1757
  886loPI   C6A13844   7.296  13.641   8.547 -0.0223  0.0838  0.0678
  886loPI   C1B13845   6.804  13.630   6.592  0.1817 -0.1786 -0.2468
  886loPI   C2B13846   6.766  13.728   7.024 -0.1354 -0.0525 -0.2149
  886loPI   C3B13847   6.807  13.651   7.453  0.2216 -0.0248  0.0476
  886loPI   C4B13848   6.765  13.633   7.932  0.0244 -0.1195 -0.1015
  887loPI    C113849   3.866   3.535   5.890  0.1600 -0.3466  0.0232
  887loPI    C213850   4.061   3.411   5.563  0.1624 -0.0126 -0.1062
  887loPI    C313851   3.758   3.670   5.529  0.1656  0.0286  0.1576
  887loPI   PO413852   4.019   3.613   5.991 -0.0158  0.0605  0.1243
  887loPI   GL113853   4.001   3.856   6.305  0.1383  0.1971 -0.1118
  887loPI   GL213854   4.223   4.097   6.176  0.1085 -0.0774  0.0504
  887loPI   C1A13855   3.998   3.731   6.681  0.0156  0.1226 -0.3311
  887loPI   C2A13856   4.026   3.649   7.065 -0.2889 -0.1528  0.2804
  887loPI   C3A13857   4.007   3.639   7.538  0.0666  0.0010 -0.1856
  887loPI   C4A13858   4.073   3.559   7.959  0.1252  0.1203 -0.1123
  887loPI   C5A13859   3.983   3.441   8.421  0.2737  0.1352 -0.0635
  887loPI   C6A13860   3.700   3.207   8.510 -0.0567 -0.3443  0.0454
  887loPI   C1B13861   4.520   3.932   6.579  0.0679 -0.2491  0.1232
  887loPI   C2B13862   4.486   3.862   7.029  0.2484 -0.1958  0.0904
  887loPI   C3B13863   4.510   3.809   7.433  0.0973 -0.1435  0.1629
  887loPI   C4B13864   4.517   3.809   7.824  0.0691 -0.1447 -0.1522
  888loPI    C113865  15.095   0.299   5.723  0.0437 -0.0932 -0.1257
  888loPI    C213866  14.703   0.310   5.643 -0.0324  0.1506  0.2558
  888loPI    C313867  14.959   0.521   5.419 -0.1415  0.1497  0.1292
  888loPI   PO413868  15.089   0.174   5.959 -0.0745 -0.0213  0.1022
  888loPI   GL113869  14.790  -0.014   6.260  0.1142  0.0681 -0.0388
  888loPI   GL213870  15.033  -0.295   6.138 -0.2791  0.0653 -0.1657
  888loPI   C1A13871  14.822   0.236   6.717 -0.0424 -0.0788 -0.0946
  888loPI   C2A13872  14.692   0.210   7.134  0.3906  0.0359  0.0022
  888loPI   C3A13873  14.749   0.300   7.564 -0.0892  0.1287  0.0159
  888loPI   C4A13874  14.783   0.195   8.073 -0.1251  0.2443 -0.3537
  888loPI   C5A13875  15.105  -0.049   8.350  0.1888  0.0908 -0.0733
  888loPI   C6A13876  15.394  -0.078   8.726 -0.0339  0.0193  0.3170
  888loPI   C1B13877  15.024  -0.180   6.625 -0.2450 -0.1118  0.0878
  888loPI   C2B13878  15.097  -0.019   7.031  0.2368 -0.0163  0.0983
  888loPI   C3B13879  15.129  -0.034   7.439  0.1685  0.3032  0.2140
  888loPI   C4B13880  15.161  -0.130   7.872 -0.0861  0.0333 -0.1358
  889loPI    C113881   4.258   8.045   5.493  0.1731 -0.0529 -0.1931
  889loPI    C213882   4.134   8.387   5.327  0.1187 -0.0445 -0.1354
  889loPI    C313883   3.906   8.059   5.305  0.0164  0.0087  0.0985
  889loPI   PO413884   4.263   7.994   5.771  0.0256  0.3336  0.0112
  889loPI   GL113885   4.115   8.191   6.123 -0.1678 -0.1350  0.1045
  889loPI   GL213886   3.924   8.442   6.173  0.0021  0.1034  0.0621
  889loPI   C1A13887   4.232   8.066   6.441 -0.0255  0.2845  0.2253
  889loPI   C2A13888   4.336   8.117   6.890  0.0020  0.5962  0.2368
  889loPI   C3A13889   4.335   8.056   7.340 -0.2063  0.4162  0.0752
  889loPI   C4A13890   4.331   7.988   7.755  0.1140  0.1780  0.0029
  889loPI   C5A13891   4.397   7.879   8.134  0.1771  0.0850 -0.0373
  889loPI   C6A13892   4.773   7.813   8.362 -0.2127  0.0323 -0.1067
  889loPI   C1B13893   3.889   8.357   6.664 -0.0281 -0.0327 -0.4094
  889loPI   C2B13894   3.857   8.348   7.113  0.1322  0.1237 -0.1514
  889loPI   C3B13895   3.918   8.347   7.613 -0.1390 -0.3671 -0.1626
  889loPI   C4B13896   3.872   8.455   8.084 -0.0667  0.0210  0.0197
  890loPI    C113897   7.333  14.020   5.371  0.1286  0.1217  0.0168
  890loPI    C213898   7.117  14.343   5.275 -0.0492  0.0173  0.0610
  890loPI    C313899   7.253  14.101   4.987  0.3390  0.2906  0.0072
  890loPI   PO413900   7.485  14.050   5.553 -0.1290 -0.2477 -0.2338
  890loPI   GL113901   7.415  14.053   5.964 -0.0032 -0.0783  0.0518
  890loPI   GL213902   7.569  14.209   6.206  0.3112  0.0318 -0.0700
  890loPI   C1A13903   7.378  13.757   6.303 -0.1279  0.1009 -0.1258
  890loPI   C2A13904   7.336  13.807   6.733  0.2748 -0.3708 -0.1212
  890loPI   C3A13905   7.251  13.825   7.217  0.0024 -0.3290 -0.0423
  890loPI   C4A13906   7.264  13.885   7.623  0.2838  0.4892  0.1786
  890loPI   C5A13907   7.166  13.860   8.074  0.0916  0.2000 -0.2320
  890loPI   C6A13908   6.832  13.843   8.368 -0.0092  0.0877 -0.1006
  890loPI   C1B13909   7.269  14.186   6.496 -0.4448 -0.3833 -0.1009
  890loPI   C2B13910   7.305  14.311   6.848 -0.0799 -0.6030 -0.1014
  890loPI   C3B13911   7.327  14.377   7.276  0.0906 -0.0733  0.0031
  890loPI   C4B13912   7.360  14.385   7.658  0.0325  0.1792 -0.0525
  891loPI    C113913  15.287   0.983   5.754  0.0689  0.3373  0.1382
  891loPI    C213914  15.475   1.125   5.431  0.0503  0.1260  0.0326
  891loPI    C313915  15.094   1.006   5.404  0.1022 -0.0546  0.0904
  891loPI   PO413916  15.346   1.118   5.915  0.3892  0.1333 -0.3242
  891loPI   GL113917  15.502   1.148   6.288  0.0641  0.0851  0.0428
  891loPI   GL213918  15.369   0.908   6.563  0.1069 -0.2557  0.0504
  891loPI   C1A13919  15.339   1.371   6.719  0.1071 -0.0116  0.0661
  891loPI   C2A13920  15.344   1.418   7.123 -0.0455 -0.2470 -0.3015
  891loPI   C3A13921  15.489   1.594   7.607 -0.1255 -0.0740  0.1256
  891loPI   C4A13922  15.455   1.436   8.051  0.3375  0.0472  0.1555
  891loPI   C5A13923  15.534   1.553   8.483 -0.0918 -0.0780 -0.1260
  891loPI   C6A13924  15.635   1.665   8.960 -0.1041 -0.0890 -0.0242
  891loPI   C1B13925  15.284   0.929   6.972 -0.1950 -0.4080  0.2575
  891loPI   C2B13926  15.301   0.952   7.426 -0.0928  0.0169  0.1584
  891loPI   C3B13927  15.310   0.978   7.859  0.2291 -0.2007  0.1322
  891loPI   C4B13928  15.338   1.013   8.259  0.0093 -0.3308 -0.0326
  892loPI    C113929  11.493  16.654   5.728  0.0553 -0.1403 -0.0168
  892loPI    C213930  11.249  16.964   5.799  0.1768 -0.0456 -0.0091
  892loPI    C313931  11.531  16.992   5.517  0.1248 -0.1849 -0.0760
  892loPI   PO413932  11.546  16.561   5.947 -0.1337 -0.1316 -0.0513
  892loPI   GL113933  11.330  16.732   6.283  0.1096 -0.1775 -0.0212
  892loPI   GL213934  11.315  16.528   6.387  0.3019  0.1602  0.0845
  892loPI   C1A13935  11.323  16.817   6.799 -0.1664 -0.2580  0.2123
  892loPI   C2A13936  11.366  16.795   7.104  0.3325 -0.0500 -0.1965
  892loPI   C3A13937  11.341  16.771   7.514 -0.0536 -0.1819  0.1353
  892loPI   C4A13938  11.488  16.862   7.944 -0.0062 -0.1199  0.2139
  892loPI   C5A13939  11.441  16.775   8.397  0.0609 -0.0136  0.1566
  892loPI   C6A13940  11.139  16.616   8.732  0.1976  0.0899 -0.4298
  892loPI   C1B13941  11.351  16.236   6.754 -0.1300  0.0011  0.1142
  892loPI   C2B13942  11.340  16.230   7.188  0.1420  0.0704  0.1355
  892loPI   C3B13943  11.333  16.271   7.649 -0.3988 -0.0488  0.2190
  892loPI   C4B13944  11.331  16.347   8.082 -0.0952 -0.0603  0.2562
  893loPI    C113945   2.335  14.084   5.243  0.0298 -0.0790  0.3436
  893loPI    C213946   2.298  13.724   5.073 -0.0254  0.1061 -0.0460
  893loPI    C313947   2.077  14.031   4.942  0.4954  0.4403 -0.1700
  893loPI   PO413948   2.278  14.042   5.505  0.2880  0.0006 -0.0775
  893loPI   GL113949   2.350  13.906   5.885 -0.0448 -0.2405  0.2665
  893loPI   GL213950   2.231  14.065   6.161  0.4471  0.0899  0.1782
  893loPI   C1A13951   2.537  13.669   6.174 -0.1057 -0.3770  0.1355
  893loPI   C2A13952   2.604  13.584   6.575  0.0568  0.2435  0.3579
  893loPI   C3A13953   2.562  13.665   7.000 -0.0540 -0.1008  0.2570
  893loPI   C4A13954   2.542  13.593   7.486  0.0033 -0.2162 -0.1849
  893loPI   C5A13955   2.524  13.597   7.953  0.2000  0.1739 -0.1224
  893loPI   C6A13956   2.365  13.773   8.352 -0.2702  0.0192  0.2935
  893loPI   C1B13957   2.142  13.895   6.618  0.2410  0.2032  0.2515
  893loPI   C2B13958   2.231  14.019   6.956  0.0863 -0.3801 -0.0874
  893loPI   C3B13959   2.180  14.004   7.399  0.4059 -0.0480 -0.1472
  893loPI   C4B13960   2.196  13.958   7.837  0.0413  0.1823  0.2253
  894loPI    C113961  13.473   4.181   5.923  0.0975  0.0943  0.0644
  894loPI    C213962  13.211   4.114   5.628 -0.1955  0.2969  0.2722
  894loPI    C313963  13.532   4.343   5.562  0.0320 -0.0965 -0.0334
  894loPI   PO413964  13.372   4.029   6.118 -0.0373 -0.3522 -0.1537
  894loPI   GL113965  13.279   4.007   6.573 -0.1698  0.3509  0.0712
  894loPI   GL213966  13.064   4.254   6.531  0.1925 -0.0806  0.0471
  894loPI   C1A13967  13.298   4.054   7.039  0.0722 -0.1593 -0.1009
  894loPI   C2A13968  13.251   4.053   7.409  0.0318 -0.0355 -0.1770
  894loPI   C3A13969  13.231   4.017   7.809  0.2828  0.0442  0.1775
  894loPI   C4A13970  13.289   3.978   8.268 -0.0207  0.1509 -0.0951
  894loPI   C5A13971  13.602   3.849   8.511  0.1945  0.0413  0.2014
  894loPI   C6A13972  13.831   3.741   8.932  0.2161  0.0647 -0.1384
  894loPI   C1B13973  12.934   4.483   6.900  0.2426  0.2007 -0.0729
  894loPI   C2B13974  12.848   4.411   7.219  0.2119  0.0128 -0.0979
  894loPI   C3B13975  12.785   4.383   7.676 -0.0196  0.0090  0.1262
  894loPI   C4B13976  12.894   4.299   8.113  0.1530 -0.1057 -0.1743
  895loPI    C113977   0.944  13.243   5.195  0.2099  0.0736  0.0346
  895loPI    C213978   1.266  13.312   5.421  0.1583  0.2091  0.0674
  895loPI    C313979   1.216  13.511   5.078  0.1534  0.1243  0.0188
  895loPI   PO413980   0.734  13.248   5.460  0.0888 -0.1404 -0.0922
  895loPI   GL113981   0.637  13.383   5.886 -0.0811 -0.1361 -0.0864
  895loPI   GL213982   0.601  13.126   5.946  0.1877 -0.2336  0.0647
  895loPI   C1A13983   0.765  13.461   6.365  0.0703  0.1051  0.0762
  895loPI   C2A13984   0.755  13.526   6.799  0.2127  0.1861 -0.0639
  895loPI   C3A13985   0.762  13.505   7.162 -0.0867  0.0644  0.0368
  895loPI   C4A13986   0.759  13.390   7.556 -0.0536 -0.0032  0.0300
  895loPI   C5A13987   0.617  13.365   7.871  0.2247  0.1600 -0.2465
  895loPI   C6A13988   0.702  13.107   8.219  0.1174 -0.1457  0.3299
  895loPI   C1B13989   0.197  13.191   6.209 -0.0655 -0.2006  0.0760
  895loPI   C2B13990   0.188  13.334   6.646  0.4258  0.0195  0.1609
  895loPI   C3B13991   0.143  13.269   7.159 -0.0221  0.3293  0.0650
  895loPI   C4B13992   0.322  13.244   7.544 -0.0620 -0.0978  0.1362
  896loPI    C113993  14.896   1.484   5.620 -0.0673  0.1414  0.0170
  896loPI    C213994  14.696   1.337   5.307  0.1884 -0.1565 -0.0111
  896loPI    C313995  15.024   1.558   5.248 -0.0890  0.2807  0.0366
  896loPI   PO413996  14.806   1.248   5.810 -0.0564  0.0534 -0.2196
  896loPI   GL113997  14.792   1.240   6.241 -0.1538 -0.1186 -0.1963
  896loPI   GL213998  14.558   1.434   6.419 -0.1257  0.0471  0.1048
  896loPI   C1A13999  14.905   1.177   6.710  0.4301  0.2858  0.0722
  896loPI   C2A14000  14.863   1.256   7.065 -0.1831 -0.2634 -0.2689
  896loPI   C3A14001  14.897   1.301   7.514 -0.0930  0.1719  0.1935
  896loPI   C4A14002  14.956   1.397   7.918 -0.1167 -0.1819 -0.3334
  896loPI   C5A14003  15.013   1.428   8.356 -0.2148  0.0203 -0.0571
  896loPI   C6A14004  14.720   1.428   8.770  0.0379  0.0823  0.0461
  896loPI   C1B14005  14.458   1.493   6.849 -0.1555 -0.1613  0.1258
  896loPI   C2B14006  14.558   1.597   7.275 -0.0222  0.1067 -0.4496
  896loPI   C3B14007  14.575   1.590   7.704 -0.1300  0.1997 -0.0218
  896loPI   C4B14008  14.627   1.681   8.108 -0.1655  0.1333 -0.0397
  897loPI    C114009  14.486  13.645   5.819 -0.0524 -0.1131 -0.0036
  897loPI    C214010  14.469  13.246   5.787 -0.0360 -0.1129 -0.0143
  897loPI    C314011  14.471  13.474   5.458 -0.2131 -0.0969 -0.0055
  897loPI   PO414012  14.373  13.745   5.932 -0.4464 -0.0048 -0.1255
  897loPI   GL114013  14.239  13.596   6.325  0.0180 -0.0055 -0.0394
  897loPI   GL214014  14.015  13.798   6.368  0.1596  0.2248  0.1521
  897loPI   C1A14015  14.202  13.332   6.665  0.1697  0.3319  0.0859
  897loPI   C2A14016  14.333  13.274   7.059 -0.1027  0.1501 -0.2435
  897loPI   C3A14017  14.280  13.371   7.395  0.4652  0.1696  0.1072
  897loPI   C4A14018  14.429  13.419   7.801  0.0530  0.0791 -0.2492
  897loPI   C5A14019  14.844  13.592   7.936  0.3486  0.2419 -0.0879
  897loPI   C6A14020  15.003  14.018   7.998  0.0590  0.0203 -0.0453
  897loPI   C1B14021  13.937  13.783   6.801 -0.1265  0.0925  0.1093
  897loPI   C2B14022  13.662  13.433   6.928 -0.2292  0.0460 -0.2101
  897loPI   C3B14023  13.740  13.054   7.139 -0.0707  0.0215 -0.3391
  897loPI   C4B14024  13.641  12.653   7.328 -0.0600 -0.0375 -0.0192
  898loPI    C114025   8.891  10.510   5.577  0.2920  0.2572 -0.0005
  898loPI    C214026   9.177  10.608   5.315  0.2007  0.2296 -0.1109
  898loPI    C314027   9.034  10.234   5.325  0.0814  0.2742 -0.1403
  898loPI   PO414028   8.931  10.750   5.791  0.0485 -0.1172 -0.2312
  898loPI   GL114029   8.743  10.817   6.205 -0.1323 -0.0787  0.1336
  898loPI   GL214030   8.670  10.484   6.412 -0.1395  0.0116  0.0036
  898loPI   C1A14031   8.611  10.925   6.640 -0.0384 -0.1668  0.0292
  898loPI   C2A14032   8.643  10.863   7.055  0.1031  0.2376 -0.0849
  898loPI   C3A14033   8.639  10.987   7.439 -0.1743  0.0444  0.1020
  898loPI   C4A14034   8.498  10.891   7.830 -0.1428 -0.0296  0.0510
  898loPI   C5A14035   8.678  11.022   8.261 -0.3928 -0.0727  0.1591
  898loPI   C6A14036   8.738  11.155   8.694  0.1515  0.1266  0.1076
  898loPI   C1B14037   8.515  10.412   6.797  0.2416 -0.1677  0.1536
  898loPI   C2B14038   8.476  10.336   7.304 -0.0279  0.0250  0.0976
  898loPI   C3B14039   8.552  10.432   7.765  0.2719  0.0187 -0.1714
  898loPI   C4B14040   8.320  10.540   8.182 -0.1979  0.0260  0.2434
  899loPI    C114041  15.354   7.429   5.505  0.0523  0.1048 -0.2314
  899loPI    C214042  15.280   7.151   5.226  0.0911  0.0079 -0.1457
  899loPI    C314043  15.171   7.531   5.164  0.0561 -0.0225 -0.2721
  899loPI   PO414044  15.303   7.390   5.806  0.1267 -0.0344  0.3265
  899loPI   GL114045  15.220   7.257   6.186  0.3259 -0.2877  0.1868
  899loPI   GL214046  15.225   6.917   6.262  0.0729 -0.1571 -0.1627
  899loPI   C1A14047  15.194   7.188   6.681  0.2090 -0.0467  0.1367
  899loPI   C2A14048  15.232   7.139   7.182 -0.0349  0.0202 -0.0756
  899loPI   C3A14049  15.264   7.101   7.601 -0.0224  0.1615  0.0922
  899loPI   C4A14050  15.350   7.166   8.038  0.3409 -0.0069  0.2146
  899loPI   C5A14051  15.492   7.049   8.406 -0.1059 -0.1718  0.0010
  899loPI   C6A14052  15.627   6.973   8.732  0.1833  0.0898 -0.0047
  899loPI   C1B14053  15.588   6.890   6.552  0.2855  0.2979  0.0594
  899loPI   C2B14054  15.672   6.850   6.990 -0.3350 -0.2351 -0.1095
  899loPI   C3B14055  15.665   6.805   7.449 -0.0313  0.0027 -0.1408
  899loPI   C4B14056  15.706   6.733   7.888 -0.1042 -0.2169 -0.2189
  900loPI    C114057  17.099   5.041   5.990 -0.2060 -0.0395 -0.1278
  900loPI    C214058  17.188   5.337   5.736 -0.1627  0.1047  0.0529
  900loPI    C314059  17.089   4.976   5.596  0.0500  0.1280 -0.1649
  900loPI   PO414060  17.182   5.148   6.216  0.2507 -0.2696 -0.3086
  900loPI   GL114061  17.460   5.291   6.529 -0.3117 -0.2486  0.0155
  900loPI   GL214062  17.080   5.465   6.651 -0.3095  0.1017 -0.0908
  900loPI   C1A14063  17.522   5.435   6.907 -0.0573  0.0051  0.0467
  900loPI   C2A14064  17.508   5.497   7.329  0.1983 -0.0310 -0.1389
  900loPI   C3A14065  17.528   5.539   7.767 -0.2549  0.1212  0.2421
  900loPI   C4A14066  17.486   5.480   8.145 -0.3948  0.1045  0.0498
  900loPI   C5A14067  17.161   5.631   8.469 -0.1493 -0.0634 -0.2059
  900loPI   C6A14068  16.759   5.628   8.507  0.0185 -0.0878  0.1958
  900loPI   C1B14069  17.046   5.358   7.104  0.2159 -0.1703  0.1005
  900loPI   C2B14070  17.118   5.276   7.640  0.2129  0.1542 -0.1359
  900loPI   C3B14071  16.907   5.337   8.079  0.1631 -0.0224  0.0276
  900loPI   C4B14072  16.753   5.098   8.402 -0.0310  0.3411  0.1231
  901loPI    C114073  12.577   0.913   5.720 -0.0661  0.0413 -0.1809
  901loPI    C214074  12.556   0.771   5.347 -0.1130 -0.3779 -0.0247
  901loPI    C314075  12.841   0.640   5.595 -0.0352 -0.0453  0.0673
  901loPI   PO414076  12.587   1.158   5.728  0.2875  0.0672 -0.0703
  901loPI   GL114077  12.753   1.284   6.148 -0.1677 -0.0583  0.1638
  901loPI   GL214078  12.538   1.026   6.222 -0.3063  0.2713  0.1165
  901loPI   C1A14079  12.601   1.487   6.525 -0.3479  0.0187 -0.0390
  901loPI   C2A14080  12.673   1.555   6.990  0.0419 -0.1358 -0.0196
  901loPI   C3A14081  12.713   1.460   7.492  0.1481 -0.1250 -0.2272
  901loPI   C4A14082  12.758   1.557   7.896  0.1186 -0.2911  0.1335
  901loPI   C5A14083  12.772   1.365   8.267  0.1063  0.0327 -0.0254
  901loPI   C6A14084  12.688   0.980   8.457  0.0205 -0.0963 -0.0423
  901loPI   C1B14085  12.613   1.004   6.634  0.0734  0.0107 -0.4193
  901loPI   C2B14086  12.581   0.937   7.033  0.0857  0.2006  0.0979
  901loPI   C3B14087  12.628   0.950   7.425 -0.3427 -0.0776  0.0165
  901loPI   C4B14088  12.665   1.021   7.893 -0.1120  0.3038 -0.0710
  902loPI    C114089  13.332   8.803   5.420 -0.1471 -0.1296  0.0901
  902loPI    C214090  12.947   8.865   5.330 -0.1053  0.0333  0.0192
  902loPI    C314091  13.200   8.737   5.048 -0.1463 -0.2613  0.1128
  902loPI   PO414092  13.220   8.683   5.665 -0.0428 -0.2325 -0.0146
  902loPI   GL114093  13.018   8.595   6.042  0.0257 -0.0885 -0.5775
  902loPI   GL214094  12.680   8.602   6.210 -0.0891  0.0777  0.2500
  902loPI   C1A14095  13.139   8.369   6.366  0.0822  0.0245 -0.2129
  902loPI   C2A14096  13.260   8.270   6.773  0.2753 -0.1289 -0.2908
  902loPI   C3A14097  13.169   8.260   7.146  0.1492  0.1208 -0.2596
  902loPI   C4A14098  13.258   8.252   7.605  0.4334 -0.3292  0.2364
  902loPI   C5A14099  13.382   8.241   7.998 -0.0493  0.1302  0.1401
  902loPI   C6A14100  13.700   8.215   8.348  0.0933  0.0047  0.1070
  902loPI   C1B14101  12.829   8.731   6.624  0.4625 -0.2190 -0.1684
  902loPI   C2B14102  12.825   8.619   7.072 -0.0118 -0.1954 -0.2352
  902loPI   C3B14103  12.800   8.587   7.510  0.1131  0.2898  0.0029
  902loPI   C4B14104  12.867   8.397   7.863 -0.0172 -0.1249  0.0526
  903loPI    C114105  12.898   5.292   5.670  0.0604 -0.0302 -0.3074
  903loPI    C214106  12.713   5.274   5.316  0.0039 -0.1269 -0.2732
  903loPI    C314107  13.085   5.131   5.356  0.0513 -0.0172 -0.3194
  903loPI   PO414108  12.709   5.389   5.793 -0.1003 -0.2143 -0.2135
  903loPI   GL114109  12.435   5.441   6.240 -0.1841  0.0310 -0.0047
  903loPI   GL214110  12.312   5.113   6.308  0.0236  0.1382 -0.0004
  903loPI   C1A14111  12.624   5.311   6.621  0.0336  0.2112 -0.0106
  903loPI   C2A14112  12.642   5.261   7.020 -0.2743 -0.0479  0.0923
  903loPI   C3A14113  12.510   5.259   7.414  0.0615  0.1953 -0.1922
  903loPI   C4A14114  12.596   5.183   7.808 -0.1877 -0.0273 -0.0593
  903loPI   C5A14115  12.678   5.398   8.249 -0.0579 -0.0253 -0.2709
  903loPI   C6A14116  12.885   5.739   8.532 -0.1513  0.0475 -0.1574
  903loPI   C1B14117  12.110   5.090   6.637 -0.3038 -0.0667  0.1809
  903loPI   C2B14118  12.049   5.090   7.036  0.0602 -0.2614  0.0666
  903loPI   C3B14119  12.037   5.039   7.473 -0.3007 -0.1128 -0.2379
  903loPI   C4B14120  12.106   5.011   7.955 -0.0549 -0.0787 -0.2025
  904loPI    C114121   5.775   7.290   5.734  0.0539  0.0457  0.1518
  904loPI    C214122   5.650   7.647   5.604 -0.0416 -0.0421 -0.0012
  904loPI    C314123   5.952   7.461   5.418 -0.2175 -0.1949 -0.1376
  904loPI   PO414124   5.837   7.271   6.002  0.0240 -0.1102  0.0186
  904loPI   GL114125   5.914   6.972   6.262  0.2138 -0.0361 -0.0074
  904loPI   GL214126   5.568   7.115   6.405  0.0916  0.0964 -0.0297
  904loPI   C1A14127   5.914   6.759   6.702 -0.0377  0.3012  0.2391
  904loPI   C2A14128   5.905   6.822   7.187 -0.0028 -0.0000 -0.0382
  904loPI   C3A14129   5.849   6.732   7.647 -0.0092  0.0083  0.0885
  904loPI   C4A14130   5.895   6.776   8.148 -0.2208  0.0961 -0.0893
  904loPI   C5A14131   5.946   6.496   8.527  0.0342  0.0586  0.1723
  904loPI   C6A14132   6.240   6.331   8.730 -0.1438  0.2798  0.3003
  904loPI   C1B14133   5.430   7.116   6.792 -0.0639  0.0927 -0.1509
  904loPI   C2B14134   5.428   7.127   7.312  0.0903 -0.1345  0.0570
  904loPI   C3B14135   5.338   6.962   7.694  0.1860  0.0161  0.2653
  904loPI   C4B14136   5.396   7.049   8.165 -0.0422 -0.2543  0.2738
  905loPI    C114137  16.548  11.989   5.457  0.0045  0.0944  0.0889
  905loPI    C214138  16.182  11.919   5.311  0.0634  0.1956 -0.1108
  905loPI    C314139  16.472  12.054   5.070  0.2050  0.2156  0.0680
  905loPI   PO414140  16.465  11.760   5.708 -0.0512 -0.1564  0.0420
  905loPI   GL114141  16.265  11.538   6.072 -0.0625 -0.1781 -0.4105
  905loPI   GL214142  16.008  11.241   6.197 -0.2665 -0.1609 -0.0197
  905loPI   C1A14143  16.207  11.736   6.537 -0.2286  0.2862 -0.1252
  905loPI   C2A14144  16.255  11.847   6.999  0.1930  0.0390  0.1145
  905loPI   C3A14145  16.161  11.721   7.354  0.0819  0.2135  0.2438
  905loPI   C4A14146  16.172  11.693   7.778 -0.1389 -0.4125 -0.1343
  905loPI   C5A14147  16.176  11.728   8.196  0.2156  0.1074 -0.4688
  905loPI   C6A14148  15.901  11.756   8.488 -0.0476  0.1809 -0.1352
  905loPI   C1B14149  16.023  11.227   6.637 -0.3351  0.0518 -0.1605
  905loPI   C2B14150  16.150  11.152   7.011 -0.2146  0.3038  0.5071
  905loPI   C3B14151  16.031  11.173   7.504  0.0766  0.0098 -0.3502
  905loPI   C4B14152  16.086  11.206   7.927 -0.0904 -0.0146  0.3346
  906loPI    C114153   9.586  11.679   5.928  0.0854 -0.0005 -0.2041
  906loPI    C214154   9.287  11.453   5.789 -0.1278  0.0224  0.2018
  906loPI    C314155   9.316  11.836   5.678 -0.1096 -0.0431 -0.0238
  906loPI   PO414156   9.765  11.592   6.090 -0.2091  0.0208 -0.1955
  906loPI   GL114157   9.923  11.871   6.456  0.1847  0.0433  0.1112
  906loPI   GL214158   9.638  12.045   6.329 -0.0337 -0.1298  0.1047
  906loPI   C1A14159   9.648  11.808   6.817 -0.0328  0.1634  0.1804
  906loPI   C2A14160   9.662  11.820   7.213 -0.0272  0.0948 -0.2269
  906loPI   C3A14161   9.755  11.858   7.592 -0.0523 -0.0200  0.2165
  906loPI   C4A14162   9.685  11.856   7.892  0.0162 -0.2196  0.0980
  906loPI   C5A14163   9.598  11.587   8.285  0.1432 -0.0454 -0.0428
  906loPI   C6A14164   9.701  11.582   8.671 -0.1215 -0.0181  0.1376
  906loPI   C1B14165   9.288  12.135   6.625  0.1995 -0.2482 -0.0299
  906loPI   C2B14166   9.276  12.174   7.079 -0.1467  0.1210 -0.0920
  906loPI   C3B14167   9.354  12.164   7.526  0.2081  0.0452  0.4151
  906loPI   C4B14168   9.201  12.095   7.962  0.0398  0.3880 -0.2468
  907loPI    C114169   6.705  17.567   5.669  0.2126 -0.0935  0.1489
  907loPI    C214170   7.069  17.670   5.538  0.0505  0.2896 -0.0137
  907loPI    C314171   6.743  17.811   5.354 -0.1825 -0.0088  0.1626
  907loPI   PO414172   6.666  17.606   5.913  0.1691  0.0595 -0.1046
  907loPI   GL114173   6.566  17.461   6.271  0.2622 -0.2201  0.0441
  907loPI   GL214174   6.164  17.357   6.351 -0.1619 -0.0368 -0.1399
  907loPI   C1A14175   6.511  17.411   6.734 -0.2566  0.2155  0.3572
  907loPI   C2A14176   6.549  17.346   7.112  0.1953 -0.1487 -0.2610
  907loPI   C3A14177   6.581  17.457   7.507  0.0303 -0.2654 -0.1285
  907loPI   C4A14178   6.527  17.403   7.923  0.1608  0.2081 -0.0861
  907loPI   C5A14179   6.415  17.249   8.264 -0.1570  0.1215  0.1134
  907loPI   C6A14180   6.396  17.514   8.656  0.0330  0.0660 -0.2439
  907loPI   C1B14181   6.010  17.230   6.642 -0.2195  0.1200  0.1158
  907loPI   C2B14182   6.008  17.176   7.020 -0.0897 -0.0096 -0.1659
  907loPI   C3B14183   6.015  17.193   7.468  0.1112 -0.1130  0.1526
  907loPI   C4B14184   6.018  17.169   7.944 -0.0401  0.1395  0.0514
  908loPI    C114185   8.657   3.713   5.516 -0.0330 -0.0131  0.0451
  908loPI    C214186   8.474   3.882   5.203  0.0340  0.0105  0.0186
  908loPI    C314187   8.860   3.959   5.275  0.0642 -0.1286  0.0085
  908loPI   PO414188   8.624   3.774   5.838 -0.1473 -0.1294 -0.0771
  908loPI   GL114189   8.681   3.834   6.217  0.1566 -0.0431 -0.0303
  908loPI   GL214190   8.408   3.715   6.302 -0.4049 -0.0369  0.5301
  908loPI   C1A14191   8.623   3.827   6.688  0.1590 -0.1489 -0.0230
  908loPI   C2A14192   8.572   3.891   7.118 -0.0955  0.2352  0.0090
  908loPI   C3A14193   8.658   3.912   7.579 -0.1632 -0.2210 -0.0087
  908loPI   C4A14194   8.629   3.816   7.910 -0.2557  0.2376  0.2291
  908loPI   C5A14195   8.995   3.739   8.218 -0.1486 -0.1276  0.0251
  908loPI   C6A14196   8.997   3.790   8.616  0.2374  0.0332  0.4758
  908loPI   C1B14197   8.116   3.688   6.640 -0.2307 -0.4036 -0.0648
  908loPI   C2B14198   8.061   3.724   7.047  0.1437 -0.2611  0.2561
  908loPI   C3B14199   8.141   3.706   7.440 -0.1377 -0.1256  0.1377
  908loPI   C4B14200   8.119   3.681   7.934 -0.0915 -0.0324 -0.2354
  909loPI    C114201   5.281  13.587   5.151  0.0449 -0.1022  0.2157
  909loPI    C214202   5.553  13.750   4.907 -0.0094 -0.0353  0.1994
  909loPI    C314203   5.171  13.865   4.885 -0.0724 -0.2583  0.0999
  909loPI   PO414204   5.362  13.568   5.396 -0.0674  0.0569 -0.4020
  909loPI   GL114205   5.633  13.439   5.796 -0.1837  0.0349 -0.0559
  909loPI   GL214206   5.554  13.674   5.922  0.1196 -0.4074 -0.0431
  909loPI   C1A14207   5.467  13.173   6.305 -0.0084  0.3682 -0.0107
  909loPI   C2A14208   5.275  13.220   6.850 -0.0576  0.0338  0.2990
  909loPI   C3A14209   5.300  13.097   7.243 -0.0723  0.0145  0.1720
  909loPI   C4A14210   5.330  13.144   7.707 -0.1226  0.1011  0.0108
  909loPI   C5A14211   5.320  13.152   8.233 -0.1115  0.2415  0.0897
  909loPI   C6A14212   5.114  13.107   8.603  0.2394 -0.0381  0.0027
  909loPI   C1B14213   5.383  13.743   6.326 -0.3298  0.2157 -0.1762
  909loPI   C2B14214   5.352  13.755   6.736 -0.1377  0.1196  0.0924
  909loPI   C3B14215   5.330  13.632   7.110 -0.0195  0.0285 -0.1674
  909loPI   C4B14216   5.440  13.696   7.545  0.1526 -0.0891 -0.0816
  910loPI    C114217   9.454   7.407   5.455 -0.1693  0.1623  0.1124
  910loPI    C214218   9.610   7.109   5.240 -0.0211  0.0955  0.3093
  910loPI    C314219   9.343   7.356   5.075  0.0943  0.0494  0.0483
  910loPI   PO414220   9.650   7.492   5.600  0.1064 -0.0229 -0.2848
  910loPI   GL114221   9.717   7.427   6.000  0.1763  0.4187  0.1972
  910loPI   GL214222   9.897   7.498   6.215 -0.0314  0.0002 -0.2157
  910loPI   C1A14223   9.447   7.363   6.283 -0.0791  0.0426 -0.0076
  910loPI   C2A14224   9.404   7.336   6.788 -0.1512 -0.2861 -0.0500
  910loPI   C3A14225   9.292   7.462   7.208  0.1252  0.0428 -0.1922
  910loPI   C4A14226   9.263   7.317   7.650 -0.0307 -0.2988 -0.1743
  910loPI   C5A14227   9.358   7.332   8.056 -0.0519  0.0203  0.1091
  910loPI   C6A14228   9.687   7.424   8.407 -0.0500 -0.1992  0.3969
  910loPI   C1B14229   9.920   7.507   6.639  0.0698  0.3078 -0.2995
  910loPI   C2B14230   9.821   7.615   7.084  0.2403  0.1979  0.0308
  910loPI   C3B14231   9.731   7.579   7.510  0.0805 -0.3466 -0.1675
  910loPI   C4B14232   9.816   7.589   7.950  0.0244 -0.1907  0.0091
  911loPI    C114233   4.063  16.528   5.279 -0.3144 -0.0478 -0.1389
  911loPI    C214234   4.020  16.255   4.990 -0.0644 -0.0615 -0.1653
  911loPI    C314235   4.056  16.642   4.896 -0.5229 -0.0033 -0.1230
  911loPI   PO414236   4.049  16.391   5.532  0.1172  0.2014  0.0504
  911loPI   GL114237   4.218  16.153   5.841 -0.1827  0.1539 -0.2358
  911loPI   GL214238   4.160  16.321   6.014 -0.0620 -0.1491  0.0280
  911loPI   C1A14239   4.429  16.089   6.349 -0.0318 -0.0528  0.0363
  911loPI   C2A14240   4.452  16.180   6.739 -0.2102  0.3701 -0.1413
  911loPI   C3A14241   4.468  16.158   7.151 -0.1208  0.1780 -0.2189
  911loPI   C4A14242   4.542  16.273   7.523 -0.2036  0.2954  0.4061
  911loPI   C5A14243   4.534  16.097   7.968  0.0044 -0.0891 -0.1033
  911loPI   C6A14244   4.351  16.017   8.359 -0.2096  0.0307 -0.1559
  911loPI   C1B14245   4.028  16.479   6.382 -0.3604  0.0478 -0.1938
  911loPI   C2B14246   4.053  16.556   6.868  0.0459 -0.1760  0.1905
  911loPI   C3B14247   4.156  16.518   7.358  0.1118  0.0981  0.1631
  911loPI   C4B14248   4.073  16.550   7.795  0.1126  0.4456 -0.0228
  912loPI    C114249  16.614  14.299   5.523 -0.2182  0.0358 -0.1552
  912loPI    C214250  16.740  13.968   5.338 -0.0700 -0.1004  0.1809
  912loPI    C314251  16.581  14.267   5.126  0.2214 -0.1935 -0.1796
  912loPI   PO414252  16.849  14.363   5.724 -0.2262  0.0701  0.0503
  912loPI   GL114253  16.805  14.399   6.065 -0.2113  0.1425  0.3001
  912loPI   GL214254  16.968  14.105   6.206  0.1196 -0.1993  0.0144
  912loPI   C1A14255  16.662  14.355   6.523 -0.1170  0.0751 -0.2737
  912loPI   C2A14256  16.759  14.293   6.986  0.5516 -0.0520  0.4785
  912loPI   C3A14257  16.749  14.233   7.420  0.2520 -0.1935  0.0719
  912loPI   C4A14258  16.817  14.259   7.746 -0.1611  0.0483  0.5362
  912loPI   C5A14259  16.887  14.098   8.189 -0.1266  0.0840  0.0757
  912loPI   C6A14260  17.035  13.995   8.521  0.4662 -0.3959 -0.0154
  912loPI   C1B14261  17.138  14.036   6.698 -0.4772  0.0304  0.0294
  912loPI   C2B14262  17.165  13.919   7.074 -0.1942  0.0820  0.0225
  912loPI   C3B14263  17.139  13.843   7.459  0.3018  0.2460  0.0524
  912loPI   C4B14264  17.223  13.827   7.869 -0.0269 -0.0446  0.1552
  913loPI    C114265   5.547   6.355   5.551  0.0331 -0.0019  0.0734
  913loPI    C214266   5.761   6.692   5.558 -0.1167  0.0998 -0.1298
  913loPI    C314267   5.455   6.655   5.303  0.0187 -0.2635 -0.2450
  913loPI   PO414268   5.482   6.335   5.895  0.0976  0.1742 -0.2407
  913loPI   GL114269   5.278   6.133   6.281 -0.0996  0.0407 -0.2128
  913loPI   GL214270   5.465   5.948   6.255  0.0367  0.1963 -0.0732
  913loPI   C1A14271   5.351   6.130   6.747  0.2753 -0.0779 -0.1215
  913loPI   C2A14272   5.416   5.961   7.100  0.0182  0.2880  0.0854
  913loPI   C3A14273   5.346   6.005   7.528  0.0757 -0.1961  0.0125
  913loPI   C4A14274   5.145   5.977   7.916 -0.1405 -0.4748 -0.0770
  913loPI   C5A14275   4.865   5.840   8.280  0.2347 -0.1178 -0.2434
  913loPI   C6A14276   4.990   5.378   8.587  0.0833 -0.0984  0.0596
  913loPI   C1B14277   5.702   5.828   6.663  0.0916 -0.0272 -0.4003
  913loPI   C2B14278   5.783   5.679   7.104  0.1719 -0.0310  0.0694
  913loPI   C3B14279   5.749   5.683   7.559  0.4499 -0.0291 -0.4539
  913loPI   C4B14280   5.656   5.721   7.975  0.0560  0.3862 -0.0662
  914loPI    C114281   2.254   2.315   5.867  0.0198  0.0328  0.0751
  914loPI    C214282   2.637   2.430   5.885 -0.0065  0.1733 -0.2144
  914loPI    C314283   2.422   2.499   5.554 -0.1570 -0.3008 -0.2228
  914loPI   PO414284   2.203   2.256   6.114  0.0388 -0.2512  0.2054
  914loPI   GL114285   2.110   2.468   6.519  0.2106 -0.3086  0.1417
  914loPI   GL214286   2.053   2.790   6.482  0.1270 -0.0179 -0.0420
  914loPI   C1A14287   2.008   2.411   6.951  0.0776 -0.4567 -0.0117
  914loPI   C2A14288   2.078   2.499   7.407  0.0691  0.0317 -0.1986
  914loPI   C3A14289   2.028   2.424   7.897  0.1175 -0.0348  0.2453
  914loPI   C4A14290   2.046   2.326   8.354  0.0591  0.0206 -0.2317
  914loPI   C5A14291   2.342   2.359   8.638 -0.0405  0.3227 -0.1250
  914loPI   C6A14292   2.331   2.583   9.056 -0.1391 -0.1937 -0.0680
  914loPI   C1B14293   2.077   2.885   6.926  0.3879 -0.0128  0.1844
  914loPI   C2B14294   2.179   2.952   7.316 -0.0331 -0.0116 -0.0373
  914loPI   C3B14295   2.083   2.976   7.721  0.0208  0.0440 -0.0208
  914loPI   C4B14296   2.023   2.907   8.189  0.2436  0.1037  0.1156
  915loPI    C114297   4.563   6.589   5.580  0.0322  0.0175  0.0236
  915loPI    C214298   4.564   6.214   5.439 -0.0412  0.0253  0.0021
  915loPI    C314299   4.730   6.509   5.226 -0.1267  0.0321 -0.0555
  915loPI   PO414300   4.623   6.596   5.876  0.1989  0.1300  0.1682
  915loPI   GL114301   4.392   6.654   6.200  0.0991 -0.1595  0.1594
  915loPI   GL214302   4.617   6.762   6.370  0.1231  0.1286  0.1360
  915loPI   C1A14303   4.086   6.534   6.521  0.0226  0.1606  0.3657
  915loPI   C2A14304   4.036   6.538   7.023 -0.0744 -0.0621 -0.0970
  915loPI   C3A14305   4.031   6.532   7.429 -0.0869 -0.5196  0.0970
  915loPI   C4A14306   4.053   6.510   7.917  0.1095  0.3204 -0.1012
  915loPI   C5A14307   4.034   6.204   8.314 -0.4098  0.0784  0.3166
  915loPI   C6A14308   3.819   5.894   8.258  0.1752  0.1417  0.2735
  915loPI   C1B14309   4.473   6.734   6.765 -0.0598 -0.2009 -0.0253
  915loPI   C2B14310   4.497   6.587   7.226 -0.1275 -0.2374 -0.1865
  915loPI   C3B14311   4.500   6.714   7.640 -0.5869  0.0633 -0.0731
  915loPI   C4B14312   4.496   6.713   8.082 -0.0474 -0.0086  0.2896
  916loPI    C114313  13.745  12.310   5.681 -0.0499 -0.0180  0.1528
  916loPI    C214314  13.610  12.667   5.562 -0.0137 -0.0516  0.0091
  916loPI    C314315  13.687  12.382   5.292 -0.0883 -0.1844  0.1267
  916loPI   PO414316  13.949  12.372   5.860 -0.3751 -0.0564 -0.0632
  916loPI   GL114317  13.885  12.260   6.205  0.1093  0.0404 -0.0578
  916loPI   GL214318  13.801  12.045   6.382 -0.0130 -0.4762 -0.1433
  916loPI   C1A14319  13.999  12.399   6.669 -0.1912  0.0667  0.0269
  916loPI   C2A14320  14.102  12.323   7.073 -0.1050 -0.1353  0.0089
  916loPI   C3A14321  14.097  12.365   7.451  0.0482 -0.2027 -0.1340
  916loPI   C4A14322  13.900  12.618   7.814 -0.1697 -0.1130 -0.0494
  916loPI   C5A14323  13.641  12.809   8.252  0.0132 -0.1472  0.0259
  916loPI   C6A14324  13.297  12.782   8.435 -0.2804 -0.0411  0.0139
  916loPI   C1B14325  13.886  11.871   6.847 -0.2402 -0.0339 -0.1471
  916loPI   C2B14326  14.005  11.826   7.238 -0.0617  0.2343 -0.2574
  916loPI   C3B14327  14.007  11.903   7.616  0.1637  0.1307 -0.1661
  916loPI   C4B14328  13.972  12.036   8.053 -0.0724  0.0115  0.2611
  917loPI    C114329   6.738  10.319   5.772 -0.0587  0.2403  0.0263
  917loPI    C214330   6.889  10.140   5.448  0.0690  0.1289  0.1461
  917loPI    C314331   6.967  10.526   5.518 -0.0816  0.1935 -0.0327
  917loPI   PO414332   6.787  10.184   5.978  0.1998  0.1403 -0.0836
  917loPI   GL114333   6.678   9.837   6.188 -0.0505 -0.1221  0.0151
  917loPI   GL214334   6.380   9.851   6.283  0.2929 -0.1223 -0.0651
  917loPI   C1A14335   6.854   9.546   6.520 -0.0542  0.1534  0.2033
  917loPI   C2A14336   6.851   9.376   6.812 -0.4684  0.2307  0.1554
  917loPI   C3A14337   6.837   9.349   7.173 -0.0869 -0.2817 -0.0913
  917loPI   C4A14338   6.831   9.352   7.592 -0.0959  0.0854 -0.3604
  917loPI   C5A14339   6.984   9.309   8.019 -0.0784  0.1980  0.0410
  917loPI   C6A14340   6.853   9.451   8.394  0.0044  0.1787 -0.0271
  917loPI   C1B14341   6.451   9.724   6.660 -0.1729  0.3143  0.2396
  917loPI   C2B14342   6.490   9.722   7.006  0.3223  0.0593  0.0246
  917loPI   C3B14343   6.491   9.751   7.468  0.0316 -0.0466 -0.3252
  917loPI   C4B14344   6.577   9.685   7.851 -0.2523  0.3770 -0.1105
  918loPI    C114345   3.547  10.967   5.428  0.0222 -0.0952  0.2389
  918loPI    C214346   3.246  10.723   5.327  0.0941 -0.1408  0.1338
  918loPI    C314347   3.446  10.923   5.043  0.0270  0.0516  0.2203
  918loPI   PO414348   3.666  10.780   5.644  0.1828  0.3777 -0.0301
  918loPI   GL114349   3.655  10.767   6.041  0.2326 -0.0263  0.1853
  918loPI   GL214350   3.936  10.766   6.088 -0.6077 -0.0227  0.1298
  918loPI   C1A14351   3.413  11.059   6.362 -0.0989 -0.1192 -0.3223
  918loPI   C2A14352   3.509  11.044   6.816  0.0918 -0.3038 -0.3567
  918loPI   C3A14353   3.421  11.083   7.282 -0.2084 -0.1784 -0.1567
  918loPI   C4A14354   3.458  11.120   7.691  0.0383  0.1527  0.1314
  918loPI   C5A14355   3.619  11.248   8.083 -0.0649  0.4931 -0.2486
  918loPI   C6A14356   3.861  11.535   8.399 -0.0757  0.0833  0.2542
  918loPI   C1B14357   3.872  10.791   6.575  0.0894  0.0479 -0.3342
  918loPI   C2B14358   3.875  10.714   7.026 -0.1108 -0.0311 -0.1111
  918loPI   C3B14359   3.799  10.742   7.450 -0.2992  0.4167  0.0371
  918loPI   C4B14360   3.828  10.850   7.943 -0.1772  0.2501 -0.1201
  919loPI    C114361  15.299  14.505   6.121  0.1573 -0.0175 -0.0178
  919loPI    C214362  15.386  14.191   5.890 -0.0034 -0.1702  0.1262
  919loPI    C314363  15.152  14.483   5.750  0.0142 -0.1933  0.0481
  919loPI   PO414364  15.447  14.582   6.243  0.1291  0.1742  0.0600
  919loPI   GL114365  15.696  14.616   6.568 -0.1636 -0.0673  0.0364
  919loPI   GL214366  15.486  14.726   6.692 -0.2764  0.1541 -0.2448
  919loPI   C1A14367  15.866  14.434   6.985 -0.0792 -0.0556 -0.0599
  919loPI   C2A14368  15.968  14.438   7.419  0.1491  0.1679  0.0840
  919loPI   C3A14369  15.878  14.441   7.842  0.0286  0.2887 -0.4119
  919loPI   C4A14370  15.916  14.425   8.282  0.0054 -0.0097 -0.0314
  919loPI   C5A14371  16.057  14.504   8.630  0.0274  0.2504 -0.0975
  919loPI   C6A14372  15.686  14.634   8.927  0.2477 -0.2935  0.0989
  919loPI   C1B14373  15.434  14.846   7.128 -0.2269  0.0812  0.0809
  919loPI   C2B14374  15.556  14.739   7.570 -0.4203 -0.0731 -0.0515
  919loPI   C3B14375  15.443  14.798   8.012  0.1468  0.0173 -0.3147
  919loPI   C4B14376  15.402  14.654   8.430  0.2287  0.4458  0.1930
  920loPI    C114377   0.177  10.827   5.417 -0.0023  0.0408  0.1006
  920loPI    C214378   0.182  10.935   5.032  0.3740  0.1695  0.1375
  920loPI    C314379   0.133  10.551   5.132  0.1349  0.1542 -0.0323
  920loPI   PO414380   0.365  10.917   5.510 -0.2250 -0.2946 -0.0029
  920loPI   GL114381   0.520  10.894   6.004  0.3014 -0.1497 -0.1241
  920loPI   GL214382   0.551  11.245   6.064 -0.1342 -0.1803  0.0874
  920loPI   C1A14383   0.366  10.931   6.448 -0.3243  0.0160  0.2903
  920loPI   C2A14384   0.325  10.905   6.869 -0.0202  0.0776 -0.2519
  920loPI   C3A14385   0.151  10.803   7.322 -0.0435 -0.0422  0.2029
  920loPI   C4A14386   0.143  10.845   7.788  0.1370  0.0419 -0.2707
  920loPI   C5A14387   0.217  10.792   8.280  0.0680  0.2210 -0.0604
  920loPI   C6A14388   0.377  10.729   8.637 -0.1856  0.3130  0.0951
  920loPI   C1B14389   0.439  11.442   6.516  0.1179  0.1976 -0.2423
  920loPI   C2B14390   0.354  11.455   6.886 -0.0999  0.0729 -0.0928
  920loPI   C3B14391   0.222  11.359   7.364  0.1896  0.2644 -0.0521
  920loPI   C4B14392   0.234  11.448   7.706  0.1197 -0.0423 -0.0725
  921loPI    C114393   5.832  12.529   5.787 -0.3151 -0.1447  0.0615
  921loPI    C214394   5.686  12.614   5.425  0.0930  0.0136 -0.0721
  921loPI    C314395   5.599  12.850   5.736  0.2099  0.2114 -0.1874
  921loPI   PO414396   5.906  12.276   5.823 -0.2697  0.1489  0.0267
  921loPI   GL114397   6.241  12.064   6.010  0.0741  0.1377 -0.0031
  921loPI   GL214398   6.492  12.189   6.194 -0.0385  0.3453  0.0875
  921loPI   C1A14399   6.058  11.891   6.331  0.0191  0.1037  0.1373
  921loPI   C2A14400   5.990  11.908   6.800 -0.3107 -0.1049 -0.0218
  921loPI   C3A14401   6.028  11.946   7.268 -0.2413 -0.0038  0.0619
  921loPI   C4A14402   5.950  11.953   7.686  0.0862  0.1149 -0.5464
  921loPI   C5A14403   5.996  12.012   8.101 -0.1417  0.2334  0.1797
  921loPI   C6A14404   5.763  11.865   8.484 -0.1925  0.0759 -0.1584
  921loPI   C1B14405   6.480  12.154   6.634 -0.0129  0.4176 -0.3206
  921loPI   C2B14406   6.493  12.049   7.120 -0.1111  0.2091  0.2724
  921loPI   C3B14407   6.460  12.079   7.596  0.0891  0.1774 -0.2681
  921loPI   C4B14408   6.467  12.141   8.021 -0.0827  0.1526  0.0137
  922loPI    C114409   0.523   7.243   5.630 -0.1128 -0.0844 -0.0247
  922loPI    C214410   0.246   7.222   5.342  0.0413  0.0091 -0.1819
  922loPI    C314411   0.469   7.552   5.381 -0.0787  0.0557  0.1398
  922loPI   PO414412   0.433   7.218   5.883  0.1865  0.1660 -0.0584
  922loPI   GL114413   0.682   7.233   6.237  0.1932 -0.0667  0.2056
  922loPI   GL214414   0.693   7.526   6.126  0.3208 -0.0763  0.1630
  922loPI   C1A14415   0.956   7.246   6.583  0.0800  0.2846  0.0103
  922loPI   C2A14416   1.001   7.325   7.000 -0.1994  0.0167  0.0373
  922loPI   C3A14417   0.990   7.353   7.356  0.0614 -0.2143  0.1693
  922loPI   C4A14418   0.873   7.326   7.741  0.0891 -0.3252 -0.2033
  922loPI   C5A14419   0.749   7.280   8.168  0.2431  0.1218 -0.0425
  922loPI   C6A14420   0.623   7.270   8.693  0.0482  0.1189 -0.2941
  922loPI   C1B14421   0.611   7.571   6.601  0.0744  0.1605  0.2327
  922loPI   C2B14422   0.611   7.615   7.021  0.1923 -0.0604 -0.0482
  922loPI   C3B14423   0.505   7.562   7.413  0.2279 -0.2573  0.1234
  922loPI   C4B14424   0.532   7.651   7.897 -0.0053 -0.2003  0.1724
  923loPI    C114425   3.329  14.567   5.537  0.0283  0.2315 -0.1837
  923loPI    C214426   3.321  14.206   5.364  0.0506  0.1119  0.0601
  923loPI    C314427   3.258  14.535   5.145 -0.2136 -0.0550 -0.1203
  923loPI   PO414428   3.158  14.573   5.687  0.0148 -0.2104 -0.2582
  923loPI   GL114429   3.083  14.556   6.124 -0.5996  0.0116  0.3228
  923loPI   GL214430   3.160  14.884   6.199  0.1457 -0.0790  0.0180
  923loPI   C1A14431   3.144  14.332   6.537 -0.0953  0.0617  0.3432
  923loPI   C2A14432   3.156  14.270   7.025 -0.1482 -0.3876  0.1529
  923loPI   C3A14433   3.133  14.276   7.423  0.1899 -0.3569 -0.1976
  923loPI   C4A14434   3.241  14.249   7.925  0.0503 -0.2555  0.0133
  923loPI   C5A14435   3.296  14.461   8.293  0.0443 -0.2415 -0.5329
  923loPI   C6A14436   3.254  14.254   8.744 -0.3271  0.2590  0.1008
  923loPI   C1B14437   3.267  14.839   6.581  0.1625 -0.0675 -0.1528
  923loPI   C2B14438   3.218  14.856   7.029  0.3538  0.1362 -0.0032
  923loPI   C3B14439   3.293  14.806   7.507 -0.1471 -0.3406  0.2292
  923loPI   C4B14440   3.396  14.854   7.982 -0.0344  0.1763 -0.0558
  924loPI    C114441   9.558  17.524   5.601  0.0596 -0.0262 -0.0877
  924loPI    C214442   9.448  17.536   5.217  0.1686 -0.1147 -0.1222
  924loPI    C314443   9.716  17.798   5.356  0.2901 -0.2191 -0.1582
  924loPI   PO414444   9.368  17.546   5.749  0.3401 -0.2127  0.1845
  924loPI   GL114445   9.401  17.411   6.094 -0.1706 -0.3279 -0.1905
  924loPI   GL214446   9.227  17.388   6.262 -0.0203  0.0740  0.1247
  924loPI   C1A14447   9.624  17.640   6.426  0.1944  0.3567 -0.0215
  924loPI   C2A14448   9.702  17.744   6.813  0.1453 -0.1276 -0.2013
  924loPI   C3A14449   9.656  17.729   7.296 -0.2927  0.5003  0.1838
  924loPI   C4A14450   9.758  17.604   7.665  0.2892  0.0978  0.0651
  924loPI   C5A14451   9.804  17.463   8.073 -0.2359  0.0086 -0.2168
  924loPI   C6A14452  10.135  17.228   8.248 -0.0529 -0.0804  0.2053
  924loPI   C1B14453   9.253  17.406   6.656 -0.1836  0.1688 -0.4415
  924loPI   C2B14454   9.285  17.408   7.138  0.1112 -0.1639 -0.1081
  924loPI   C3B14455   9.268  17.417   7.580 -0.0795  0.1607 -0.0177
  924loPI   C4B14456   9.296  17.423   8.034  0.0440  0.0398  0.1351
  925loPI    C114457  16.074  14.651   5.737  0.1783 -0.0435 -0.1244
  925loPI    C214458  15.845  14.776   6.041  0.1466  0.2580 -0.2687
  925loPI    C314459  15.682  14.569   5.739  0.1265  0.1950 -0.2149
  925loPI   PO414460  16.296  14.556   5.911  0.1459  0.3394 -0.0900
  925loPI   GL114461  16.166  14.604   6.323  0.1164 -0.1545  0.0667
  925loPI   GL214462  16.110  14.293   6.517 -0.0864 -0.1957 -0.2434
  925loPI   C1A14463  16.341  14.586   6.807 -0.0213  0.0542  0.3878
  925loPI   C2A14464  16.433  14.674   7.175  0.1771  0.0254 -0.0695
  925loPI   C3A14465  16.428  14.616   7.566  0.3845 -0.0606 -0.0089
  925loPI   C4A14466  16.477  14.600   8.041 -0.0528  0.3354  0.2843
  925loPI   C5A14467  16.519  14.387   8.435 -0.2116  0.1961 -0.1906
  925loPI   C6A14468  16.703  14.349   8.775 -0.2678  0.0135 -0.0879
  925loPI   C1B14469  16.278  14.096   6.846 -0.0943  0.2675 -0.1551
  925loPI   C2B14470  16.304  14.088   7.229 -0.1949  0.2449 -0.2634
  925loPI   C3B14471  16.314  14.071   7.682  0.3736  0.2259  0.0562
  925loPI   C4B14472  16.242  14.090   8.158  0.0599 -0.2052  0.1447
  926loPI    C114473   4.484  13.403   5.668 -0.1384  0.2408 -0.0680
  926loPI    C214474   4.752  13.509   5.391 -0.0890  0.0469 -0.0963
  926loPI    C314475   4.503  13.205   5.321  0.1022 -0.1768  0.1751
  926loPI   PO414476   4.614  13.378   5.855 -0.2736  0.1751 -0.1954
  926loPI   GL114477   4.641  13.661   6.267  0.3355 -0.0880  0.1789
  926loPI   GL214478   4.408  13.899   6.356 -0.1127  0.1547  0.0157
  926loPI   C1A14479   4.430  13.432   6.611 -0.0405 -0.3063  0.0419
  926loPI   C2A14480   4.418  13.301   7.069 -0.1468  0.1100  0.0631
  926loPI   C3A14481   4.360  13.328   7.478 -0.0350  0.0724 -0.0948
  926loPI   C4A14482   4.438  13.403   7.959 -0.0909 -0.0110 -0.0517
  926loPI   C5A14483   4.468  13.491   8.357 -0.1558  0.1463  0.1072
  926loPI   C6A14484   4.199  13.551   8.706  0.3488 -0.0443  0.0960
  926loPI   C1B14485   4.402  13.923   6.829 -0.4974 -0.0513  0.2031
  926loPI   C2B14486   4.375  13.866   7.227  0.0134  0.1407  0.2133
  926loPI   C3B14487   4.462  13.806   7.613  0.0603  0.3642  0.0469
  926loPI   C4B14488   4.509  13.889   7.992  0.1634 -0.2184  0.1707
  927loPI    C114489  16.286  13.568   5.555  0.0827  0.2183 -0.0038
  927loPI    C214490  16.509  13.499   5.231 -0.1128  0.0393 -0.1031
  927loPI    C314491  16.234  13.789   5.226  0.0256  0.1737 -0.0250
  927loPI   PO414492  16.418  13.574   5.740 -0.1098  0.2452 -0.1252
  927loPI   GL114493  16.485  13.602   6.153  0.0332  0.0427  0.0377
  927loPI   GL214494  16.494  13.941   6.260  0.0953 -0.0230  0.1766
  927loPI   C1A14495  16.566  13.316   6.398 -0.0121  0.0574  0.0498
  927loPI   C2A14496  16.644  13.310   6.733  0.0625  0.3992  0.2277
  927loPI   C3A14497  16.547  13.171   7.066  0.2501  0.2692  0.1751
  927loPI   C4A14498  16.539  13.220   7.519 -0.0728 -0.3412 -0.3218
  927loPI   C5A14499  16.596  13.218   8.038 -0.0878  0.0665  0.2651
  927loPI   C6A14500  16.838  13.545   8.238  0.4015  0.0111  0.3514
  927loPI   C1B14501  16.665  13.816   6.586  0.2319  0.0760 -0.3154
  927loPI   C2B14502  16.705  13.789   7.048 -0.0594  0.2514 -0.3900
  927loPI   C3B14503  16.655  13.720   7.436 -0.0328  0.3227  0.2121
  927loPI   C4B14504  16.736  13.790   7.839  0.1560 -0.0704 -0.2230
  928loPI    C114505   1.694   0.871   5.696  0.0967  0.0505 -0.0054
  928loPI    C214506   1.564   1.043   5.359 -0.0597 -0.0101  0.0233
  928loPI    C314507   1.799   0.721   5.341  0.1243  0.1255 -0.0292
  928loPI   PO414508   1.495   0.830   5.833  0.1541  0.1866  0.2038
  928loPI   GL114509   1.500   0.772   6.250 -0.1325 -0.1688 -0.0060
  928loPI   GL214510   1.656   0.506   6.201  0.0963 -0.2050  0.1984
  928loPI   C1A14511   1.210   0.770   6.572  0.0754 -0.1108 -0.1078
  928loPI   C2A14512   1.131   0.686   7.051 -0.1429 -0.2816 -0.0671
  928loPI   C3A14513   1.327   0.679   7.447 -0.1961 -0.1726 -0.1413
  928loPI   C4A14514   1.299   0.715   7.895  0.0118 -0.1215 -0.2426
  928loPI   C5A14515   1.376   0.631   8.341 -0.1021 -0.3324 -0.0127
  928loPI   C6A14516   1.454   0.517   8.797 -0.1069  0.2186  0.0567
  928loPI   C1B14517   1.607   0.454   6.722  0.1035  0.0474  0.0022
  928loPI   C2B14518   1.659   0.368   7.192 -0.2612 -0.1420 -0.0629
  928loPI   C3B14519   1.713   0.409   7.690 -0.2657 -0.1376 -0.1113
  928loPI   C4B14520   1.686   0.304   8.104  0.2792 -0.0346  0.1702
  929loPI    C114521  10.211   4.589   5.331  0.0270 -0.1064 -0.0215
  929loPI    C214522   9.821   4.655   5.275 -0.0104 -0.2153  0.1053
  929loPI    C314523  10.033   4.462   4.997  0.0557  0.2448 -0.1739
  929loPI   PO414524  10.197   4.520   5.568 -0.0667  0.2090 -0.2857
  929loPI   GL114525  10.205   4.590   6.044  0.1314  0.0668  0.2619
  929loPI   GL214526  10.315   4.913   6.074 -0.0698  0.0644 -0.1559
  929loPI   C1A14527  10.163   4.846   6.501 -0.0620  0.0815  0.0741
  929loPI   C2A14528  10.175   4.852   6.812 -0.1285 -0.0462 -0.1338
  929loPI   C3A14529  10.207   4.843   7.270  0.2782 -0.2139  0.1528
  929loPI   C4A14530  10.205   4.861   7.732  0.1523  0.1703  0.3168
  929loPI   C5A14531  10.174   4.930   8.098 -0.0298 -0.3852 -0.0313
  929loPI   C6A14532  10.294   5.331   8.361  0.2145  0.0068  0.0024
  929loPI   C1B14533  10.645   4.993   6.403 -0.2355  0.3069 -0.3863
  929loPI   C2B14534  10.748   5.025   6.826 -0.0527  0.0132 -0.2599
  929loPI   C3B14535  10.716   5.023   7.254 -0.0739  0.0061 -0.1684
  929loPI   C4B14536  10.630   5.068   7.674 -0.1020 -0.1068 -0.1563
  930loPI    C114537   9.165  12.743   5.348  0.1370 -0.3732  0.0152
  930loPI    C214538   8.938  12.741   5.019 -0.0235  0.1254  0.1135
  930loPI    C314539   9.311  12.883   5.003  0.0066  0.0483  0.1249
  930loPI   PO414540   8.926  12.723   5.562  0.1226 -0.0814  0.2369
  930loPI   GL114541   8.874  12.794   6.003 -0.1140 -0.0166 -0.1605
  930loPI   GL214542   8.561  12.765   6.179 -0.1198 -0.0572  0.0390
  930loPI   C1A14543   9.025  12.867   6.426  0.0645  0.1455  0.1621
  930loPI   C2A14544   9.051  12.993   6.867  0.1072  0.2725  0.2817
  930loPI   C3A14545   8.980  13.089   7.309 -0.3052  0.4385  0.0808
  930loPI   C4A14546   8.960  12.974   7.760 -0.2582  0.3601 -0.1145
  930loPI   C5A14547   8.848  12.923   8.158  0.0951 -0.4026 -0.5456
  930loPI   C6A14548   8.547  12.993   8.531 -0.1003 -0.3302 -0.3108
  930loPI   C1B14549   8.546  12.792   6.699 -0.3269 -0.0987 -0.1810
  930loPI   C2B14550   8.542  12.848   7.093 -0.2281  0.3309  0.1091
  930loPI   C3B14551   8.586  12.840   7.501  0.2927  0.2863  0.1539
  930loPI   C4B14552   8.420  12.775   7.930 -0.1126 -0.0688 -0.2706
  931loPI    C114553  15.020   2.535   5.842 -0.0239  0.0882  0.2632
  931loPI    C214554  15.134   2.548   5.459  0.1354  0.2089  0.3135
  931loPI    C314555  14.785   2.710   5.570  0.0183  0.0401  0.1958
  931loPI   PO414556  15.212   2.623   5.980  0.1721  0.1128 -0.2711
  931loPI   GL114557  15.246   2.633   6.393 -0.0511 -0.0351  0.1658
  931loPI   GL214558  14.863   2.545   6.398 -0.0628 -0.0339  0.2172
  931loPI   C1A14559  15.254   2.781   6.691 -0.0312 -0.0936  0.1802
  931loPI   C2A14560  15.300   2.783   7.140 -0.2753  0.3636  0.1909
  931loPI   C3A14561  15.212   2.896   7.444  0.0188  0.1470 -0.1152
  931loPI   C4A14562  15.201   2.848   7.839 -0.0692 -0.2225 -0.1538
  931loPI   C5A14563  15.264   2.802   8.275  0.1836 -0.1102  0.0356
  931loPI   C6A14564  15.526   2.915   8.587  0.1201 -0.0520  0.1169
  931loPI   C1B14565  14.823   2.654   6.813 -0.2009 -0.3085 -0.2114
  931loPI   C2B14566  14.764   2.653   7.206 -0.0767  0.1082  0.2035
  931loPI   C3B14567  14.768   2.661   7.719 -0.2859  0.0017 -0.0853
  931loPI   C4B14568  14.853   2.671   8.156  0.0621  0.3161  0.2029
  932loPI    C114569   5.196  11.893   5.333  0.0198  0.1830  0.0674
  932loPI    C214570   4.954  11.684   5.092  0.0383  0.1676  0.0622
  932loPI    C314571   5.313  11.802   4.961  0.0259  0.2067  0.0636
  932loPI   PO414572   5.187  11.809   5.650 -0.3062 -0.1807  0.2324
  932loPI   GL114573   5.292  11.938   6.046  0.0189  0.1373  0.0806
  932loPI   GL214574   5.484  11.649   6.233  0.0563 -0.0886  0.3308
  932loPI   C1A14575   5.183  12.074   6.428 -0.2962  0.2208 -0.3621
  932loPI   C2A14576   4.996  12.154   6.795 -0.0341  0.2957 -0.0245
  932loPI   C3A14577   5.052  12.209   7.248 -0.0531 -0.1941  0.0660
  932loPI   C4A14578   5.102  12.046   7.666  0.0181 -0.1852  0.1087
  932loPI   C5A14579   5.086  12.148   8.133  0.1467  0.0670  0.0680
  932loPI   C6A14580   4.769  12.136   8.493  0.0751  0.0372  0.2144
  932loPI   C1B14581   5.460  11.736   6.688  0.2334 -0.0039 -0.0596
  932loPI   C2B14582   5.486  11.810   7.208 -0.0611  0.0631 -0.0070
  932loPI   C3B14583   5.504  11.788   7.603 -0.1896 -0.0085  0.2052
  932loPI   C4B14584   5.461  11.880   7.979  0.0635  0.0714 -0.0385
  933loPI    C114585   3.622   1.295   5.575 -0.1526 -0.1281 -0.0093
  933loPI    C214586   3.898   1.198   5.302  0.0514  0.3232  0.0289
  933loPI    C314587   3.524   1.282   5.188 -0.1121 -0.3988 -0.0128
  933loPI   PO414588   3.619   1.165   5.711 -0.0680 -0.1032 -0.0215
  933loPI   GL114589   3.706   1.166   6.114  0.0922  0.1507  0.1274
  933loPI   GL214590   3.762   1.508   6.264  0.1433 -0.1156  0.1295
  933loPI   C1A14591   3.528   1.055   6.556 -0.0111  0.2359 -0.1853
  933loPI   C2A14592   3.545   1.003   7.008 -0.1923 -0.2239  0.4859
  933loPI   C3A14593   3.512   1.047   7.442  0.0366 -0.0555 -0.0841
  933loPI   C4A14594   3.529   1.040   7.856  0.1003  0.0142 -0.0750
  933loPI   C5A14595   3.560   1.070   8.339  0.3139 -0.1994 -0.0403
  933loPI   C6A14596   3.829   1.047   8.732  0.2070  0.4120 -0.3163
  933loPI   C1B14597   3.743   1.515   6.701 -0.3082 -0.2491  0.3168
  933loPI   C2B14598   3.702   1.499   7.138  0.1298  0.1587  0.1615
  933loPI   C3B14599   3.673   1.567   7.568 -0.2225  0.0654 -0.0655
  933loPI   C4B14600   3.708   1.501   8.020  0.1422 -0.1250 -0.1148
  934loPI    C114601   6.371   5.770   5.772 -0.3130 -0.0304  0.1951
  934loPI    C214602   6.294   5.446   5.550 -0.2362  0.1154 -0.0481
  934loPI    C314603   6.131   5.798   5.454  0.1196  0.2662 -0.1165
  934loPI   PO414604   6.306   5.688   6.019 -0.2894  0.1773  0.0390
  934loPI   GL114605   6.165   5.872   6.443 -0.3094 -0.3024  0.0746
  934loPI   GL214606   6.242   6.146   6.256  0.1153 -0.1417 -0.0965
  934loPI   C1A14607   6.284   5.902   6.836  0.2175 -0.0904 -0.2234
  934loPI   C2A14608   6.189   5.875   7.305 -0.2002 -0.0187  0.3195
  934loPI   C3A14609   6.125   5.882   7.769  0.1477  0.0540 -0.1384
  934loPI   C4A14610   6.059   6.043   8.169 -0.0735 -0.0314 -0.0323
  934loPI   C5A14611   6.432   5.971   8.411  0.2010 -0.0045 -0.0525
  934loPI   C6A14612   6.761   6.097   8.781  0.1603 -0.0654 -0.2649
  934loPI   C1B14613   6.312   6.383   6.676 -0.1116 -0.2685 -0.0340
  934loPI   C2B14614   6.323   6.364   7.145  0.1877 -0.2956 -0.0667
  934loPI   C3B14615   6.258   6.341   7.605 -0.1460  0.3312 -0.2017
  934loPI   C4B14616   6.216   6.405   7.942  0.1255 -0.0377  0.0808
  935loPI    C114617  10.152  11.395   5.679  0.0667  0.0389  0.1213
  935loPI    C214618   9.982  11.741   5.574  0.1686  0.0453 -0.0255
  935loPI    C314619  10.066  11.467   5.295  0.0596 -0.1113  0.0942
  935loPI   PO414620  10.187  11.419   6.006  0.0338  0.6277 -0.0132
  935loPI   GL114621  10.227  11.506   6.477 -0.2339  0.1220 -0.0473
  935loPI   GL214622  10.470  11.414   6.429 -0.0891 -0.1377  0.1712
  935loPI   C1A14623  10.056  11.425   6.859 -0.2296  0.1029  0.3171
  935loPI   C2A14624  10.019  11.411   7.246 -0.3879 -0.0762  0.0095
  935loPI   C3A14625  10.077  11.493   7.691 -0.2729  0.0535 -0.1114
  935loPI   C4A14626   9.976  11.372   8.133 -0.2843  0.1139 -0.2725
  935loPI   C5A14627   9.662  11.060   8.246  0.2636  0.1204 -0.1009
  935loPI   C6A14628   9.459  10.646   8.292 -0.1147  0.1925 -0.0760
  935loPI   C1B14629  10.536  11.161   6.769 -0.1852 -0.3728  0.1588
  935loPI   C2B14630  10.465  11.028   7.211 -0.2307 -0.2740  0.1830
  935loPI   C3B14631  10.564  11.167   7.623  0.2760 -0.1071 -0.1990
  935loPI   C4B14632  10.545  11.072   8.122 -0.1087  0.0355 -0.2408
  936loPI    C114633   1.532   9.695   5.649  0.1109 -0.0278 -0.0175
  936loPI    C214634   1.826   9.886   5.455 -0.0560  0.1271 -0.1206
  936loPI    C314635   1.797   9.488   5.431  0.2010  0.1012 -0.0322
  936loPI   PO414636   1.450   9.846   5.862 -0.0757 -0.0155  0.0770
  936loPI   GL114637   1.414  10.057   6.237  0.1659 -0.2617 -0.1190
  936loPI   GL214638   1.126  10.239   6.332  0.0655  0.3878 -0.1738
  936loPI   C1A14639   1.464   9.938   6.701 -0.1951  0.2285 -0.0037
  936loPI   C2A14640   1.470   9.841   7.121 -0.0566 -0.0380 -0.1884
  936loPI   C3A14641   1.388   9.996   7.548  0.0397  0.0563 -0.1662
  936loPI   C4A14642   1.292   9.806   7.995  0.1451  0.1186 -0.0395
  936loPI   C5A14643   1.275   9.578   8.379  0.1875 -0.3442 -0.3181
  936loPI   C6A14644   1.546   9.299   8.269 -0.0023 -0.2280  0.2436
  936loPI   C1B14645   1.082  10.210   6.865  0.0556 -0.2376 -0.2230
  936loPI   C2B14646   0.982  10.202   7.257 -0.1785 -0.1674 -0.1580
  936loPI   C3B14647   0.951  10.224   7.679 -0.1624  0.0390  0.1689
  936loPI   C4B14648   0.860  10.125   8.082 -0.2095 -0.2923 -0.0002
  937loPI    C114649  10.452  13.807   5.546  0.1977 -0.0986  0.1431
  937loPI    C214650  10.678  13.899   5.229  0.0407  0.1152  0.0902
  937loPI    C314651  10.497  13.542   5.250 -0.0869  0.1643 -0.1436
  937loPI   PO414652  10.536  13.875   5.723 -0.1882  0.0673 -0.0266
  937loPI   GL114653  10.492  13.730   6.086  0.1280  0.4746  0.0556
  937loPI   GL214654  10.398  13.640   6.250  0.0603 -0.0352 -0.0337
  937loPI   C1A14655  10.827  13.521   6.364  0.2947  0.0717  0.0928
  937loPI   C2A14656  10.872  13.315   6.759 -0.1521  0.0087  0.4996
  937loPI   C3A14657  10.836  13.175   7.169  0.0358  0.1193  0.3039
  937loPI   C4A14658  10.894  13.121   7.529  0.0299 -0.2294 -0.1722
  937loPI   C5A14659  10.936  13.174   7.928 -0.1270 -0.2569  0.2980
  937loPI   C6A14660  11.013  12.986   8.296 -0.2199 -0.2728 -0.1013
  937loPI   C1B14661  10.332  13.532   6.567 -0.0704 -0.0634 -0.0888
  937loPI   C2B14662  10.316  13.530   7.076 -0.3684 -0.2469  0.2358
  937loPI   C3B14663  10.366  13.532   7.490 -0.1933 -0.0966 -0.0149
  937loPI   C4B14664  10.394  13.521   7.874 -0.0112 -0.2306 -0.0806
  938loPI    C114665  17.150  13.020   5.470 -0.0435 -0.2966 -0.0151
  938loPI    C214666  17.364  13.020   5.132 -0.1227  0.1071 -0.0705
  938loPI    C314667  16.995  12.865   5.135  0.0128 -0.2244 -0.0749
  938loPI   PO414668  17.277  13.106   5.585 -0.0990 -0.2168 -0.1984
  938loPI   GL114669  17.276  12.983   6.034  0.1289 -0.2738  0.1724
  938loPI   GL214670  17.421  12.700   6.230  0.1800 -0.0491  0.1523
  938loPI   C1A14671  17.386  13.159   6.438 -0.3059  0.1232 -0.1174
  938loPI   C2A14672  17.407  13.117   6.903 -0.0114 -0.3138 -0.0357
  938loPI   C3A14673  17.372  13.112   7.296  0.1174 -0.0058 -0.1368
  938loPI   C4A14674  17.396  13.065   7.669  0.1140  0.0650  0.1015
  938loPI   C5A14675  17.212  13.281   8.066 -0.2629 -0.2006  0.3557
  938loPI   C6A14676  17.411  13.571   8.360 -0.0114  0.0131 -0.0333
  938loPI   C1B14677  17.308  12.638   6.642  0.1661 -0.0789 -0.0002
  938loPI   C2B14678  17.322  12.599   7.133 -0.2910 -0.0144 -0.0822
  938loPI   C3B14679  17.295  12.565   7.536  0.0051  0.0144 -0.5315
  938loPI   C4B14680  17.603  12.706   7.913 -0.4140 -0.1290 -0.2975
  939loPI    C114681   6.805   1.200   5.903 -0.2256 -0.0767 -0.1919
  939loPI    C214682   6.861   0.806   5.940  0.0616 -0.0199  0.0141
  939loPI    C314683   6.987   0.996   5.612 -0.0521 -0.0937 -0.0731
  939loPI   PO414684   6.836   1.320   6.178  0.2281  0.0818  0.1440
  939loPI   GL114685   6.831   1.328   6.484  0.1117 -0.1407 -0.1548
  939loPI   GL214686   7.126   1.005   6.478 -0.1621  0.0946  0.0334
  939loPI   C1A14687   6.933   1.263   6.859  0.2718 -0.1479  0.2099
  939loPI   C2A14688   6.804   1.181   7.255 -0.0844 -0.3029 -0.0535
  939loPI   C3A14689   6.800   1.294   7.698  0.3268  0.0709 -0.0303
  939loPI   C4A14690   6.858   1.340   8.093 -0.0369 -0.0187  0.0867
  939loPI   C5A14691   6.913   1.323   8.553 -0.0733 -0.0807  0.2243
  939loPI   C6A14692   7.049   1.700   8.767  0.0645 -0.0840 -0.2467
  939loPI   C1B14693   7.237   0.895   6.955  0.0740  0.1105 -0.3062
  939loPI   C2B14694   7.168   0.875   7.381 -0.1299  0.0308  0.0012
  939loPI   C3B14695   7.235   0.971   7.733 -0.1007  0.0780  0.1903
  939loPI   C4B14696   7.128   0.950   8.162 -0.1503  0.3589 -0.0197
  940loPI    C114697  17.492   2.469   5.691 -0.1936  0.2286 -0.0690
  940loPI    C214698  17.654   2.762   5.473 -0.0340  0.0003 -0.2618
  940loPI    C314699  17.617   2.395   5.318  0.0628 -0.1608  0.0884
  940loPI   PO414700  17.715   2.471   5.906 -0.0352 -0.2303  0.3600
  940loPI   GL114701  17.755   2.608   6.349 -0.0915 -0.1104  0.1361
  940loPI   GL214702  18.096   2.702   6.386 -0.0637  0.1815  0.1819
  940loPI   C1A14703  17.481   2.597   6.776 -0.0936  0.2205  0.2027
  940loPI   C2A14704  17.502   2.614   7.301 -0.0916 -0.0321  0.2318
  940loPI   C3A14705  17.426   2.514   7.715 -0.1761 -0.1597  0.4560
  940loPI   C4A14706  17.464   2.506   8.184 -0.1239  0.0672 -0.2610
  940loPI   C5A14707  17.501   2.612   8.646  0.0995  0.0317  0.0477
  940loPI   C6A14708  17.649   2.742   8.873 -0.0849  0.2693  0.2608
  940loPI   C1B14709  18.018   2.745   6.854  0.1084  0.0755  0.5227
  940loPI   C2B14710  18.008   2.735   7.353  0.0040  0.0462  0.0061
  940loPI   C3B14711  17.985   2.754   7.760 -0.2406  0.0921 -0.1641
  940loPI   C4B14712  17.888   2.741   8.115 -0.1404 -0.2121  0.1819
  941loPI    C114713   3.310   7.343   5.525  0.0449 -0.0421 -0.1510
  941loPI    C214714   3.643   7.246   5.327 -0.0095 -0.2392 -0.1476
  941loPI    C314715   3.299   7.291   5.128  0.0310  0.0319 -0.1606
  941loPI   PO414716   3.418   7.446   5.733 -0.2810  0.2771  0.1263
  941loPI   GL114717   3.456   7.545   6.090  0.1227  0.1609  0.2511
  941loPI   GL214718   3.627   7.400   6.237 -0.1197 -0.1184  0.0043
  941loPI   C1A14719   3.327   7.711   6.533  0.2006  0.1039 -0.3621
  941loPI   C2A14720   3.319   7.786   6.995 -0.0619  0.3720 -0.1278
  941loPI   C3A14721   3.371   7.712   7.436  0.0572 -0.1413 -0.1660
  941loPI   C4A14722   3.304   7.748   7.784 -0.2154 -0.0660  0.2612
  941loPI   C5A14723   3.331   7.662   8.190  0.3029 -0.0230 -0.1840
  941loPI   C6A14724   3.054   7.718   8.558 -0.1405  0.0764  0.0444
  941loPI   C1B14725   3.688   7.281   6.588 -0.0441  0.0530 -0.0725
  941loPI   C2B14726   3.788   7.356   7.013 -0.2694  0.0586 -0.2570
  941loPI   C3B14727   3.720   7.361   7.450  0.0254  0.0896  0.1531
  941loPI   C4B14728   3.658   7.342   7.923 -0.0677 -0.0567 -0.2049
  942loPI    C114729  15.753   1.815   5.746 -0.1347  0.1067 -0.3375
  942loPI    C214730  15.472   1.589   5.574 -0.2580  0.1781 -0.2318
  942loPI    C314731  15.627   1.901   5.377 -0.1004  0.0141 -0.3711
  942loPI   PO414732  15.645   1.830   5.994 -0.1633  0.3011  0.1543
  942loPI   GL114733  15.678   1.595   6.375  0.0117  0.0950  0.2707
  942loPI   GL214734  15.498   1.800   6.503  0.0757  0.0824 -0.0411
  942loPI   C1A14735  15.890   1.660   6.765 -0.2348  0.0340 -0.0334
  942loPI   C2A14736  15.868   1.702   7.189 -0.2540  0.1774 -0.1489
  942loPI   C3A14737  15.978   1.571   7.479 -0.0635 -0.1520  0.0290
  942loPI   C4A14738  15.927   1.624   7.868 -0.2745 -0.0366 -0.1734
  942loPI   C5A14739  16.026   1.516   8.332 -0.1931 -0.1761  0.1892
  942loPI   C6A14740  16.415   1.569   8.540  0.0267  0.3038  0.0561
  942loPI   C1B14741  15.462   1.875   6.870 -0.2184 -0.2021 -0.1534
  942loPI   C2B14742  15.480   1.952   7.338 -0.1578  0.0038  0.3676
  942loPI   C3B14743  15.567   2.088   7.713  0.0975  0.1344  0.1103
  942loPI   C4B14744  15.636   1.917   8.171 -0.0388 -0.0965  0.1434
  943loPI    C114745   0.667  10.546   5.668  0.1620  0.1200 -0.1446
  943loPI    C214746   0.491  10.251   5.463  0.0095  0.0787  0.0433
  943loPI    C314747   0.641  10.567   5.269  0.1694 -0.1178 -0.1595
  943loPI   PO414748   0.745  10.477   5.889 -0.1714 -0.2670  0.1640
  943loPI   GL114749   0.702  10.485   6.264 -0.0073  0.0814  0.1689
  943loPI   GL214750   0.404  10.483   6.242 -0.0752 -0.0040 -0.1189
  943loPI   C1A14751   0.687  10.590   6.727 -0.0691 -0.0780  0.1797
  943loPI   C2A14752   0.587  10.515   7.151  0.1185 -0.1383 -0.2328
  943loPI   C3A14753   0.539  10.502   7.581 -0.2610  0.1098  0.0953
  943loPI   C4A14754   0.558  10.587   8.039 -0.1903 -0.0001 -0.0010
  943loPI   C5A14755   0.769  10.790   8.398 -0.0312  0.0568 -0.0460
  943loPI   C6A14756   0.934  11.012   8.702  0.1737  0.0901 -0.0904
  943loPI   C1B14757   0.223  10.433   6.596  0.1172 -0.2542 -0.0118
  943loPI   C2B14758   0.113  10.374   7.071  0.1503 -0.1365 -0.0398
  943loPI   C3B14759   0.082  10.333   7.507 -0.0882  0.0364  0.0017
  943loPI   C4B14760   0.057  10.350   7.986 -0.2507  0.0807 -0.0347
  944loPI    C114761   1.225   8.640   5.555  0.1725 -0.3048  0.1099
  944loPI    C214762   0.894   8.542   5.354  0.2177  0.1332 -0.1925
  944loPI    C314763   1.252   8.436   5.212  0.2253 -0.0665 -0.0295
  944loPI   PO414764   1.154   8.450   5.882 -0.0058  0.0435 -0.2501
  944loPI   GL114765   0.995   8.394   6.264 -0.0097  0.0075 -0.3383
  944loPI   GL214766   0.772   8.124   6.476  0.6045  0.1117 -0.1191
  944loPI   C1A14767   1.097   8.418   6.810  0.1381  0.0947  0.0399
  944loPI   C2A14768   1.187   8.372   7.210 -0.2125  0.2584 -0.0189
  944loPI   C3A14769   1.116   8.370   7.654  0.2846  0.2867 -0.1406
  944loPI   C4A14770   1.090   8.374   8.129  0.0881  0.2300  0.1878
  944loPI   C5A14771   1.147   8.180   8.494 -0.6082 -0.2155  0.1571
  944loPI   C6A14772   1.469   7.768   8.430  0.0017 -0.1242  0.1594
  944loPI   C1B14773   0.741   8.141   6.940  0.0251 -0.1310  0.0994
  944loPI   C2B14774   0.663   8.207   7.324  0.0589  0.0536  0.0533
  944loPI   C3B14775   0.635   8.148   7.760  0.3009 -0.0399  0.1443
  944loPI   C4B14776   0.405   8.112   8.121  0.1731 -0.0660  0.0648
  945loPI    C114777   3.202   2.120   5.841  0.0158 -0.0600 -0.1731
  945loPI    C214778   2.998   2.140   5.498 -0.0005  0.0175 -0.1592
  945loPI    C314779   3.392   2.074   5.493  0.0010  0.0294 -0.1933
  945loPI   PO414780   2.944   2.065   6.011 -0.0848  0.2747 -0.2114
  945loPI   GL114781   2.821   2.351   6.333 -0.1573 -0.3876  0.0805
  945loPI   GL214782   2.590   2.501   6.430 -0.1184  0.0135  0.1701
  945loPI   C1A14783   2.846   2.264   6.787 -0.1273  0.1966 -0.0691
  945loPI   C2A14784   2.953   2.263   7.205  0.0151 -0.0054  0.0784
  945loPI   C3A14785   2.885   2.325   7.630 -0.0663  0.1253  0.0839
  945loPI   C4A14786   2.924   2.312   8.071  0.5216 -0.0134  0.1134
  945loPI   C5A14787   2.884   2.238   8.544  0.1219  0.0201  0.0118
  945loPI   C6A14788   2.756   2.348   8.934  0.2035  0.1381  0.0260
  945loPI   C1B14789   2.485   2.564   6.850  0.4705  0.1617 -0.1499
  945loPI   C2B14790   2.568   2.650   7.352 -0.2867 -0.0821  0.2445
  945loPI   C3B14791   2.466   2.670   7.732 -0.2828  0.3024 -0.0997
  945loPI   C4B14792   2.440   2.643   8.204  0.0347  0.1171 -0.0524
  946loPI    C114793  14.407   5.530   5.926 -0.1767 -0.0941 -0.1927
  946loPI    C214794  14.565   5.363   5.598  0.5706  0.0201  0.0888
  946loPI    C314795  14.393   5.133   5.876  0.2146 -0.1079 -0.2285
  946loPI   PO414796  14.545   5.677   6.013 -0.2112  0.0063  0.1361
  946loPI   GL114797  14.364   6.007   6.246 -0.2264 -0.0468  0.2921
  946loPI   GL214798  14.129   5.768   6.409 -0.0740  0.0097 -0.0712
  946loPI   C1A14799  14.497   6.075   6.723  0.0817  0.0970  0.3132
  946loPI   C2A14800  14.636   5.897   7.112  0.1044  0.1944 -0.2273
  946loPI   C3A14801  14.619   5.947   7.507  0.3502  0.0456 -0.2252
  946loPI   C4A14802  14.585   5.870   7.920  0.1641 -0.0036  0.0944
  946loPI   C5A14803  14.520   6.000   8.321  0.1055 -0.0196 -0.1057
  946loPI   C6A14804  14.493   6.388   8.455  0.2011 -0.0985  0.1460
  946loPI   C1B14805  14.068   5.846   6.903  0.2033 -0.0661  0.0908
  946loPI   C2B14806  14.061   5.844   7.342  0.2206 -0.2214  0.0327
  946loPI   C3B14807  13.969   5.712   7.804  0.1490  0.0576  0.2849
  946loPI   C4B14808  13.943   5.774   8.357  0.0007 -0.0174  0.0903
  947loPI    C114809   9.199   4.583   5.590 -0.0399 -0.0446 -0.0375
  947loPI    C214810   9.080   4.445   5.234  0.0409  0.1187 -0.1291
  947loPI    C314811   9.356   4.734   5.254  0.1200  0.0310  0.0697
  947loPI   PO414812   8.965   4.669   5.716 -0.0906  0.1032 -0.0994
  947loPI   GL114813   8.830   4.540   6.095  0.0136 -0.1316  0.0449
  947loPI   GL214814   8.805   4.306   6.254  0.2381  0.1554  0.0560
  947loPI   C1A14815   8.748   4.834   6.446  0.0915  0.0071  0.1301
  947loPI   C2A14816   8.844   4.878   6.868  0.0801 -0.1112 -0.1572
  947loPI   C3A14817   8.819   4.913   7.225 -0.1709  0.0217 -0.0110
  947loPI   C4A14818   8.908   4.853   7.647  0.2589 -0.0074  0.2807
  947loPI   C5A14819   8.980   4.781   8.062 -0.0235  0.0684 -0.1073
  947loPI   C6A14820   9.416   4.731   8.295  0.2425 -0.4236 -0.2556
  947loPI   C1B14821   8.679   4.344   6.634 -0.1008 -0.0217  0.1084
  947loPI   C2B14822   8.680   4.430   7.021 -0.3241 -0.1775  0.3259
  947loPI   C3B14823   8.758   4.318   7.341  0.2789  0.0954 -0.0458
  947loPI   C4B14824   8.689   4.349   7.785 -0.1915  0.0794 -0.2110
  948loPI    C114825  14.524   4.330   5.656  0.1820  0.4016 -0.0966
  948loPI    C214826  14.631   4.026   5.418 -0.0154  0.2395  0.0176
  948loPI    C314827  14.334   4.271   5.308  0.0429  0.3005 -0.0049
  948loPI   PO414828  14.464   4.175   5.849 -0.0835 -0.1508 -0.2994
  948loPI   GL114829  14.243   4.130   6.188 -0.1363  0.2091  0.0623
  948loPI   GL214830  14.490   3.958   6.309  0.1815  0.2378  0.0888
  948loPI   C1A14831  14.211   4.226   6.622  0.1632  0.0600  0.2432
  948loPI   C2A14832  14.221   4.354   6.984 -0.0366  0.1777 -0.0427
  948loPI   C3A14833  14.171   4.355   7.425 -0.2596  0.3761  0.1401
  948loPI   C4A14834  14.185   4.378   7.838 -0.1726 -0.0402  0.1179
  948loPI   C5A14835  14.272   4.372   8.231 -0.4257  0.0283 -0.2390
  948loPI   C6A14836  14.431   4.485   8.598  0.1114  0.0992  0.0299
  948loPI   C1B14837  14.636   3.942   6.719  0.0011 -0.2269  0.0571
  948loPI   C2B14838  14.503   4.024   7.121  0.1705  0.0915 -0.3431
  948loPI   C3B14839  14.578   4.006   7.568 -0.2421  0.1042 -0.0864
  948loPI   C4B14840  14.507   4.003   8.051  0.1249  0.1258  0.0467
  949loPI    C114841  15.509   7.921   5.318 -0.0252  0.0765 -0.0945
  949loPI    C214842  15.639   7.603   5.113 -0.1657 -0.1511  0.1625
  949loPI    C314843  15.429   7.888   4.927 -0.0445 -0.2097 -0.0688
  949loPI   PO414844  15.645   7.865   5.581 -0.0749 -0.1920 -0.0884
  949loPI   GL114845  15.466   8.123   5.982  0.2112 -0.2458  0.0612
  949loPI   GL214846  15.521   7.818   6.138 -0.1063  0.2770 -0.1336
  949loPI   C1A14847  15.357   8.299   6.365 -0.1305 -0.2538  0.1476
  949loPI   C2A14848  15.465   8.187   6.836  0.0342 -0.0509 -0.0025
  949loPI   C3A14849  15.486   7.999   7.243 -0.0140  0.0911 -0.0085
  949loPI   C4A14850  15.502   8.181   7.695  0.3288 -0.3070  0.1567
  949loPI   C5A14851  15.552   8.114   8.082  0.1382 -0.0263  0.4508
  949loPI   C6A14852  15.753   8.104   8.331 -0.1114 -0.0795 -0.3573
  949loPI   C1B14853  15.409   7.749   6.596  0.0890 -0.2595 -0.1480
  949loPI   C2B14854  15.293   7.621   7.014 -0.0872 -0.0913  0.2759
  949loPI   C3B14855  15.362   7.541   7.402 -0.1876 -0.0175 -0.0163
  949loPI   C4B14856  15.423   7.636   7.830 -0.0680  0.0920  0.2476
  950loPI    C114857   6.056   8.119   5.569 -0.1852 -0.0423  0.0883
  950loPI    C214858   5.853   7.947   5.270 -0.0674  0.0510 -0.0464
  950loPI    C314859   6.035   8.299   5.212  0.0945 -0.0097  0.0862
  950loPI   PO414860   5.936   8.149   5.740  0.3172 -0.3037 -0.0442
  950loPI   GL114861   5.698   8.058   5.986  0.0154 -0.0505 -0.0385
  950loPI   GL214862   5.642   7.763   6.128 -0.3251  0.3248 -0.0333
  950loPI   C1A14863   5.616   8.127   6.433 -0.3412  0.1524 -0.1448
  950loPI   C2A14864   5.614   8.126   6.893  0.5087 -0.1572 -0.0519
  950loPI   C3A14865   5.777   8.124   7.351 -0.0849  0.2762  0.0682
  950loPI   C4A14866   5.675   8.060   7.738  0.3066 -0.0154 -0.0196
  950loPI   C5A14867   5.786   8.108   8.226  0.0181 -0.0487  0.2148
  950loPI   C6A14868   6.024   8.442   8.452 -0.1830  0.0072 -0.3744
  950loPI   C1B14869   5.506   7.585   6.488  0.0799  0.2948  0.0167
  950loPI   C2B14870   5.612   7.548   6.947  0.1621  0.0895  0.0057
  950loPI   C3B14871   5.593   7.677   7.388  0.0078  0.0945  0.1107
  950loPI   C4B14872   5.451   7.507   7.803  0.2131 -0.0307 -0.1123
  951loPI    C114873   7.866  15.015   5.558  0.0571  0.0141  0.0522
  951loPI    C214874   8.119  14.759   5.384  0.0237 -0.0649  0.1194
  951loPI    C314875   7.816  14.914   5.174 -0.0863 -0.2511  0.1380
  951loPI   PO414876   7.850  15.021   5.772  0.1180 -0.0765  0.0620
  951loPI   GL114877   7.810  14.876   6.144  0.1539  0.0298 -0.0429
  951loPI   GL214878   7.599  14.677   6.291 -0.0595 -0.1132 -0.1379
  951loPI   C1A14879   7.954  15.048   6.420  0.2608 -0.0034 -0.0471
  951loPI   C2A14880   7.943  14.933   6.813 -0.2785 -0.2153 -0.3597
  951loPI   C3A14881   7.936  15.045   7.222  0.0146 -0.1289 -0.0091
  951loPI   C4A14882   7.873  15.010   7.675 -0.1644 -0.3951 -0.0642
  951loPI   C5A14883   7.937  15.123   8.081 -0.0554 -0.2155  0.1870
  951loPI   C6A14884   8.003  15.599   8.219  0.1594 -0.0860  0.1701
  951loPI   C1B14885   7.461  14.817   6.557  0.0957  0.3971  0.0685
  951loPI   C2B14886   7.359  14.761   6.994 -0.3605 -0.3389  0.1848
  951loPI   C3B14887   7.423  14.822   7.467 -0.5727 -0.0360  0.0629
  951loPI   C4B14888   7.431  14.911   7.857  0.0220 -0.1615  0.2718
  952loPI    C114889  13.056  11.133   5.604 -0.1183 -0.1519  0.0756
  952loPI    C214890  12.855  11.479   5.604 -0.0603 -0.1177 -0.0547
  952loPI    C314891  12.792  11.211   5.314  0.0885 -0.1024 -0.1023
  952loPI   PO414892  13.103  11.066   5.908  0.1320  0.0745 -0.1824
  952loPI   GL114893  12.846  10.900   6.257 -0.1859 -0.1932  0.1545
  952loPI   GL214894  12.847  11.165   6.477 -0.0059 -0.3919 -0.5000
  952loPI   C1A14895  12.723  10.663   6.547  0.0005  0.0996 -0.1958
  952loPI   C2A14896  12.572  10.574   6.953  0.0505 -0.1180 -0.2752
  952loPI   C3A14897  12.627  10.524   7.403 -0.0956 -0.0879 -0.2141
  952loPI   C4A14898  12.817  10.545   7.791  0.0282 -0.2633  0.4227
  952loPI   C5A14899  12.986  10.624   8.227  0.0218  0.1058 -0.1754
  952loPI   C6A14900  13.175  10.809   8.654  0.1525  0.2324  0.1353
  952loPI   C1B14901  12.657  11.091   6.829  0.1277 -0.2699  0.3734
  952loPI   C2B14902  12.296  11.273   7.039  0.0027 -0.1426  0.0385
  952loPI   C3B14903  12.363  11.275   7.475  0.0740 -0.0871  0.0348
  952loPI   C4B14904  12.579  11.387   7.794  0.0378  0.0014  0.1260
  953loPI    C114905   9.293  17.071   5.418  0.1116  0.1086 -0.0052
  953loPI    C214906   9.297  16.729   5.210  0.0506  0.0625  0.0692
  953loPI    C314907   9.023  17.009   5.130  0.0708  0.0740  0.0404
  953loPI   PO414908   9.310  16.944   5.682 -0.1540  0.2401  0.1454
  953loPI   GL114909   9.461  16.905   6.141 -0.0273  0.1140 -0.0410
  953loPI   GL214910   9.115  16.888   6.192  0.1398 -0.0759 -0.0127
  953loPI   C1A14911   9.612  17.136   6.479 -0.1673  0.1257  0.0487
  953loPI   C2A14912   9.588  17.065   6.903 -0.1045 -0.0166 -0.1071
  953loPI   C3A14913   9.610  17.082   7.390  0.0065 -0.0365  0.1673
  953loPI   C4A14914   9.581  17.055   7.797  0.2329  0.2924 -0.1592
  953loPI   C5A14915   9.611  16.975   8.197  0.0149  0.1132 -0.1011
  953loPI   C6A14916   9.420  17.273   8.464  0.1203  0.0558  0.0225
  953loPI   C1B14917   9.180  16.900   6.657  0.0827  0.0272  0.1824
  953loPI   C2B14918   9.143  16.843   7.119 -0.0194  0.2720 -0.3427
  953loPI   C3B14919   9.181  16.858   7.583  0.3150 -0.1385  0.0913
  953loPI   C4B14920   9.162  16.893   8.048  0.0698 -0.1047  0.0123
  954loPI    C114921  11.410   7.095   5.644  0.0251  0.0062 -0.1040
  954loPI    C214922  11.507   6.788   5.882 -0.0386  0.1424  0.0998
  954loPI    C314923  11.624   6.789   5.499 -0.0732 -0.1547  0.0866
  954loPI   PO414924  11.281   7.218   5.858  0.1547 -0.1074 -0.1475
  954loPI   GL114925  11.490   7.147   6.246  0.1379  0.0431  0.3492
  954loPI   GL214926  11.407   7.522   6.339 -0.0316  0.0403  0.0105
  954loPI   C1A14927  11.611   7.223   6.699 -0.1317  0.1107 -0.0532
  954loPI   C2A14928  11.578   7.225   7.108  0.1448  0.0404  0.0257
  954loPI   C3A14929  11.577   7.227   7.426 -0.1049 -0.2239  0.1963
  954loPI   C4A14930  11.591   7.196   7.933  0.0921  0.2184  0.2746
  954loPI   C5A14931  11.640   7.241   8.425  0.0755 -0.0006  0.1472
  954loPI   C6A14932  11.458   7.502   8.645 -0.2296  0.3058  0.0577
  954loPI   C1B14933  11.280   7.594   6.745  0.3114  0.0994  0.0213
  954loPI   C2B14934  11.191   7.527   7.180 -0.0718 -0.2799 -0.1088
  954loPI   C3B14935  11.218   7.539   7.578  0.0637  0.2934 -0.2564
  954loPI   C4B14936  11.187   7.578   8.056 -0.2557  0.0210  0.1430
  955loPI    C114937   5.406   1.538   5.729 -0.0626  0.1437 -0.0004
  955loPI    C214938   5.510   1.386   5.373 -0.0351  0.1747 -0.0056
  955loPI    C314939   5.154   1.297   5.533  0.0885 -0.1126  0.1161
  955loPI   PO414940   5.569   1.546   5.927 -0.0743  0.1327 -0.2569
  955loPI   GL114941   5.553   1.822   6.219  0.0076 -0.1085  0.0592
  955loPI   GL214942   5.609   2.165   6.192  0.1615 -0.1087 -0.0229
  955loPI   C1A14943   5.526   1.769   6.686  0.0279  0.0032  0.4165
  955loPI   C2A14944   5.523   1.730   7.110  0.3140  0.3075  0.0325
  955loPI   C3A14945   5.547   1.728   7.603  0.1407 -0.0937  0.3914
  955loPI   C4A14946   5.549   1.742   7.987 -0.1336  0.0668 -0.2853
  955loPI   C5A14947   5.281   1.841   8.318  0.0564 -0.0533  0.0381
  955loPI   C6A14948   4.987   2.139   8.463 -0.4072  0.4023 -0.0846
  955loPI   C1B14949   5.530   2.292   6.600  0.3841 -0.1249 -0.2362
  955loPI   C2B14950   5.648   2.265   7.000 -0.0290  0.2104  0.0962
  955loPI   C3B14951   5.552   2.224   7.435  0.1473  0.0555  0.0184
  955loPI   C4B14952   5.661   2.406   7.722 -0.2666 -0.2761 -0.0809
  956loPI    C114953   5.952  14.326   5.400 -0.1133  0.1291 -0.1983
  956loPI    C214954   6.045  14.031   5.146 -0.2250 -0.0166 -0.0719
  956loPI    C314955   5.988  14.403   5.009 -0.0021 -0.0357 -0.2213
  956loPI   PO414956   6.134  14.321   5.584 -0.0078  0.2138  0.1974
  956loPI   GL114957   6.165  14.481   5.941  0.0315  0.0018 -0.2832
  956loPI   GL214958   6.383  14.541   6.242  0.0590  0.0554  0.0127
  956loPI   C1A14959   5.954  14.327   6.289  0.0752  0.0029 -0.0697
  956loPI   C2A14960   5.892  14.291   6.727 -0.0117  0.0072  0.1641
  956loPI   C3A14961   5.874  14.418   7.064  0.0077  0.1561 -0.0194
  956loPI   C4A14962   5.999  14.387   7.495 -0.3119 -0.0631 -0.0003
  956loPI   C5A14963   5.935  14.316   7.888 -0.5968  0.0641 -0.0383
  956loPI   C6A14964   5.712  14.390   8.316 -0.0597  0.0704 -0.1454
  956loPI   C1B14965   6.497  14.515   6.638  0.1669  0.0471  0.1362
  956loPI   C2B14966   6.340  14.556   7.020  0.1058  0.3454  0.0812
  956loPI   C3B14967   6.458  14.527   7.371  0.1529 -0.0844  0.0408
  956loPI   C4B14968   6.424  14.508   7.825  0.0599 -0.1742  0.1213
  957loPI    C114969  16.897   2.464   5.803  0.0503  0.0195 -0.1990
  957loPI    C214970  16.573   2.483   5.568 -0.1186  0.0852  0.0353
  957loPI    C314971  16.844   2.777   5.560 -0.0046 -0.0239 -0.2434
  957loPI   PO414972  16.791   2.381   6.039 -0.1053 -0.1272 -0.1763
  957loPI   GL114973  16.811   2.588   6.450 -0.0001  0.3713 -0.0645
  957loPI   GL214974  17.029   2.416   6.591  0.3312  0.0888 -0.0670
  957loPI   C1A14975  16.546   2.309   6.768  0.0064  0.1838 -0.0033
  957loPI   C2A14976  16.582   2.222   7.197  0.1311 -0.0929 -0.1059
  957loPI   C3A14977  16.553   2.290   7.625  0.1146 -0.1615  0.2554
  957loPI   C4A14978  16.570   2.175   8.108  0.0744  0.4411  0.0393
  957loPI   C5A14979  16.569   2.135   8.484  0.0088 -0.1405 -0.4397
  957loPI   C6A14980  16.898   1.797   8.540 -0.1468  0.1250  0.2785
  957loPI   C1B14981  16.910   2.555   7.022 -0.2880  0.0757  0.3176
  957loPI   C2B14982  17.003   2.445   7.471 -0.1876 -0.0504 -0.0108
  957loPI   C3B14983  16.982   2.392   7.914  0.1039 -0.0692 -0.0393
  957loPI   C4B14984  17.005   2.310   8.346  0.0514 -0.0882 -0.1802
  958loPI    C114985   0.202   0.798   5.983 -0.1351 -0.2132 -0.0365
  958loPI    C214986  -0.100   1.059   5.957  0.1360  0.1223  0.1033
  958loPI    C314987  -0.031   0.803   5.658 -0.3434 -0.0276  0.1126
  958loPI   PO414988   0.212   0.760   6.201 -0.0943 -0.0039  0.2510
  958loPI   GL114989   0.237   0.798   6.637  0.0962 -0.1062  0.0146
  958loPI   GL214990  -0.098   0.719   6.609 -0.0588 -0.1980  0.0426
  958loPI   C1A14991   0.410   0.890   7.109  0.2515  0.1316  0.2274
  958loPI   C2A14992   0.322   0.868   7.555  0.0013  0.1216  0.1479
  958loPI   C3A14993   0.447   0.863   8.005  0.1073 -0.0021  0.1169
  958loPI   C4A14994   0.467   0.819   8.458  0.0301 -0.0902 -0.0825
  958loPI   C5A14995   0.507   0.923   8.881 -0.3977  0.0020  0.0326
  958loPI   C6A14996   0.341   1.082   9.251  0.2987 -0.1435  0.0727
  958loPI   C1B14997  -0.087   0.733   7.044  0.0174  0.1296  0.2994
  958loPI   C2B14998  -0.154   0.712   7.518 -0.1820  0.0000  0.2910
  958loPI   C3B14999  -0.164   0.713   7.920 -0.0844 -0.0913  0.0788
  958loPI   C4B15000  -0.083   0.790   8.354  0.0412 -0.1268  0.4277
  959loPI    C115001   2.903  15.096   5.662  0.0190  0.1073 -0.0870
  959loPI    C215002   2.655  14.933   5.394 -0.0144 -0.1045  0.0701
  959loPI    C315003   3.049  14.934   5.326 -0.0376  0.0180 -0.0688
  959loPI   PO415004   2.837  15.087   5.912  0.3620 -0.0028 -0.1220
  959loPI   GL115005   2.636  15.270   6.191 -0.1030  0.0091  0.4120
  959loPI   GL215006   2.335  15.337   6.145  0.1714  0.1967  0.3361
  959loPI   C1A15007   2.790  15.206   6.600 -0.0826 -0.0246  0.0718
  959loPI   C2A15008   2.844  15.214   7.035  0.0307 -0.1202  0.0164
  959loPI   C3A15009   2.907  15.222   7.417  0.0205  0.0653  0.1395
  959loPI   C4A15010   2.930  15.147   7.749 -0.2950 -0.0516 -0.0609
  959loPI   C5A15011   2.858  15.225   8.166  0.1779  0.1184  0.1195
  959loPI   C6A15012   2.739  15.209   8.642  0.1104  0.0003  0.0017
  959loPI   C1B15013   2.408  15.486   6.592 -0.0563 -0.0063  0.0311
  959loPI   C2B15014   2.426  15.484   6.967 -0.0911  0.1459  0.1268
  959loPI   C3B15015   2.479  15.541   7.378  0.1445  0.0229  0.0823
  959loPI   C4B15016   2.552  15.478   7.885 -0.1994 -0.0512  0.3095
  960loPI    C115017   1.759   7.390   5.340 -0.0148  0.0239 -0.0760
  960loPI    C215018   2.101   7.575   5.246  0.0435  0.0306  0.1418
  960loPI    C315019   1.889   7.389   4.962  0.3207 -0.1288  0.0354
  960loPI   PO415020   1.774   7.171   5.636  0.0925 -0.2914  0.3487
  960loPI   GL115021   1.831   6.937   6.048  0.1229  0.0775 -0.1312
  960loPI   GL215022   1.654   7.247   6.166 -0.2477 -0.0851 -0.0668
  960loPI   C1A15023   1.724   6.715   6.451 -0.0673 -0.0910  0.0168
  960loPI   C2A15024   1.680   6.634   6.837  0.1319 -0.1735 -0.2582
  960loPI   C3A15025   1.720   6.647   7.338 -0.3057  0.0386  0.1382
  960loPI   C4A15026   1.772   6.649   7.764  0.2049 -0.1667 -0.1177
  960loPI   C5A15027   1.915   6.801   8.196 -0.2869 -0.0467  0.1149
  960loPI   C6A15028   1.971   6.730   8.604  0.0297 -0.1046  0.1154
  960loPI   C1B15029   1.852   7.209   6.640 -0.3609  0.0767  0.0164
  960loPI   C2B15030   1.763   7.097   7.044  0.1223  0.3239  0.2291
  960loPI   C3B15031   1.847   7.154   7.393 -0.0057  0.1231 -0.2809
  960loPI   C4B15032   1.794   7.155   7.832 -0.2535  0.0356 -0.1415
  961loPI    C115033   1.659  15.157   5.413  0.1246 -0.0258 -0.1554
  961loPI    C215034   1.651  15.448   5.138 -0.0725 -0.0044 -0.1281
  961loPI    C315035   1.792  15.086   5.042  0.0692  0.0673 -0.1934
  961loPI   PO415036   1.507  15.239   5.610 -0.0909  0.4457  0.1010
  961loPI   GL115037   1.682  15.218   5.980 -0.0917  0.0205  0.1509
  961loPI   GL215038   1.451  15.156   6.184  0.0595 -0.1838  0.1223
  961loPI   C1A15039   1.929  15.373   6.407  0.0605 -0.1887 -0.1951
  961loPI   C2A15040   1.921  15.329   6.852  0.2689  0.0739  0.2256
  961loPI   C3A15041   1.976  15.375   7.290  0.4162  0.0652 -0.0502
  961loPI   C4A15042   2.003  15.361   7.786  0.2632  0.1158 -0.3378
  961loPI   C5A15043   2.103  15.196   8.171  0.1238  0.0171  0.1242
  961loPI   C6A15044   2.127  15.161   8.613  0.2361  0.0782 -0.1073
  961loPI   C1B15045   1.472  15.260   6.589 -0.0302  0.0391  0.1571
  961loPI   C2B15046   1.488  15.217   6.972 -0.2612  0.4502 -0.2266
  961loPI   C3B15047   1.549  15.181   7.355 -0.1644 -0.1318 -0.2057
  961loPI   C4B15048   1.544  15.193   7.834 -0.0674 -0.0411 -0.0170
  962loPI    C115049  14.861   8.419   5.525 -0.2224  0.2436 -0.1693
  962loPI    C215050  15.093   8.203   5.281  0.0006  0.0237  0.2263
  962loPI    C315051  15.126   8.602   5.288  0.1824  0.0125  0.0925
  962loPI   PO415052  14.946   8.268   5.812  0.1360 -0.4073 -0.1425
  962loPI   GL115053  14.951   7.966   6.161  0.0563  0.0794 -0.2281
  962loPI   GL215054  14.989   7.697   6.104 -0.0808 -0.1638  0.0087
  962loPI   C1A15055  14.816   8.066   6.590  0.0397  0.0916  0.3012
  962loPI   C2A15056  14.921   7.954   7.052 -0.1865 -0.0171  0.4604
  962loPI   C3A15057  15.025   7.902   7.502 -0.0832  0.3667 -0.3319
  962loPI   C4A15058  15.023   7.915   7.926 -0.0753 -0.1531  0.2293
  962loPI   C5A15059  15.017   7.735   8.244  0.2813  0.1448  0.2828
  962loPI   C6A15060  15.012   7.336   8.344  0.1296 -0.0039 -0.1120
  962loPI   C1B15061  14.912   7.546   6.461  0.0857 -0.1373  0.2082
  962loPI   C2B15062  14.794   7.517   6.852  0.1625  0.1109  0.1060
  962loPI   C3B15063  14.864   7.450   7.322  0.0383 -0.1837  0.0338
  962loPI   C4B15064  14.925   7.422   7.751 -0.0293 -0.1691 -0.1524
  963loPI    C115065   1.268   0.093   5.671 -0.2586  0.1952  0.1062
  963loPI    C215066   1.410   0.439   5.529 -0.0196 -0.0075 -0.1610
  963loPI    C315067   1.280   0.158   5.277 -0.0588 -0.1782  0.0468
  963loPI   PO415068   1.354   0.125   5.938 -0.2944 -0.0933  0.3704
  963loPI   GL115069   1.436   0.025   6.264 -0.0790  0.0788 -0.0471
  963loPI   GL215070   1.241   0.254   6.408  0.0820 -0.1835  0.3676
  963loPI   C1A15071   1.443  -0.074   6.703 -0.0902 -0.1500 -0.0527
  963loPI   C2A15072   1.430  -0.182   7.081  0.0080  0.0800 -0.1317
  963loPI   C3A15073   1.520  -0.166   7.485  0.1144 -0.0977  0.1654
  963loPI   C4A15074   1.509  -0.147   7.919 -0.1842  0.1251  0.0401
  963loPI   C5A15075   1.466  -0.148   8.374 -0.1277  0.0672 -0.0465
  963loPI   C6A15076   1.555  -0.409   8.788 -0.0297  0.0744  0.1137
  963loPI   C1B15077   1.072   0.234   6.805  0.0922 -0.1583  0.0799
  963loPI   C2B15078   1.070   0.236   7.266 -0.1685  0.1102  0.1141
  963loPI   C3B15079   1.176   0.251   7.672  0.1135  0.2556  0.2435
  963loPI   C4B15080   1.151   0.242   8.181 -0.0788 -0.2295  0.0903
  964loPI    C115081   6.299  10.660   5.807 -0.1672 -0.0240 -0.2587
  964loPI    C215082   6.564  10.754   5.523 -0.0220  0.3677 -0.0020
  964loPI    C315083   6.183  10.870   5.488 -0.1267 -0.0380 -0.2827
  964loPI   PO415084   6.368  10.697   5.990 -0.0973  0.1121  0.1268
  964loPI   GL115085   6.552  10.679   6.330  0.0547 -0.2688  0.1547
  964loPI   GL215086   6.460  10.391   6.378 -0.0669  0.0631  0.1366
  964loPI   C1A15087   6.715  10.698   6.714 -0.1212 -0.1369  0.1791
  964loPI   C2A15088   6.829  10.719   7.148  0.5269 -0.1880 -0.2296
  964loPI   C3A15089   6.675  10.782   7.589 -0.0695  0.2591 -0.1414
  964loPI   C4A15090   6.523  10.783   8.045  0.0901 -0.1867  0.3262
  964loPI   C5A15091   6.428  10.730   8.446 -0.4622 -0.3674 -0.1492
  964loPI   C6A15092   6.223  10.668   8.797 -0.0126  0.1076  0.0914
  964loPI   C1B15093   6.523  10.223   6.851  0.2363  0.2498  0.1842
  964loPI   C2B15094   6.641  10.246   7.234 -0.3093 -0.0167 -0.1296
  964loPI   C3B15095   6.685  10.151   7.646  0.3410  0.0439 -0.0891
  964loPI   C4B15096   6.632  10.320   8.019  0.0537  0.1629  0.1393
  965loPI    C115097   9.320   4.062   5.399 -0.1948 -0.2016 -0.1322
  965loPI    C215098   9.546   4.263   5.137  0.1133 -0.4045 -0.0275
  965loPI    C315099   9.277   3.997   5.007  0.0424 -0.2746 -0.1480
  965loPI   PO415100   9.395   4.161   5.619  0.1423 -0.3148  0.0789
  965loPI   GL115101   9.382   4.179   6.001  0.0243  0.0708  0.2770
  965loPI   GL215102   9.322   4.458   6.050  0.1212  0.2003 -0.2097
  965loPI   C1A15103   9.198   4.100   6.418  0.0777 -0.0084  0.0266
  965loPI   C2A15104   9.074   4.071   6.840 -0.0803 -0.0681  0.1465
  965loPI   C3A15105   9.157   4.084   7.276 -0.0464 -0.0973 -0.1489
  965loPI   C4A15106   9.130   4.050   7.775 -0.1184  0.6502 -0.1816
  965loPI   C5A15107   9.127   4.291   8.270 -0.1685  0.0752 -0.0801
  965loPI   C6A15108   9.289   4.344   8.701 -0.2556 -0.0530  0.1096
  965loPI   C1B15109   9.163   4.578   6.501 -0.1850  0.0590 -0.1967
  965loPI   C2B15110   9.236   4.532   6.897 -0.2154 -0.1368 -0.1217
  965loPI   C3B15111   9.185   4.591   7.312 -0.0566  0.0934 -0.2038
  965loPI   C4B15112   9.263   4.512   7.776  0.0011 -0.0672  0.0990
  966loPI    C115113  17.124   1.020   5.373 -0.2060 -0.0318  0.0201
  966loPI    C215114  17.441   0.853   5.197 -0.0886  0.2129 -0.0051
  966loPI    C315115  17.077   0.810   5.036 -0.0688 -0.0604  0.0184
  966loPI   PO415116  17.141   0.950   5.637 -0.1433  0.2004 -0.2056
  966loPI   GL115117  17.056   1.098   6.076  0.1799  0.1956 -0.0421
  966loPI   GL215118  16.789   1.031   6.271 -0.0843 -0.1197 -0.1011
  966loPI   C1A15119  17.239   1.100   6.472 -0.0555 -0.1353  0.0470
  966loPI   C2A15120  17.140   1.054   6.867 -0.1301 -0.0201  0.0467
  966loPI   C3A15121  17.191   1.027   7.333  0.0154 -0.0679 -0.3398
  966loPI   C4A15122  17.143   1.072   7.734  0.0203  0.0265  0.1977
  966loPI   C5A15123  17.231   1.119   8.156  0.2133  0.0851 -0.1135
  966loPI   C6A15124  17.266   1.499   8.418 -0.4693 -0.1574  0.0294
  966loPI   C1B15125  16.585   0.961   6.685  0.0641  0.2280 -0.2090
  966loPI   C2B15126  16.675   0.881   7.107 -0.1833 -0.0834  0.1318
  966loPI   C3B15127  16.662   0.910   7.553 -0.0183  0.0042 -0.1309
  966loPI   C4B15128  16.766   0.888   8.022  0.1588 -0.1335  0.0669
  967loPI    C115129  16.403  10.762   5.486  0.2040 -0.1140 -0.0089
  967loPI    C215130  16.046  10.652   5.343  0.2359 -0.1924 -0.0294
  967loPI    C315131  16.307  10.843   5.106  0.1768 -0.0635  0.0087
  967loPI   PO415132  16.425  10.517   5.671 -0.0818 -0.1453 -0.4758
  967loPI   GL115133  16.582  10.357   6.065 -0.1331  0.3609  0.0122
  967loPI   GL215134  16.284  10.424   6.098  0.2829  0.4673  0.0508
  967loPI   C1A15135  16.827  10.012   6.258 -0.1228  0.1078 -0.1053
  967loPI   C2A15136  16.830   9.994   6.652 -0.2225  0.1334 -0.2297
  967loPI   C3A15137  16.761  10.043   7.078  0.0369  0.2042  0.0056
  967loPI   C4A15138  16.774   9.974   7.463  0.0589  0.0868  0.2382
  967loPI   C5A15139  16.732  10.015   7.910  0.0201 -0.0838 -0.0023
  967loPI   C6A15140  17.028   9.825   8.186  0.0567  0.0119 -0.2109
  967loPI   C1B15141  16.396  10.371   6.511  0.1330  0.2120 -0.3907
  967loPI   C2B15142  16.347  10.349   6.971 -0.1637  0.1050 -0.1347
  967loPI   C3B15143  16.325  10.332   7.453  0.1325 -0.2103  0.1176
  967loPI   C4B15144  16.302  10.441   7.886 -0.4622 -0.1779  0.2526
  968loPI    C115145  15.007  13.307   5.741  0.0753 -0.0824  0.0266
  968loPI    C215146  15.187  13.332   5.384  0.1240 -0.0950  0.0502
  968loPI    C315147  14.851  13.118   5.424  0.0621 -0.0100 -0.0102
  968loPI   PO415148  15.223  13.211   5.892 -0.0381 -0.0222 -0.1565
  968loPI   GL115149  15.438  13.220   6.221  0.0164  0.0905  0.1105
  968loPI   GL215150  15.204  13.442   6.399 -0.1344  0.0002 -0.0233
  968loPI   C1A15151  15.526  12.962   6.575 -0.0371  0.0359 -0.0385
  968loPI   C2A15152  15.618  12.925   7.000  0.1353 -0.1025  0.2326
  968loPI   C3A15153  15.592  12.872   7.483  0.2054 -0.2585  0.1985
  968loPI   C4A15154  15.564  12.907   7.926  0.0857  0.1270 -0.2965
  968loPI   C5A15155  15.520  13.170   8.320 -0.2054 -0.0139 -0.1660
  968loPI   C6A15156  15.277  13.179   8.643 -0.0492  0.1284 -0.2590
  968loPI   C1B15157  15.199  13.243   6.861  0.0057  0.3642  0.1176
  968loPI   C2B15158  15.203  13.181   7.387 -0.2809  0.1587 -0.0652
  968loPI   C3B15159  15.191  13.184   7.879  0.0456 -0.0564 -0.0563
  968loPI   C4B15160  14.972  13.267   8.291  0.2463  0.1005  0.0973
  969loPI    C115161   6.426   6.286   5.705 -0.1247  0.3833 -0.0646
  969loPI    C215162   6.060   6.297   5.545 -0.1068 -0.0135 -0.1439
  969loPI    C315163   6.381   6.284   5.307 -0.0599 -0.1093 -0.0758
  969loPI   PO415164   6.421   6.448   5.943  0.1912  0.0990  0.1343
  969loPI   GL115165   6.385   6.729   6.242  0.0264  0.0734  0.0215
  969loPI   GL215166   6.650   6.624   6.422  0.1830 -0.0043 -0.4679
  969loPI   C1A15167   6.386   6.948   6.600  0.0468  0.0230 -0.2903
  969loPI   C2A15168   6.330   6.876   6.964 -0.1620  0.1577 -0.1527
  969loPI   C3A15169   6.444   6.887   7.379 -0.1344  0.2430 -0.0167
  969loPI   C4A15170   6.364   6.970   7.813  0.2699  0.1374  0.1781
  969loPI   C5A15171   6.362   6.769   8.277  0.0355  0.3815 -0.1653
  969loPI   C6A15172   6.632   6.720   8.665 -0.0403 -0.0252 -0.1392
  969loPI   C1B15173   6.714   6.599   6.821 -0.2347  0.0137 -0.1792
  969loPI   C2B15174   6.799   6.575   7.303  0.0526  0.2676 -0.1541
  969loPI   C3B15175   6.797   6.493   7.809  0.2884 -0.1175 -0.0891
  969loPI   C4B15176   6.755   6.334   8.295 -0.1274  0.0599 -0.0760
  970loPI    C115177  11.922  13.119   5.505 -0.0491 -0.2071  0.1132
  970loPI    C215178  12.198  12.916   5.298 -0.0592 -0.0810 -0.0258
  970loPI    C315179  11.819  12.927   5.170 -0.0598  0.0210 -0.0167
  970loPI   PO415180  11.982  13.062   5.737 -0.0037  0.1165 -0.5141
  970loPI   GL115181  11.745  13.203   6.057  0.1768  0.1333  0.0042
  970loPI   GL215182  12.080  13.452   6.221 -0.0526  0.1290 -0.0966
  970loPI   C1A15183  11.764  13.134   6.513 -0.2631 -0.1364 -0.0703
  970loPI   C2A15184  11.746  13.064   6.975 -0.1751 -0.1286  0.0317
  970loPI   C3A15185  11.848  13.040   7.414  0.1367 -0.0423  0.0845
  970loPI   C4A15186  11.994  13.004   7.838 -0.0263  0.1092 -0.0111
  970loPI   C5A15187  12.296  13.204   8.097  0.0823 -0.0372 -0.2019
  970loPI   C6A15188  12.237  13.458   8.399 -0.0267 -0.1389  0.3082
  970loPI   C1B15189  11.913  13.583   6.656  0.2225 -0.0659  0.1561
  970loPI   C2B15190  11.883  13.549   7.101  0.1184  0.0070  0.0902
  970loPI   C3B15191  11.906  13.513   7.539 -0.0916  0.1431 -0.2840
  970loPI   C4B15192  11.845  13.531   7.983  0.1172  0.0692 -0.1347
  971loPI    C115193   8.745   0.084   5.564 -0.0799  0.1648 -0.2064
  971loPI    C215194   8.967  -0.151   5.329 -0.0908 -0.2048  0.1434
  971loPI    C315195   8.590  -0.065   5.226  0.0174 -0.0672 -0.1499
  971loPI   PO415196   8.836  -0.015   5.855 -0.0811 -0.1899 -0.2174
  971loPI   GL115197   8.680  -0.348   6.117 -0.2440  0.0236 -0.0347
  971loPI   GL215198   8.366  -0.203   6.178 -0.0131 -0.2556  0.3531
  971loPI   C1A15199   8.777  -0.384   6.480 -0.3048 -0.2098  0.1292
  971loPI   C2A15200   8.743  -0.489   6.892 -0.1124 -0.1125  0.1450
  971loPI   C3A15201   8.792  -0.520   7.404 -0.1789  0.1032 -0.1744
  971loPI   C4A15202   8.819  -0.458   7.884 -0.1719 -0.0534 -0.0191
  971loPI   C5A15203   8.668  -0.358   8.223  0.0679 -0.1291  0.0487
  971loPI   C6A15204   8.573  -0.177   8.610  0.3270 -0.1849  0.0224
  971loPI   C1B15205   8.348  -0.142   6.544  0.1513 -0.2584 -0.2146
  971loPI   C2B15206   8.358  -0.039   6.902  0.2499 -0.1510 -0.2538
  971loPI   C3B15207   8.414  -0.108   7.322  0.2103  0.0233 -0.1488
  971loPI   C4B15208   8.514  -0.140   7.824  0.3628  0.3485 -0.0806
  972loPI    C115209   9.884   5.148   5.459 -0.1905 -0.2206 -0.0507
  972loPI    C215210  10.206   5.077   5.233 -0.1055 -0.3506  0.1084
  972loPI    C315211   9.854   5.160   5.060  0.0097 -0.2174 -0.0662
  972loPI   PO415212  10.006   4.969   5.695 -0.3791  0.1106 -0.3124
  972loPI   GL115213   9.860   5.031   6.003 -0.4292  0.2295 -0.2716
  972loPI   GL215214   9.660   4.817   6.169 -0.3727 -0.2129 -0.0860
  972loPI   C1A15215   9.774   5.262   6.367 -0.0619  0.0296  0.1574
  972loPI   C2A15216   9.739   5.239   6.800 -0.0233  0.0139 -0.3090
  972loPI   C3A15217   9.811   5.198   7.247  0.3132  0.0414  0.0697
  972loPI   C4A15218   9.824   5.162   7.652  0.2402 -0.2815 -0.1915
  972loPI   C5A15219   9.721   5.145   8.098 -0.3397 -0.1033  0.0481
  972loPI   C6A15220   9.762   5.111   8.503  0.2052  0.0561 -0.1608
  972loPI   C1B15221   9.694   4.753   6.632 -0.2018  0.0864  0.0897
  972loPI   C2B15222   9.719   4.759   7.069 -0.1987  0.0867 -0.0666
  972loPI   C3B15223   9.746   4.681   7.511  0.0862 -0.1867  0.0432
  972loPI   C4B15224   9.732   4.700   7.917  0.4000 -0.2879  0.1652
  973loPI    C115225   6.610  14.385   5.526 -0.0404  0.0593  0.0758
  973loPI    C215226   6.648  14.684   5.264  0.0051 -0.1022 -0.1046
  973loPI    C315227   6.452  14.352   5.160  0.0678 -0.1882  0.0494
  973loPI   PO415228   6.640  14.401   5.755 -0.2912  0.0200  0.3127
  973loPI   GL115229   6.516  14.076   6.002 -0.3419  0.1232 -0.0782
  973loPI   GL215230   6.792  14.203   6.284  0.1869  0.1378 -0.1801
  973loPI   C1A15231   6.361  14.097   6.441 -0.1155  0.0824  0.0832
  973loPI   C2A15232   6.243  14.049   6.908  0.2644 -0.3551 -0.0265
  973loPI   C3A15233   6.389  14.038   7.266 -0.1407 -0.1021  0.3987
  973loPI   C4A15234   6.386  14.015   7.645 -0.1402 -0.3256  0.2612
  973loPI   C5A15235   6.421  14.028   8.099  0.0457 -0.2328  0.2966
  973loPI   C6A15236   6.656  14.250   8.461  0.3907  0.4074  0.2329
  973loPI   C1B15237   6.846  14.143   6.714  0.0693  0.1693 -0.1801
  973loPI   C2B15238   6.884  14.248   7.163  0.1348 -0.3726  0.2246
  973loPI   C3B15239   6.872  14.204   7.548  0.1770 -0.0189 -0.0615
  973loPI   C4B15240   6.886  14.241   7.937 -0.0274  0.1911  0.0234
  974loPI    C115241   4.947   7.395   5.527 -0.1093 -0.1628 -0.0351
  974loPI    C215242   5.324   7.286   5.450 -0.0382  0.0139  0.0563
  974loPI    C315243   5.188   7.641   5.324 -0.1011  0.0520  0.2285
  974loPI   PO415244   4.797   7.451   5.838 -0.5010  0.0795  0.2812
  974loPI   GL115245   4.838   7.231   6.228  0.0118  0.3281  0.1211
  974loPI   GL215246   5.122   7.046   6.229  0.1171  0.1005 -0.1584
  974loPI   C1A15247   4.564   7.250   6.504 -0.2131 -0.0799 -0.0657
  974loPI   C2A15248   4.652   7.239   6.853  0.0365 -0.2769 -0.0706
  974loPI   C3A15249   4.575   7.154   7.331  0.0944 -0.1690 -0.0606
  974loPI   C4A15250   4.563   7.264   7.731  0.1591  0.3032  0.2318
  974loPI   C5A15251   4.554   7.275   8.122 -0.2033  0.1738  0.2756
  974loPI   C6A15252   4.770   7.244   8.583  0.2293 -0.3549 -0.1016
  974loPI   C1B15253   4.982   6.912   6.670  0.2255  0.1141  0.1226
  974loPI   C2B15254   4.930   6.852   7.061  0.0627 -0.0439  0.2373
  974loPI   C3B15255   4.965   6.867   7.423 -0.2552 -0.6277 -0.1709
  974loPI   C4B15256   4.919   6.993   7.934 -0.0104 -0.1587 -0.0178
  975loPI    C115257  17.634   4.680   5.672  0.0482 -0.2518 -0.1103
  975loPI    C215258  17.282   4.523   5.567  0.0834 -0.2992 -0.1579
  975loPI    C315259  17.591   4.507   5.314  0.0924 -0.1684 -0.1561
  975loPI   PO415260  17.549   4.857   5.896  0.1048  0.1790  0.1777
  975loPI   GL115261  17.801   4.858   6.293 -0.0300 -0.1582  0.4246
  975loPI   GL215262  17.569   4.759   6.495  0.0695  0.0016 -0.2922
  975loPI   C1A15263  17.918   5.101   6.647 -0.0036  0.4124 -0.1311
  975loPI   C2A15264  17.925   5.115   7.088 -0.1811  0.0658 -0.1020
  975loPI   C3A15265  17.858   5.063   7.498 -0.0758  0.3232 -0.1789
  975loPI   C4A15266  17.886   5.133   7.900 -0.3372  0.0158 -0.0013
  975loPI   C5A15267  17.770   5.038   8.341  0.1620 -0.2433 -0.0583
  975loPI   C6A15268  17.316   5.043   8.445 -0.1555 -0.3661  0.0309
  975loPI   C1B15269  17.695   4.596   6.809  0.1426 -0.0065 -0.2777
  975loPI   C2B15270  17.820   4.552   7.202  0.2587  0.0945  0.1522
  975loPI   C3B15271  17.751   4.572   7.591  0.0120  0.0632  0.0641
  975loPI   C4B15272  17.905   4.638   7.919 -0.1880  0.0295 -0.1510
  976loPI    C115273  14.096  12.807   5.705  0.0269 -0.2056 -0.0774
  976loPI    C215274  14.231  13.031   5.402 -0.1148  0.0571  0.0502
  976loPI    C315275  14.049  12.682   5.328  0.1206 -0.0257 -0.1497
  976loPI   PO415276  14.268  12.817   5.913  0.0434  0.0783 -0.0911
  976loPI   GL115277  14.435  13.104   6.247  0.0951 -0.0862  0.1260
  976loPI   GL215278  14.544  12.759   6.373  0.0905  0.2622  0.1110
  976loPI   C1A15279  14.734  13.112   6.630 -0.1352 -0.0062 -0.3993
  976loPI   C2A15280  14.820  13.053   7.157 -0.3674  0.1114  0.3969
  976loPI   C3A15281  14.730  13.023   7.551 -0.2191  0.0851  0.1966
  976loPI   C4A15282  14.689  13.036   8.030 -0.0520  0.1976 -0.0608
  976loPI   C5A15283  14.520  13.360   8.256  0.1906 -0.2201 -0.1399
  976loPI   C6A15284  14.432  13.685   8.461  0.1713  0.0789 -0.0661
  976loPI   C1B15285  14.537  12.731   6.816 -0.1031  0.0619 -0.2044
  976loPI   C2B15286  14.647  12.527   7.080 -0.1588  0.1234 -0.1734
  976loPI   C3B15287  14.641  12.534   7.487 -0.0476  0.2168 -0.1928
  976loPI   C4B15288  14.693  12.562   7.901 -0.0732 -0.4403 -0.1683
  977loPI    C115289   1.530  11.515   5.276  0.2009 -0.0304 -0.0237
  977loPI    C215290   1.567  11.774   4.974 -0.1417 -0.0105 -0.0526
  977loPI    C315291   1.664  11.390   4.920  0.1242  0.0591 -0.0845
  977loPI   PO415292   1.753  11.688   5.508  0.1644  0.2697  0.0984
  977loPI   GL115293   1.824  11.597   5.946  0.4554  0.1834 -0.3325
  977loPI   GL215294   1.436  11.757   5.945 -0.1362 -0.0464  0.1115
  977loPI   C1A15295   1.795  11.406   6.375 -0.2785  0.1214 -0.0287
  977loPI   C2A15296   1.723  11.374   6.777 -0.1456 -0.1601 -0.1001
  977loPI   C3A15297   1.699  11.432   7.351 -0.0821 -0.0666  0.1069
  977loPI   C4A15298   1.741  11.429   7.807  0.1608 -0.4721  0.2267
  977loPI   C5A15299   1.527  11.520   8.183 -0.1407  0.1473  0.1517
  977loPI   C6A15300   1.362  11.695   8.606 -0.0439 -0.2358  0.0959
  977loPI   C1B15301   1.502  11.827   6.328 -0.2813  0.1657 -0.2279
  977loPI   C2B15302   1.343  11.692   6.716  0.0051  0.1591 -0.3329
  977loPI   C3B15303   1.321  11.720   7.175 -0.0819  0.1184 -0.1047
  977loPI   C4B15304   1.333  11.705   7.639  0.1908 -0.2771 -0.1668
  978loPI    C115305  10.202   6.860   5.544  0.0309  0.2233  0.0328
  978loPI    C215306  10.417   7.012   5.243 -0.1427  0.3522 -0.0283
  978loPI    C315307  10.052   6.865   5.173 -0.0704  0.1200  0.0718
  978loPI   PO415308  10.309   7.019   5.794  0.1487 -0.1237  0.2649
  978loPI   GL115309  10.056   7.044   6.163 -0.1873  0.0661  0.0007
  978loPI   GL215310  10.050   6.661   6.035 -0.2487  0.0174  0.3108
  978loPI   C1A15311  10.189   7.086   6.610 -0.0930 -0.0714 -0.3666
  978loPI   C2A15312  10.264   7.248   7.057 -0.0062 -0.1176 -0.1887
  978loPI   C3A15313  10.213   7.257   7.473  0.2152 -0.1691 -0.2407
  978loPI   C4A15314  10.233   7.273   7.885  0.1788 -0.0705  0.0327
  978loPI   C5A15315  10.205   6.977   8.319 -0.1754  0.1377  0.0185
  978loPI   C6A15316  10.523   6.678   8.444 -0.0391 -0.0795  0.1426
  978loPI   C1B15317  10.037   6.601   6.474 -0.0332  0.2484  0.0437
  978loPI   C2B15318  10.031   6.684   6.875 -0.0289 -0.0817  0.0487
  978loPI   C3B15319  10.104   6.843   7.309  0.0512 -0.1297 -0.0607
  978loPI   C4B15320  10.076   6.713   7.814 -0.0060  0.0426 -0.2154
  979loPI    C115321   1.014   9.964   5.597  0.0793  0.1377  0.1653
  979loPI    C215322   1.038  10.315   5.406 -0.1111 -0.0373 -0.1917
  979loPI    C315323   1.329  10.044   5.363  0.0468  0.0813  0.1016
  979loPI   PO415324   0.784   9.894   5.632 -0.1880  0.1033  0.2566
  979loPI   GL115325   0.773   9.964   6.069 -0.1503 -0.0990  0.0855
  979loPI   GL215326   0.972   9.774   6.095  0.3523  0.1387 -0.0276
  979loPI   C1A15327   0.648  10.033   6.489  0.1575  0.1198  0.0348
  979loPI   C2A15328   0.568  10.046   6.924 -0.1371 -0.1334  0.0646
  979loPI   C3A15329   0.454   9.989   7.358 -0.0954 -0.1110 -0.1261
  979loPI   C4A15330   0.380  10.038   7.766 -0.0975 -0.1442 -0.2007
  979loPI   C5A15331   0.186   9.893   8.138  0.0410 -0.2757  0.0197
  979loPI   C6A15332  -0.214  10.065   8.310  0.2850  0.1007 -0.4921
  979loPI   C1B15333   1.000   9.714   6.461  0.0919 -0.0990 -0.3587
  979loPI   C2B15334   0.975   9.720   6.923  0.2056  0.1577 -0.1776
  979loPI   C3B15335   0.927   9.666   7.309 -0.1207  0.4101  0.0805
  979loPI   C4B15336   0.872   9.675   7.748 -0.0881  0.2444  0.3383
  980loPI    C115337   5.324  17.088   5.726 -0.4064  0.1548 -0.2343
  980loPI    C215338   5.241  17.476   5.672  0.1417  0.3138 -0.0014
  980loPI    C315339   5.571  17.317   5.510 -0.0740 -0.0577 -0.0875
  980loPI   PO415340   5.199  17.073   5.990  0.0326  0.0735 -0.0248
  980loPI   GL115341   4.976  16.960   6.328 -0.1085 -0.0659  0.2028
  980loPI   GL215342   4.774  17.185   6.358 -0.0844 -0.1738  0.2112
  980loPI   C1A15343   5.079  16.839   6.761 -0.2463 -0.2189 -0.0174
  980loPI   C2A15344   5.062  16.933   7.151 -0.0209  0.0066 -0.1376
  980loPI   C3A15345   5.091  16.882   7.563  0.2367 -0.0163 -0.2823
  980loPI   C4A15346   5.105  16.780   7.994 -0.1566  0.0244 -0.2541
  980loPI   C5A15347   5.149  16.759   8.395 -0.1125 -0.2649 -0.6655
  980loPI   C6A15348   5.293  16.507   8.756 -0.2580 -0.3801 -0.0037
  980loPI   C1B15349   4.720  17.150   6.788  0.0351 -0.1622 -0.3843
  980loPI   C2B15350   4.640  17.251   7.241 -0.3624  0.0705 -0.1135
  980loPI   C3B15351   4.634  17.188   7.734 -0.0423  0.2216 -0.0171
  980loPI   C4B15352   4.693  17.031   8.135  0.0470  0.0614  0.1280
  981loPI    C115353   6.924  17.073   5.372 -0.1663  0.0468  0.2253
  981loPI    C215354   6.663  17.328   5.206  0.1273  0.1076 -0.1582
  981loPI    C315355   6.590  16.935   5.201 -0.1005  0.1455  0.0133
  981loPI   PO415356   7.036  17.171   5.626  0.0637 -0.1838  0.1252
  981loPI   GL115357   6.990  17.225   6.018  0.0029 -0.1219  0.2819
  981loPI   GL215358   7.161  17.498   6.017 -0.2821 -0.0260  0.1224
  981loPI   C1A15359   6.905  17.115   6.424  0.2424  0.4246 -0.0626
  981loPI   C2A15360   6.931  17.080   6.908  0.0620 -0.3242  0.1102
  981loPI   C3A15361   6.945  17.085   7.279 -0.0517 -0.1395 -0.0409
  981loPI   C4A15362   6.984  17.076   7.789 -0.0588  0.3327  0.0330
  981loPI   C5A15363   6.910  17.024   8.296  0.0700 -0.2019  0.0810
  981loPI   C6A15364   6.618  17.064   8.669 -0.1342 -0.0150  0.0332
  981loPI   C1B15365   7.012  17.597   6.474 -0.0152 -0.1325  0.2336
  981loPI   C2B15366   7.024  17.553   6.921 -0.0805 -0.2390 -0.1635
  981loPI   C3B15367   7.031  17.573   7.280  0.2998 -0.1000 -0.0204
  981loPI   C4B15368   6.990  17.655   7.784 -0.2713 -0.1995  0.1170
  982loPI    C115369  10.305   1.628   5.501  0.0613  0.0619  0.0806
  982loPI    C215370  10.060   1.369   5.320 -0.1547  0.3198 -0.0018
  982loPI    C315371  10.321   1.582   5.104  0.2201 -0.0280  0.0967
  982loPI   PO415372  10.082   1.676   5.779  0.0355 -0.1710  0.0286
  982loPI   GL115373  10.061   1.554   6.232  0.2061 -0.1387 -0.2057
  982loPI   GL215374   9.932   1.148   6.319 -0.0452 -0.1818 -0.3418
  982loPI   C1A15375   9.941   1.547   6.628 -0.0110  0.0360 -0.0698
  982loPI   C2A15376  10.056   1.545   7.036 -0.0740  0.1538 -0.3661
  982loPI   C3A15377  10.064   1.482   7.565 -0.2774  0.0391  0.0868
  982loPI   C4A15378  10.038   1.459   8.050  0.1985  0.0087 -0.1091
  982loPI   C5A15379  10.007   1.670   8.437 -0.1193  0.1461 -0.0252
  982loPI   C6A15380  10.058   1.459   8.800 -0.0124  0.0930 -0.0035
  982loPI   C1B15381   9.856   0.978   6.719  0.2217 -0.1838 -0.2549
  982loPI   C2B15382   9.922   1.020   7.166 -0.2005 -0.2808  0.2549
  982loPI   C3B15383   9.938   0.987   7.614  0.0321 -0.0812 -0.0580
  982loPI   C4B15384   9.880   0.934   8.026 -0.3709 -0.0510  0.0178
  983loPI    C115385  10.738   5.689   5.431  0.0550  0.2361 -0.0712
  983loPI    C215386  10.734   5.330   5.255  0.0254  0.0557  0.2880
  983loPI    C315387  10.401   5.552   5.265  0.0317  0.0748  0.1062
  983loPI   PO415388  10.825   5.639   5.652 -0.3402  0.1384 -0.0099
  983loPI   GL115389  10.652   5.749   5.968  0.0840  0.1789 -0.0303
  983loPI   GL215390  10.990   5.851   6.156  0.0645  0.2314  0.2288
  983loPI   C1A15391  10.473   5.876   6.388  0.1017  0.1328  0.1356
  983loPI   C2A15392  10.486   5.885   6.755  0.1611 -0.1466 -0.0317
  983loPI   C3A15393  10.458   5.851   7.218 -0.2282  0.0225 -0.0513
  983loPI   C4A15394  10.372   5.842   7.661  0.0287 -0.2471  0.0531
  983loPI   C5A15395  10.442   5.930   8.066  0.0604 -0.0920 -0.3735
  983loPI   C6A15396  10.553   6.221   8.412  0.1083 -0.1400 -0.1528
  983loPI   C1B15397  10.993   5.977   6.573  0.0905 -0.4662 -0.1769
  983loPI   C2B15398  10.930   6.063   6.901  0.4251  0.0205 -0.0499
  983loPI   C3B15399  10.902   6.038   7.391 -0.1837  0.0796  0.2005
  983loPI   C4B15400  10.888   6.111   7.820 -0.3974 -0.0532 -0.0785
  984loPI    C115401  14.585   9.179   5.516  0.1136 -0.1991  0.0259
  984loPI    C215402  14.673   8.877   5.269  0.0149 -0.0940 -0.1395
  984loPI    C315403  14.430   9.171   5.148 -0.0017 -0.0197  0.0692
  984loPI   PO415404  14.540   9.071   5.727 -0.0789  0.0181 -0.2120
  984loPI   GL115405  14.679   9.047   6.138  0.1392 -0.2615  0.1214
  984loPI   GL215406  14.714   8.725   6.051 -0.0009  0.1563  0.2273
  984loPI   C1A15407  14.645   8.984   6.563  0.3499 -0.5917  0.0267
  984loPI   C2A15408  14.642   8.930   6.990  0.2599  0.2409  0.0450
  984loPI   C3A15409  14.621   8.893   7.310  0.0228  0.3223  0.0902
  984loPI   C4A15410  14.745   8.867   7.701 -0.1289  0.3368 -0.0719
  984loPI   C5A15411  14.862   8.788   8.133 -0.1604 -0.0602 -0.2193
  984loPI   C6A15412  15.100   8.478   8.335 -0.0020 -0.2535  0.1092
  984loPI   C1B15413  14.879   8.519   6.407 -0.0371 -0.2198  0.2339
  984loPI   C2B15414  14.984   8.602   6.911 -0.2406  0.0002  0.1800
  984loPI   C3B15415  15.170   8.426   7.329  0.1030  0.0301  0.4469
  984loPI   C4B15416  15.123   8.425   7.747  0.1667 -0.1412 -0.2744
  985loPI    C115417   4.239   5.237   5.760  0.2377 -0.4084  0.1616
  985loPI    C215418   4.001   5.009   5.533  0.1522 -0.2006  0.0395
  985loPI    C315419   4.370   5.100   5.407  0.0541  0.0323 -0.0859
  985loPI   PO415420   4.272   5.242   6.037  0.0759 -0.0922  0.0916
  985loPI   GL115421   4.346   4.994   6.251  0.0316  0.4274  0.3071
  985loPI   GL215422   4.214   5.271   6.543  0.0561  0.3002  0.1448
  985loPI   C1A15423   4.148   4.774   6.631  0.3537 -0.2663 -0.1715
  985loPI   C2A15424   4.047   4.673   6.970 -0.3040  0.1076  0.2821
  985loPI   C3A15425   4.210   4.699   7.323  0.0205 -0.2593 -0.1589
  985loPI   C4A15426   4.164   4.675   7.839  0.2532  0.0537 -0.1356
  985loPI   C5A15427   3.863   4.907   8.036  0.1142  0.1347  0.2010
  985loPI   C6A15428   3.742   4.977   8.468  0.2806 -0.1384 -0.0244
  985loPI   C1B15429   4.078   5.170   7.013  0.3898  0.1080  0.2720
  985loPI   C2B15430   4.285   5.191   7.381 -0.1551 -0.0245 -0.0724
  985loPI   C3B15431   4.227   5.182   7.832 -0.1962  0.0071  0.2466
  985loPI   C4B15432   4.327   5.017   8.159 -0.0042 -0.1394  0.0853
  986loPI    C115433  15.234  12.250   5.494  0.1120  0.2712  0.2937
  986loPI    C215434  15.368  12.545   5.259 -0.1185  0.2300  0.1074
  986loPI    C315435  14.980  12.449   5.259 -0.0557 -0.0341  0.2118
  986loPI   PO415436  15.306  12.287   5.706 -0.2504 -0.0441  0.3754
  986loPI   GL115437  15.266  12.153   6.128 -0.2619 -0.0455 -0.0838
  986loPI   GL215438  14.903  12.194   6.367 -0.4925 -0.1919 -0.0762
  986loPI   C1A15439  15.420  11.989   6.544 -0.2147  0.0993 -0.0316
  986loPI   C2A15440  15.371  11.900   6.965  0.0213  0.0260 -0.1674
  986loPI   C3A15441  15.302  11.831   7.357 -0.2016 -0.0474 -0.0541
  986loPI   C4A15442  15.368  11.883   7.776  0.3604  0.1598  0.3126
  986loPI   C5A15443  15.283  11.759   8.144  0.1773  0.0112 -0.2365
  986loPI   C6A15444  15.462  11.973   8.538  0.0339 -0.3490 -0.1396
  986loPI   C1B15445  14.945  12.172   6.743  0.0241  0.0322  0.0950
  986loPI   C2B15446  14.927  12.135   7.138 -0.0398 -0.1778 -0.0887
  986loPI   C3B15447  15.017  12.206   7.551  0.0821 -0.2446 -0.1198
  986loPI   C4B15448  15.003  12.220   8.022  0.0829  0.1342 -0.3809
  987loPI    C115449   1.719  13.516   5.565  0.1291  0.1215 -0.0678
  987loPI    C215450   2.114  13.559   5.514  0.1628 -0.2211 -0.1204
  987loPI    C315451   1.893  13.383   5.230 -0.0446  0.0494 -0.1307
  987loPI   PO415452   1.725  13.450   5.775 -0.0381  0.3753 -0.2228
  987loPI   GL115453   2.029  13.574   6.008 -0.2739  0.2020 -0.2763
  987loPI   GL215454   2.259  13.348   5.922  0.1158  0.0203  0.0179
  987loPI   C1A15455   2.070  13.469   6.362  0.2471  0.2277 -0.0121
  987loPI   C2A15456   2.137  13.413   6.853 -0.1167 -0.1064 -0.2702
  987loPI   C3A15457   2.038  13.479   7.294 -0.2471  0.1402 -0.0220
  987loPI   C4A15458   2.069  13.488   7.723  0.0659  0.1044 -0.0738
  987loPI   C5A15459   1.973  13.550   8.174  0.3676 -0.0817  0.3772
  987loPI   C6A15460   2.072  13.415   8.550 -0.0368 -0.2740  0.0046
  987loPI   C1B15461   2.523  13.173   6.318  0.2663 -0.2386 -0.0085
  987loPI   C2B15462   2.541  13.157   6.777  0.0555  0.1578  0.0088
  987loPI   C3B15463   2.570  13.213   7.180  0.1003  0.1848  0.0897
  987loPI   C4B15464   2.448  13.088   7.535  0.2548 -0.0944 -0.0071
  988loPI    C115465   4.568  16.387   5.435  0.4526 -0.1462  0.0483
  988loPI    C215466   4.773  16.644   5.207  0.1351  0.0195 -0.0566
  988loPI    C315467   4.524  16.381   5.037  0.0498  0.0074  0.0853
  988loPI   PO415468   4.660  16.465   5.714 -0.1661 -0.1616  0.1547
  988loPI   GL115469   4.586  16.567   6.111 -0.3073 -0.2596  0.3073
  988loPI   GL215470   4.411  16.816   6.204 -0.2799  0.0245 -0.2129
  988loPI   C1A15471   4.927  16.383   6.512 -0.0111  0.0914  0.3085
  988loPI   C2A15472   4.995  16.365   6.914 -0.2457  0.3276  0.4705
  988loPI   C3A15473   4.941  16.351   7.277  0.5934 -0.2651  0.1276
  988loPI   C4A15474   5.005  16.376   7.735  0.1988 -0.0457 -0.0369
  988loPI   C5A15475   5.081  16.262   8.087 -0.2326 -0.0143  0.0287
  988loPI   C6A15476   5.153  16.027   8.493 -0.0634  0.0665 -0.1446
  988loPI   C1B15477   4.539  16.652   6.578  0.0763  0.0397 -0.0893
  988loPI   C2B15478   4.574  16.602   7.020 -0.2290  0.0099  0.2842
  988loPI   C3B15479   4.598  16.771   7.441  0.3189  0.0312 -0.0349
  988loPI   C4B15480   4.583  16.627   7.909 -0.1265  0.0605  0.0497
  989loPI    C115481   0.729   1.808   5.998  0.3220 -0.1062 -0.1494
  989loPI    C215482   0.517   1.658   5.693  0.0135 -0.0141  0.0154
  989loPI    C315483   0.733   1.991   5.642 -0.1622  0.0888 -0.0624
  989loPI   PO415484   0.629   1.724   6.171  0.0733 -0.1336  0.2953
  989loPI   GL115485   0.587   1.486   6.618  0.1012  0.2259  0.0232
  989loPI   GL215486   0.835   1.699   6.620 -0.0922  0.1409 -0.0301
  989loPI   C1A15487   0.413   1.410   6.969  0.1044  0.1623 -0.1828
  989loPI   C2A15488   0.433   1.403   7.417  0.1279 -0.0383 -0.1696
  989loPI   C3A15489   0.541   1.342   7.836  0.3291 -0.1432 -0.0142
  989loPI   C4A15490   0.675   1.299   8.262  0.0128  0.0267  0.1508
  989loPI   C5A15491   0.641   1.453   8.714 -0.0662 -0.1061 -0.1066
  989loPI   C6A15492   0.695   1.753   8.971  0.0553  0.0539 -0.1115
  989loPI   C1B15493   0.626   1.868   6.954  0.2692  0.0112  0.0436
  989loPI   C2B15494   0.546   1.896   7.321  0.1016 -0.0326  0.1958
  989loPI   C3B15495   0.507   1.888   7.727  0.2081 -0.0837  0.0289
  989loPI   C4B15496   0.608   1.814   8.124  0.0184  0.0512  0.1176
  990loPI    C115497  15.557   2.868   5.493  0.1044 -0.0122  0.0112
  990loPI    C215498  15.535   3.267   5.475  0.1544 -0.0136 -0.0959
  990loPI    C315499  15.294   3.043   5.247 -0.1039 -0.0493  0.2052
  990loPI   PO415500  15.524   2.775   5.632 -0.2520 -0.2510 -0.1078
  990loPI   GL115501  15.763   2.678   6.105  0.3353 -0.0561  0.2468
  990loPI   GL215502  15.935   2.550   6.225  0.2504  0.2858 -0.2188
  990loPI   C1A15503  15.767   2.939   6.448  0.0376 -0.1997 -0.0732
  990loPI   C2A15504  15.757   3.005   6.814 -0.1031  0.0005 -0.0084
  990loPI   C3A15505  15.706   2.979   7.310 -0.0063 -0.2722  0.1720
  990loPI   C4A15506  15.665   3.056   7.638 -0.0576 -0.0004  0.1510
  990loPI   C5A15507  15.693   2.920   8.098 -0.2185  0.1738 -0.0734
  990loPI   C6A15508  15.723   2.555   8.317  0.1245  0.2063 -0.1140
  990loPI   C1B15509  16.164   2.598   6.653 -0.2503  0.2648  0.1640
  990loPI   C2B15510  16.203   2.607   7.085  0.1274  0.0040 -0.1485
  990loPI   C3B15511  16.168   2.620   7.461 -0.0740 -0.2623  0.0364
  990loPI   C4B15512  16.100   2.593   7.868  0.1022  0.3932 -0.2178
  991loPI    C115513   3.259  11.988   5.388 -0.0040 -0.2182  0.2780
  991loPI    C215514   3.426  12.145   5.060  0.0902 -0.0538  0.4028
  991loPI    C315515   3.294  11.767   5.056  0.1382 -0.0698  0.1928
  991loPI   PO415516   3.425  12.023   5.568  0.2982 -0.0449 -0.1676
  991loPI   GL115517   3.484  11.998   5.942  0.1036 -0.0616 -0.0432
  991loPI   GL215518   3.750  12.107   6.141 -0.0380 -0.0129  0.2091
  991loPI   C1A15519   3.268  11.967   6.319  0.2259 -0.1494 -0.0114
  991loPI   C2A15520   3.201  11.948   6.689  0.0159  0.0602  0.0383
  991loPI   C3A15521   3.212  11.958   7.079 -0.3191  0.2001  0.0142
  991loPI   C4A15522   3.179  11.922   7.553  0.1758 -0.1083 -0.1593
  991loPI   C5A15523   3.226  11.986   8.016 -0.3100 -0.0984  0.0556
  991loPI   C6A15524   3.040  12.139   8.457 -0.2067 -0.0707  0.0330
  991loPI   C1B15525   3.732  12.041   6.649  0.0451  0.0031  0.0762
  991loPI   C2B15526   3.764  12.096   7.121  0.0416  0.2097  0.0731
  991loPI   C3B15527   3.673  12.091   7.468  0.4014  0.0758 -0.1149
  991loPI   C4B15528   3.695  12.187   7.948  0.2699  0.3203  0.0773
  992loPI    C115529   5.871   2.416   5.546 -0.0232 -0.2490  0.1730
  992loPI    C215530   5.819   2.542   5.170  0.1054 -0.1371  0.1920
  992loPI    C315531   5.584   2.255   5.319 -0.1603  0.0467  0.1327
  992loPI   PO415532   5.826   2.599   5.671 -0.0749  0.1308  0.1695
  992loPI   GL115533   5.860   2.621   6.064 -0.1385 -0.1545 -0.0442
  992loPI   GL215534   5.604   2.635   6.149 -0.0351 -0.1651 -0.2014
  992loPI   C1A15535   5.961   2.459   6.483  0.1277 -0.0576 -0.1215
  992loPI   C2A15536   6.089   2.420   6.886 -0.0039 -0.3503 -0.1506
  992loPI   C3A15537   6.031   2.442   7.342  0.1483  0.3215 -0.1849
  992loPI   C4A15538   6.117   2.482   7.858 -0.2706 -0.0380 -0.0310
  992loPI   C5A15539   6.241   2.314   8.227 -0.1084 -0.3810  0.0913
  992loPI   C6A15540   6.472   2.363   8.666  0.1755 -0.2141  0.3160
  992loPI   C1B15541   5.635   2.806   6.495 -0.0507 -0.3699  0.0742
  992loPI   C2B15542   5.656   2.764   6.955  0.0275 -0.1088  0.0284
  992loPI   C3B15543   5.723   2.829   7.417  0.0674  0.4055 -0.0515
  992loPI   C4B15544   5.818   2.882   7.890 -0.1921 -0.1335  0.0969
  993loPI    C115545   9.148  12.242   5.520 -0.0483  0.1776  0.1434
  993loPI    C215546   8.832  12.263   5.276 -0.0411  0.1370  0.1305
  993loPI    C315547   9.200  12.332   5.134  0.0030 -0.2467  0.0462
  993loPI   PO415548   9.226  12.320   5.854  0.1745 -0.1518 -0.1050
  993loPI   GL115549   9.242  12.450   6.162 -0.1420  0.2905 -0.0603
  993loPI   GL215550   8.881  12.383   6.291  0.1239 -0.0047 -0.0558
  993loPI   C1A15551   9.455  12.554   6.424 -0.2426 -0.0368 -0.0152
  993loPI   C2A15552   9.423  12.581   6.866 -0.0987  0.0367  0.1180
  993loPI   C3A15553   9.343  12.618   7.334  0.2902  0.1869  0.3132
  993loPI   C4A15554   9.345  12.636   7.773  0.2132 -0.0272  0.0830
  993loPI   C5A15555   9.410  12.624   8.254 -0.1526 -0.0736  0.2198
  993loPI   C6A15556   9.541  12.504   8.604 -0.0642  0.2150 -0.0230
  993loPI   C1B15557   8.923  12.474   6.727  0.1309  0.3408 -0.2579
  993loPI   C2B15558   8.900  12.509   7.116  0.1606  0.0140  0.0474
  993loPI   C3B15559   8.941  12.472   7.566 -0.1699  0.0677  0.3827
  993loPI   C4B15560   8.841  12.476   7.968  0.2990 -0.2204  0.0339
  994loPI    C115561  13.152   1.013   5.789  0.2550  0.0472  0.1663
  994loPI    C215562  13.327   0.748   5.546  0.2394  0.1914 -0.0036
  994loPI    C315563  13.096   1.037   5.394 -0.0950  0.0440  0.2124
  994loPI   PO415564  13.037   0.905   6.006  0.0136 -0.5380  0.1684
  994loPI   GL115565  13.179   0.844   6.411  0.0688  0.3081 -0.0632
  994loPI   GL215566  13.073   1.119   6.600 -0.1091 -0.0396 -0.0048
  994loPI   C1A15567  13.400   0.795   6.849  0.1141  0.1061 -0.1129
  994loPI   C2A15568  13.426   0.795   7.253  0.4036  0.0214 -0.1559
  994loPI   C3A15569  13.460   0.828   7.741 -0.0493  0.3418 -0.2017
  994loPI   C4A15570  13.613   0.830   8.192 -0.0882  0.2309 -0.0442
  994loPI   C5A15571  13.564   0.824   8.650 -0.1146 -0.1436 -0.0666
  994loPI   C6A15572  13.856   1.040   8.938  0.0637  0.1008 -0.2010
  994loPI   C1B15573  13.037   1.184   7.110 -0.0244  0.0095 -0.0847
  994loPI   C2B15574  13.095   1.111   7.460  0.0033 -0.0595  0.2802
  994loPI   C3B15575  13.171   1.137   7.959  0.0654  0.1736  0.4059
  994loPI   C4B15576  13.238   1.086   8.377  0.0486 -0.0595  0.1953
  995loPI    C115577   0.783   4.060   5.855  0.1487  0.0815 -0.3174
  995loPI    C215578   0.416   4.056   5.697 -0.0041  0.0707  0.0286
  995loPI    C315579   0.669   3.756   5.621  0.0623  0.2491 -0.4956
  995loPI   PO415580   0.747   4.146   6.084  0.1053  0.0421  0.0311
  995loPI   GL115581   0.844   4.015   6.477  0.2948  0.0020  0.1299
  995loPI   GL215582   1.269   4.167   6.384  0.2554 -0.2945 -0.4018
  995loPI   C1A15583   0.949   3.893   6.899 -0.1538  0.0760 -0.2050
  995loPI   C2A15584   1.067   3.931   7.323  0.0646  0.0738  0.3966
  995loPI   C3A15585   1.031   3.917   7.756 -0.1000  0.0658  0.3243
  995loPI   C4A15586   0.961   3.871   8.133  0.1144 -0.0226  0.0279
  995loPI   C5A15587   1.161   3.815   8.497  0.2631  0.1030  0.4018
  995loPI   C6A15588   1.395   3.452   8.733 -0.1454  0.1747  0.2114
  995loPI   C1B15589   1.385   4.085   6.805  0.0456  0.1020 -0.0523
  995loPI   C2B15590   1.502   4.098   7.213 -0.0612 -0.1392  0.1692
  995loPI   C3B15591   1.498   4.024   7.596  0.2912  0.1830 -0.0778
  995loPI   C4B15592   1.439   4.033   8.007 -0.2325  0.2012 -0.0174
  996loPI    C115593   2.652  11.718   5.348  0.0254  0.1276 -0.0071
  996loPI    C215594   2.497  11.434   5.112  0.0491  0.0546  0.0648
  996loPI    C315595   2.827  11.630   4.999 -0.0842  0.1981 -0.0804
  996loPI   PO415596   2.719  11.570   5.536 -0.0124  0.4017 -0.2544
  996loPI   GL115597   2.604  11.532   5.889 -0.2632  0.2373 -0.1276
  996loPI   GL215598   2.505  11.279   6.001 -0.1943  0.0348 -0.0447
  996loPI   C1A15599   2.315  11.578   6.295 -0.1984 -0.2727 -0.0535
  996loPI   C2A15600   2.202  11.538   6.747  0.3521 -0.1201 -0.1510
  996loPI   C3A15601   2.230  11.546   7.167 -0.0160  0.0144 -0.0525
  996loPI   C4A15602   2.208  11.582   7.599  0.3450 -0.1468  0.2135
  996loPI   C5A15603   2.156  11.641   8.039 -0.2024  0.2805  0.0921
  996loPI   C6A15604   2.120  12.094   8.280  0.0664 -0.0006 -0.1256
  996loPI   C1B15605   2.541  11.199   6.479 -0.1217 -0.4894 -0.1377
  996loPI   C2B15606   2.561  11.205   6.906 -0.0652  0.0287  0.5675
  996loPI   C3B15607   2.581  11.248   7.297 -0.2485 -0.1715 -0.0390
  996loPI   C4B15608   2.637  11.286   7.707  0.4244 -0.0821 -0.2465
  997loPI    C115609  17.471  13.469   5.319  0.1301  0.4041  0.2442
  997loPI    C215610  17.796  13.294   5.164 -0.0206  0.2584  0.0881
  997loPI    C315611  17.499  13.414   4.923 -0.0639  0.4309  0.2256
  997loPI   PO415612  17.562  13.650   5.593 -0.3443 -0.0923  0.1009
  997loPI   GL115613  17.450  13.425   5.921  0.1961 -0.2291  0.1992
  997loPI   GL215614  17.186  13.623   5.943  0.1680  0.1339  0.2876
  997loPI   C1A15615  17.467  13.661   6.438  0.0768  0.0094  0.1720
  997loPI   C2A15616  17.563  13.576   6.898 -0.1666 -0.2520  0.4533
  997loPI   C3A15617  17.511  13.594   7.349  0.0236  0.1240  0.2036
  997loPI   C4A15618  17.629  13.473   7.769  0.0459 -0.1350 -0.0032
  997loPI   C5A15619  17.763  13.172   8.078 -0.0734 -0.2697  0.0219
  997loPI   C6A15620  17.441  12.941   8.365  0.2335  0.1743 -0.2769
  997loPI   C1B15621  16.959  13.598   6.333 -0.0738  0.1357  0.1531
  997loPI   C2B15622  17.093  13.438   6.724 -0.0228  0.1645  0.1576
  997loPI   C3B15623  16.933  13.405   7.194 -0.0294  0.0957  0.0887
  997loPI   C4B15624  17.017  13.400   7.629 -0.3424  0.2784 -0.3255
  998loPI    C115625  12.709   7.967   5.283 -0.3674 -0.1629  0.4067
  998loPI    C215626  12.459   7.738   5.071  0.1049 -0.2151 -0.1174
  998loPI    C315627  12.472   8.133   5.007 -0.2073 -0.1321  0.2863
  998loPI   PO415628  12.654   7.866   5.528 -0.0375 -0.0520 -0.1605
  998loPI   GL115629  12.746   7.952   5.968 -0.0071  0.0951 -0.0319
  998loPI   GL215630  12.642   8.020   6.196 -0.0330 -0.3434 -0.0059
  998loPI   C1A15631  13.056   7.837   6.431  0.1223  0.2940  0.1512
  998loPI   C2A15632  13.124   7.808   6.860  0.1134  0.5193  0.3678
  998loPI   C3A15633  13.143   7.769   7.367  0.0775  0.0091 -0.2673
  998loPI   C4A15634  13.142   7.765   7.770 -0.2607  0.0196  0.0931
  998loPI   C5A15635  13.010   7.865   8.205  0.1189 -0.2086  0.1121
  998loPI   C6A15636  13.093   7.913   8.611  0.0436  0.2746 -0.2287
  998loPI   C1B15637  12.719   8.182   6.595 -0.0770 -0.1246  0.2253
  998loPI   C2B15638  12.735   8.046   7.039 -0.1668  0.0080  0.2296
  998loPI   C3B15639  12.713   8.041   7.444  0.1295  0.1477 -0.1999
  998loPI   C4B15640  12.611   7.962   7.879  0.1619 -0.1690  0.1099
  999loPI    C115641   9.771  16.353   5.526 -0.0380  0.2100 -0.1540
  999loPI    C215642   9.729  16.616   5.824  0.1008  0.1090 -0.0446
  999loPI    C315643   9.764  16.745   5.448  0.0225  0.2408 -0.0073
  999loPI   PO415644   9.669  16.105   5.653 -0.0101 -0.0647 -0.0636
  999loPI   GL115645   9.609  16.132   6.133 -0.1222 -0.1411 -0.2577
  999loPI   GL215646   9.478  16.381   6.153 -0.0745 -0.2957 -0.2240
  999loPI   C1A15647   9.541  16.136   6.605 -0.0665  0.2229 -0.1440
  999loPI   C2A15648   9.483  16.047   7.115  0.0676  0.0065  0.0280
  999loPI   C3A15649   9.512  16.050   7.569  0.0316  0.0696  0.0496
  999loPI   C4A15650   9.403  16.149   8.042 -0.1452  0.3810 -0.1200
  999loPI   C5A15651   9.424  16.527   8.300  0.2745  0.2208 -0.3579
  999loPI   C6A15652   9.405  16.845   8.662  0.0474  0.1219  0.1959
  999loPI   C1B15653   9.547  16.624   6.559  0.1338 -0.1100 -0.0399
  999loPI   C2B15654   9.608  16.591   7.051  0.0881 -0.0146 -0.0370
  999loPI   C3B15655   9.563  16.579   7.463 -0.3182  0.2598 -0.0924
  999loPI   C4B15656   9.607  16.541   7.837 -0.0073  0.2605  0.0912
 1000loPI    C115657   0.955  11.489   5.251 -0.0358  0.1719  0.0857
 1000loPI    C215658   1.065  11.780   5.000 -0.0024  0.0285 -0.0684
 1000loPI    C315659   1.160  11.400   4.919 -0.1132 -0.0345  0.0912
 1000loPI   PO415660   1.058  11.517   5.582 -0.1936 -0.0617 -0.0024
 1000loPI   GL115661   1.061  11.305   6.000 -0.0245 -0.2577 -0.2454
 1000loPI   GL215662   1.391  11.214   6.185  0.0024 -0.2983 -0.0298
 1000loPI   C1A15663   0.899  11.517   6.376  0.0427 -0.2525 -0.0701
 1000loPI   C2A15664   0.843  11.605   6.808  0.1828  0.1722 -0.5005
 1000loPI   C3A15665   0.735  11.537   7.178  0.2163  0.1314  0.2290
 1000loPI   C4A15666   0.695  11.552   7.588  0.1919 -0.2532  0.0001
 1000loPI   C5A15667   0.640  11.673   7.977 -0.0125 -0.0275 -0.1830
 1000loPI   C6A15668   0.301  11.644   8.315 -0.1363 -0.0224  0.0265
 1000loPI   C1B15669   1.307  11.177   6.535 -0.0331  0.1727 -0.1818
 1000loPI   C2B15670   1.219  11.315   6.985 -0.1952  0.2046 -0.1186
 1000loPI   C3B15671   1.109  11.248   7.409  0.3103 -0.0497  0.0250
 1000loPI   C4B15672   1.094  11.302   7.834 -0.0904 -0.0224 -0.1478
 1001loPI    C115673   3.456   4.643   5.911 -0.2992  0.2570  0.0627
 1001loPI    C215674   3.511   4.958   5.671  0.0972  0.1373 -0.0124
 1001loPI    C315675   3.564   4.588   5.530  0.0108  0.0515  0.1757
 1001loPI   PO415676   3.189   4.703   6.020 -0.2739  0.2479  0.0081
 1001loPI   GL115677   3.156   4.749   6.380  0.1170 -0.1184 -0.1937
 1001loPI   GL215678   2.982   5.041   6.346  0.1784  0.1508 -0.1029
 1001loPI   C1A15679   3.215   4.796   6.820 -0.2286 -0.0360 -0.1805
 1001loPI   C2A15680   3.227   4.852   7.326 -0.0746 -0.0418 -0.1293
 1001loPI   C3A15681   3.335   4.750   7.789  0.1904 -0.0166  0.1991
 1001loPI   C4A15682   3.365   4.627   8.229 -0.1139 -0.3696 -0.1765
 1001loPI   C5A15683   3.680   4.489   8.609  0.1950  0.0554  0.1685
 1001loPI   C6A15684   3.797   4.314   8.996  0.0677  0.1020 -0.3701
 1001loPI   C1B15685   2.842   5.214   6.738  0.1775 -0.0846 -0.4469
 1001loPI   C2B15686   2.827   5.157   7.213  0.0318  0.1911  0.1872
 1001loPI   C3B15687   2.890   5.073   7.644  0.2238 -0.1175 -0.1523
 1001loPI   C4B15688   2.946   5.064   8.097 -0.0371  0.0028 -0.1639
 1002loPI    C115689  16.855   3.412   5.931  0.0912  0.0673  0.0641
 1002loPI    C215690  16.638   3.597   5.651 -0.0139  0.0780  0.1518
 1002loPI    C315691  16.871   3.287   5.552  0.3136  0.3757 -0.0322
 1002loPI   PO415692  16.854   3.627   6.117 -0.3819 -0.1362  0.1948
 1002loPI   GL115693  17.072   3.454   6.441  0.0741 -0.2365  0.1619
 1002loPI   GL215694  17.259   3.424   6.642  0.1249 -0.2031 -0.0313
 1002loPI   C1A15695  16.785   3.325   6.814 -0.0659  0.0597 -0.0845
 1002loPI   C2A15696  16.699   3.345   7.158  0.0831 -0.0332 -0.3179
 1002loPI   C3A15697  16.756   3.221   7.586 -0.1466  0.0425  0.3140
 1002loPI   C4A15698  16.617   3.278   7.973  0.0329 -0.3950  0.0225
 1002loPI   C5A15699  16.672   3.249   8.385 -0.0087  0.4901 -0.2529
 1002loPI   C6A15700  16.419   3.268   8.719 -0.1216 -0.2739 -0.1330
 1002loPI   C1B15701  17.199   3.460   7.057 -0.0175  0.2813 -0.1506
 1002loPI   C2B15702  17.311   3.382   7.538  0.4386 -0.2357  0.3780
 1002loPI   C3B15703  17.163   3.413   7.950  0.2620  0.1493  0.1199
 1002loPI   C4B15704  17.122   3.594   8.408 -0.0302  0.2711  0.1329
 1003loPI    C115705   2.178   0.772   5.875 -0.0495  0.0005 -0.0916
 1003loPI    C215706   2.251   1.007   5.560  0.0520  0.2632  0.1241
 1003loPI    C315707   2.241   0.610   5.514  0.1189  0.2954 -0.1985
 1003loPI   PO415708   2.184   0.976   6.064 -0.0206 -0.1912 -0.2689
 1003loPI   GL115709   2.059   0.979   6.405  0.0946  0.1940  0.1568
 1003loPI   GL215710   2.021   0.628   6.492  0.1123  0.1187 -0.0989
 1003loPI   C1A15711   2.159   1.036   6.837  0.0148  0.3631 -0.2737
 1003loPI   C2A15712   2.287   1.083   7.220  0.1897  0.0431  0.2715
 1003loPI   C3A15713   2.271   1.099   7.666 -0.1791  0.1443 -0.1015
 1003loPI   C4A15714   2.218   1.076   8.121 -0.1448 -0.0402 -0.1455
 1003loPI   C5A15715   2.345   0.829   8.450 -0.1519  0.0281  0.1482
 1003loPI   C6A15716   2.351   0.613   8.839 -0.0612 -0.1229  0.1210
 1003loPI   C1B15717   2.074   0.465   6.901  0.0008  0.0169 -0.2880
 1003loPI   C2B15718   2.171   0.563   7.297  0.2564 -0.0300  0.0949
 1003loPI   C3B15719   2.207   0.529   7.794  0.1935  0.0787  0.0980
 1003loPI   C4B15720   2.173   0.473   8.161  0.2630 -0.0499 -0.2839
 1004loPI    C115721   2.761  17.456   5.458 -0.1354  0.0197  0.0119
 1004loPI    C215722   2.845  17.817   5.607  0.1293 -0.0692  0.0831
 1004loPI    C315723   2.949  17.727   5.232 -0.2026  0.0273 -0.0353
 1004loPI   PO415724   2.625  17.347   5.657 -0.1340 -0.0055 -0.1209
 1004loPI   GL115725   2.824  17.079   6.027 -0.1382 -0.2397  0.1503
 1004loPI   GL215726   2.493  17.061   6.181  0.0631  0.0725 -0.0479
 1004loPI   C1A15727   2.878  16.987   6.442 -0.1289  0.0258 -0.0958
 1004loPI   C2A15728   2.759  16.980   6.877  0.3433 -0.1879 -0.1916
 1004loPI   C3A15729   2.750  16.929   7.250 -0.0505 -0.1931  0.0215
 1004loPI   C4A15730   2.857  16.965   7.679  0.1076  0.0308  0.2468
 1004loPI   C5A15731   2.954  17.173   8.170 -0.0062 -0.2396 -0.1757
 1004loPI   C6A15732   2.910  17.607   8.266 -0.0300  0.2138  0.0128
 1004loPI   C1B15733   2.372  16.978   6.532 -0.2036 -0.0971  0.0091
 1004loPI   C2B15734   2.221  16.877   6.911 -0.2053  0.0313 -0.1834
 1004loPI   C3B15735   2.261  16.824   7.386  0.0285 -0.0506  0.1520
 1004loPI   C4B15736   2.287  16.841   7.796 -0.1621  0.0966 -0.1173
 1005loPI    C115737   7.618   4.436   5.568  0.0052 -0.0230 -0.1235
 1005loPI    C215738   8.003   4.545   5.578 -0.0106  0.0184  0.0896
 1005loPI    C315739   7.764   4.679   5.286  0.1326  0.0035 -0.0355
 1005loPI   PO415740   7.484   4.516   5.725 -0.2246 -0.1543  0.3064
 1005loPI   GL115741   7.354   4.357   6.048  0.1261  0.1453 -0.0466
 1005loPI   GL215742   7.051   4.451   6.070 -0.0973  0.1679  0.1960
 1005loPI   C1A15743   7.354   4.312   6.524  0.1019 -0.2114  0.2802
 1005loPI   C2A15744   7.287   4.345   7.006 -0.3883  0.0240  0.2270
 1005loPI   C3A15745   7.240   4.427   7.456  0.0221 -0.1171 -0.0621
 1005loPI   C4A15746   7.280   4.280   7.857  0.1475  0.0056 -0.1352
 1005loPI   C5A15747   7.341   4.255   8.296  0.0605  0.0255  0.1946
 1005loPI   C6A15748   7.330   4.548   8.677  0.0240 -0.1892  0.2256
 1005loPI   C1B15749   6.982   4.624   6.438  0.0019 -0.0022  0.2661
 1005loPI   C2B15750   6.868   4.598   6.946  0.0546 -0.0113 -0.0621
 1005loPI   C3B15751   6.887   4.734   7.371 -0.2367  0.3930 -0.4338
 1005loPI   C4B15752   6.880   4.686   7.812  0.1159  0.4075 -0.0075
 1006loPI    C115753   5.139  12.753   5.323  0.1865 -0.1283 -0.0707
 1006loPI    C215754   5.398  13.053   5.267  0.0981 -0.0579 -0.1068
 1006loPI    C315755   5.006  13.115   5.217  0.0341 -0.0531  0.3538
 1006loPI   PO415756   5.147  12.654   5.529  0.0539  0.0252 -0.2696
 1006loPI   GL115757   5.300  12.500   6.044 -0.1221  0.0574  0.0333
 1006loPI   GL215758   5.221  12.812   6.070  0.2314  0.2002 -0.1211
 1006loPI   C1A15759   5.666  12.684   6.275 -0.2249  0.0469 -0.1838
 1006loPI   C2A15760   5.727  12.855   6.739  0.2343  0.0542 -0.1807
 1006loPI   C3A15761   5.761  12.846   7.141  0.0166  0.1287  0.2705
 1006loPI   C4A15762   5.657  12.802   7.485 -0.1198 -0.1091 -0.1153
 1006loPI   C5A15763   5.561  12.796   7.972  0.2709  0.0652  0.0094
 1006loPI   C6A15764   5.923  12.708   8.122  0.1336  0.1638 -0.1714
 1006loPI   C1B15765   5.269  12.765   6.562 -0.0068 -0.0079 -0.0255
 1006loPI   C2B15766   5.084  12.649   6.951 -0.2282 -0.3269 -0.0194
 1006loPI   C3B15767   5.188  12.631   7.448 -0.0028  0.4232 -0.0734
 1006loPI   C4B15768   5.075  12.531   7.820  0.3212 -0.3807 -0.2057
 1007loPI    C115769   4.662   1.235   5.667 -0.2480  0.1527  0.1200
 1007loPI    C215770   4.353   1.126   5.437 -0.0501 -0.0606 -0.0502
 1007loPI    C315771   4.666   1.315   5.275 -0.0433  0.0611  0.1021
 1007loPI   PO415772   4.681   1.134   5.826  0.1081 -0.1099  0.0483
 1007loPI   GL115773   4.356   1.107   6.145  0.1047  0.2104  0.0116
 1007loPI   GL215774   4.538   0.876   6.298 -0.0196 -0.1208 -0.2172
 1007loPI   C1A15775   4.146   1.179   6.456 -0.1983 -0.3215  0.1699
 1007loPI   C2A15776   4.132   1.150   6.978 -0.1309  0.1762 -0.0190
 1007loPI   C3A15777   3.991   1.165   7.346 -0.2516  0.0456  0.1085
 1007loPI   C4A15778   4.042   1.240   7.767  0.0718 -0.0885  0.0087
 1007loPI   C5A15779   4.096   1.194   8.205  0.0093 -0.0402 -0.0631
 1007loPI   C6A15780   3.854   1.469   8.483 -0.2736 -0.0093 -0.0001
 1007loPI   C1B15781   4.524   0.862   6.747  0.3624 -0.0325  0.0767
 1007loPI   C2B15782   4.395   0.785   7.170 -0.2986  0.1915  0.1321
 1007loPI   C3B15783   4.395   0.853   7.617 -0.0121  0.0673 -0.2654
 1007loPI   C4B15784   4.509   0.928   8.065 -0.0338  0.1996 -0.2097
 1008loPI    C115785   7.471   0.897   5.678 -0.0721  0.1052 -0.0152
 1008loPI    C215786   7.832   0.777   5.554 -0.0941  0.1144 -0.0884
 1008loPI    C315787   7.601   0.999   5.314 -0.0665  0.2774  0.0346
 1008loPI   PO415788   7.391   0.757   5.789 -0.0186 -0.1645 -0.2420
 1008loPI   GL115789   7.314   0.598   6.223 -0.0543 -0.0322 -0.3464
 1008loPI   GL215790   7.006   0.502   6.351 -0.4588  0.0218 -0.0545
 1008loPI   C1A15791   7.565   0.576   6.539 -0.2010  0.0742  0.0349
 1008loPI   C2A15792   7.588   0.526   6.963 -0.1081 -0.1579 -0.2412
 1008loPI   C3A15793   7.577   0.600   7.439  0.1027 -0.3048  0.0743
 1008loPI   C4A15794   7.604   0.612   7.857 -0.0781 -0.0785 -0.3754
 1008loPI   C5A15795   7.423   0.469   8.218  0.2653  0.1424 -0.0218
 1008loPI   C6A15796   7.158   0.388   8.487  0.0336 -0.0236  0.0552
 1008loPI   C1B15797   7.161   0.368   6.777 -0.0241 -0.3592 -0.3234
 1008loPI   C2B15798   7.168   0.412   7.259  0.1514 -0.3391 -0.0320
 1008loPI   C3B15799   7.129   0.454   7.708 -0.0256  0.1081  0.0190
 1008loPI   C4B15800   6.942   0.452   7.999 -0.0268 -0.0688 -0.0194
 1009loPI    C115801   4.206   9.708   5.437 -0.0738  0.1388  0.0585
 1009loPI    C215802   4.247   9.912   5.095  0.0466 -0.1697 -0.1149
 1009loPI    C315803   3.997   9.600   5.113  0.1885 -0.2772  0.0206
 1009loPI   PO415804   4.165   9.977   5.619  0.1008 -0.2633  0.0222
 1009loPI   GL115805   3.814   9.838   5.899  0.4459 -0.1724  0.0685
 1009loPI   GL215806   3.964  10.101   6.053  0.3799  0.0433  0.1453
 1009loPI   C1A15807   3.706   9.724   6.389 -0.0523  0.0211  0.1863
 1009loPI   C2A15808   3.663   9.770   6.875  0.0849 -0.1095 -0.3941
 1009loPI   C3A15809   3.615   9.735   7.378  0.0439  0.1156  0.0008
 1009loPI   C4A15810   3.663   9.749   7.839 -0.0363  0.1748  0.0134
 1009loPI   C5A15811   3.656  10.021   8.209  0.0741 -0.0887 -0.1792
 1009loPI   C6A15812   3.230  10.232   8.222 -0.1593 -0.1591 -0.0172
 1009loPI   C1B15813   3.793  10.217   6.400  0.1503  0.1623  0.3219
 1009loPI   C2B15814   3.670  10.296   6.796 -0.0165 -0.2835  0.2870
 1009loPI   C3B15815   3.696  10.243   7.261  0.1482  0.1265  0.1431
 1009loPI   C4B15816   3.838  10.227   7.650 -0.1412 -0.0860 -0.2128
 1010loPI    C115817   5.303   1.841   5.377 -0.0149  0.4220 -0.0576
 1010loPI    C215818   5.306   1.968   4.998 -0.1685  0.2957 -0.1023
 1010loPI    C315819   5.083   1.653   5.101  0.1918  0.0717  0.0103
 1010loPI   PO415820   5.247   1.947   5.515  0.0314 -0.3474  0.1924
 1010loPI   GL115821   5.203   1.933   5.905  0.2329  0.0419  0.0245
 1010loPI   GL215822   5.070   1.594   6.108  0.1738 -0.3876  0.2831
 1010loPI   C1A15823   5.120   2.034   6.332  0.1792  0.1554 -0.0791
 1010loPI   C2A15824   5.109   2.079   6.784 -0.0480  0.0033 -0.3806
 1010loPI   C3A15825   5.021   2.081   7.304 -0.2927  0.0716 -0.0853
 1010loPI   C4A15826   5.143   2.053   7.798  0.1876  0.1009  0.3467
 1010loPI   C5A15827   5.261   2.328   8.044 -0.0388 -0.0953  0.0169
 1010loPI   C6A15828   5.160   2.690   8.291  0.1231 -0.3139 -0.1989
 1010loPI   C1B15829   5.027   1.597   6.606  0.0773  0.1172  0.0112
 1010loPI   C2B15830   5.044   1.638   7.057 -0.1225  0.0015 -0.2505
 1010loPI   C3B15831   4.974   1.553   7.476 -0.1483 -0.1223  0.0466
 1010loPI   C4B15832   5.128   1.525   7.909  0.1789  0.1621 -0.0260
 1011loPI    C115833   2.068   1.894   5.772  0.2562  0.0144 -0.2320
 1011loPI    C215834   1.738   2.119   5.764  0.3273  0.1311  0.0114
 1011loPI    C315835   1.774   1.808   5.515  0.0490  0.1369 -0.0396
 1011loPI   PO415836   2.047   1.760   5.957  0.1520 -0.2225 -0.0777
 1011loPI   GL115837   2.094   1.549   6.221  0.0601 -0.0653  0.3174
 1011loPI   GL215838   2.104   1.870   6.427  0.1779  0.0195 -0.0542
 1011loPI   C1A15839   2.330   1.504   6.609 -0.1179  0.0994  0.0119
 1011loPI   C2A15840   2.329   1.530   7.025 -0.1899  0.1215  0.0093
 1011loPI   C3A15841   2.274   1.537   7.416 -0.1630 -0.1333 -0.0866
 1011loPI   C4A15842   2.375   1.607   7.838 -0.0921 -0.0564 -0.0574
 1011loPI   C5A15843   2.274   1.566   8.257  0.2514 -0.0740  0.0510
 1011loPI   C6A15844   2.125   1.737   8.534  0.1301 -0.3105  0.1048
 1011loPI   C1B15845   2.002   1.853   6.820  0.2335  0.0456 -0.1805
 1011loPI   C2B15846   1.753   1.782   7.195  0.1471 -0.0598  0.1903
 1011loPI   C3B15847   1.698   1.776   7.612  0.2208 -0.0218  0.1726
 1011loPI   C4B15848   2.005   1.881   7.984  0.0157 -0.1050  0.2803
 1012loPI    C115849  10.518  14.796   5.564  0.0886 -0.1201  0.0237
 1012loPI    C215850  10.561  15.148   5.379  0.1142 -0.1085  0.0516
 1012loPI    C315851  10.618  14.807   5.177 -0.1373 -0.1008 -0.0352
 1012loPI   PO415852  10.607  14.872   5.826  0.2492 -0.0235  0.0702
 1012loPI   GL115853  10.569  14.863   6.276 -0.1872 -0.0915 -0.0790
 1012loPI   GL215854  10.645  15.191   6.272  0.0993 -0.3239 -0.0509
 1012loPI   C1A15855  10.548  14.620   6.576  0.0020  0.1570  0.0432
 1012loPI   C2A15856  10.552  14.657   7.006 -0.0510  0.0472 -0.0824
 1012loPI   C3A15857  10.585  14.499   7.442 -0.0523  0.0462 -0.0140
 1012loPI   C4A15858  10.692  14.558   7.834  0.3352 -0.0742  0.0102
 1012loPI   C5A15859  10.643  14.301   8.181 -0.0038 -0.0151 -0.1227
 1012loPI   C6A15860  10.511  13.931   8.118  0.2445 -0.1542 -0.3411
 1012loPI   C1B15861  10.645  15.074   6.721  0.0610 -0.2965  0.2364
 1012loPI   C2B15862  10.670  15.064   7.231 -0.2243  0.1327  0.2778
 1012loPI   C3B15863  10.691  15.006   7.637 -0.0377 -0.0739  0.3854
 1012loPI   C4B15864  10.748  15.122   8.073 -0.0823 -0.0926  0.0475
 1013loPI    C115865   8.915   9.492   5.626  0.1351 -0.1529 -0.0479
 1013loPI    C215866   8.921   9.697   5.282  0.1865 -0.2229 -0.0891
 1013loPI    C315867   8.609   9.463   5.370  0.0420  0.0148  0.0428
 1013loPI   PO415868   8.934   9.572   5.768 -0.0082 -0.1444 -0.3274
 1013loPI   GL115869   8.724   9.786   6.170  0.2584  0.0040 -0.1077
 1013loPI   GL215870   9.033   9.674   6.263  0.0559 -0.0169 -0.0832
 1013loPI   C1A15871   8.566   9.985   6.470  0.1327 -0.0427  0.2466
 1013loPI   C2A15872   8.397   9.959   6.991 -0.0503 -0.3706 -0.1968
 1013loPI   C3A15873   8.463   9.814   7.348 -0.5949 -0.1164  0.1731
 1013loPI   C4A15874   8.427   9.807   7.841  0.4045  0.2546  0.0225
 1013loPI   C5A15875   8.442   9.940   8.213 -0.0654  0.1782 -0.1366
 1013loPI   C6A15876   8.366  10.144   8.605 -0.1575 -0.0175  0.0125
 1013loPI   C1B15877   8.775   9.523   6.707  0.0540 -0.1092 -0.0096
 1013loPI   C2B15878   8.757   9.480   7.149  0.0917  0.3271 -0.0537
 1013loPI   C3B15879   8.822   9.502   7.616  0.1326 -0.2768  0.0069
 1013loPI   C4B15880   8.813   9.534   8.061  0.4370 -0.0624  0.1636
 1014loPI    C115881   8.339   0.924   5.551 -0.1305  0.1244 -0.0751
 1014loPI    C215882   8.561   0.667   5.339 -0.0073 -0.0845  0.2982
 1014loPI    C315883   8.210   0.793   5.195  0.1809 -0.0343 -0.1337
 1014loPI   PO415884   8.304   0.809   5.787 -0.1176 -0.0396  0.1373
 1014loPI   GL115885   8.476   0.879   6.164 -0.2319  0.2997 -0.2216
 1014loPI   GL215886   8.170   0.952   6.330 -0.0067  0.0718 -0.1049
 1014loPI   C1A15887   8.602   0.953   6.663 -0.0212  0.0511 -0.1874
 1014loPI   C2A15888   8.491   0.987   7.117  0.3161  0.0932 -0.3890
 1014loPI   C3A15889   8.566   1.021   7.472  0.1942 -0.0517  0.0404
 1014loPI   C4A15890   8.518   0.890   7.938 -0.2457 -0.1923  0.0476
 1014loPI   C5A15891   8.453   0.737   8.357  0.1384 -0.0279  0.1934
 1014loPI   C6A15892   8.748   0.833   8.713  0.0663  0.1119  0.1532
 1014loPI   C1B15893   8.036   0.773   6.723  0.1776  0.0143  0.0593
 1014loPI   C2B15894   8.004   0.784   7.169 -0.1475  0.1540 -0.1231
 1014loPI   C3B15895   8.069   0.764   7.603  0.2069  0.2880 -0.0917
 1014loPI   C4B15896   8.032   0.829   8.100 -0.2346  0.1300 -0.0067
 1015loPI    C115897   2.059  14.443   5.634  0.0130  0.2238 -0.0133
 1015loPI    C215898   2.349  14.550   5.380  0.1071 -0.1455 -0.0670
 1015loPI    C315899   1.971  14.522   5.253  0.0843  0.0973 -0.0566
 1015loPI   PO415900   2.131  14.451   5.862 -0.4333  0.0587 -0.1585
 1015loPI   GL115901   2.438  14.542   6.250 -0.0493 -0.1577  0.3266
 1015loPI   GL215902   2.681  14.809   6.353  0.0396 -0.1630  0.1810
 1015loPI   C1A15903   2.192  14.519   6.662 -0.0339  0.1593  0.1640
 1015loPI   C2A15904   2.266  14.469   7.128 -0.1735  0.2196  0.1600
 1015loPI   C3A15905   2.311  14.445   7.569 -0.3368 -0.2741 -0.1311
 1015loPI   C4A15906   2.396  14.429   8.009 -0.2031 -0.0326  0.0438
 1015loPI   C5A15907   2.820  14.096   8.193  0.2895 -0.0084  0.1868
 1015loPI   C6A15908   3.147  13.870   8.355  0.1585 -0.1262  0.1648
 1015loPI   C1B15909   2.730  14.688   6.699  0.1953  0.0215  0.0298
 1015loPI   C2B15910   2.726  14.703   7.130  0.0050  0.1878  0.2479
 1015loPI   C3B15911   2.756  14.622   7.566 -0.1482  0.1085  0.0676
 1015loPI   C4B15912   2.883  14.640   7.981 -0.5927  0.4711  0.0386
 1016loPI    C115913   1.281  16.148   5.417 -0.0199  0.0941 -0.0271
 1016loPI    C215914   1.469  15.916   5.152 -0.1085  0.0976 -0.0937
 1016loPI    C315915   1.478  16.314   5.112 -0.1295  0.0978 -0.0966
 1016loPI   PO415916   1.355  16.092   5.644 -0.0415 -0.1908  0.0882
 1016loPI   GL115917   1.174  16.240   6.027 -0.1328 -0.2209 -0.2467
 1016loPI   GL215918   0.800  16.323   6.076 -0.1489  0.0504  0.0491
 1016loPI   C1A15919   1.232  16.061   6.347 -0.1148  0.0265 -0.0743
 1016loPI   C2A15920   1.198  16.036   6.733  0.3488  0.2478  0.0114
 1016loPI   C3A15921   1.228  16.014   7.207  0.1833 -0.0733 -0.0922
 1016loPI   C4A15922   1.229  16.015   7.666  0.2453 -0.0106 -0.1627
 1016loPI   C5A15923   1.230  16.029   8.028 -0.0601  0.1221 -0.0353
 1016loPI   C6A15924   1.305  16.055   8.541 -0.1892 -0.0743 -0.0998
 1016loPI   C1B15925   0.828  16.353   6.474  0.0892 -0.0288 -0.0047
 1016loPI   C2B15926   0.892  16.440   6.927 -0.2997  0.0218 -0.0763
 1016loPI   C3B15927   0.903  16.301   7.399 -0.1385 -0.3115 -0.2602
 1016loPI   C4B15928   0.822  16.251   7.790 -0.0382 -0.0795  0.2514
 1017loPI    C115929   0.735  17.612   5.670  0.2036 -0.2329  0.0558
 1017loPI    C215930   0.869  17.972   5.557  0.1204 -0.2546 -0.1171
 1017loPI    C315931   0.486  17.874   5.497  0.0395 -0.2193  0.3070
 1017loPI   PO415932   0.807  17.646   5.934  0.0826  0.2391 -0.2033
 1017loPI   GL115933   0.706  17.779   6.302  0.1160 -0.1465  0.2010
 1017loPI   GL215934   0.943  17.509   6.366  0.3254  0.0650  0.0841
 1017loPI   C1A15935   0.487  17.717   6.685 -0.1306 -0.1842  0.1172
 1017loPI   C2A15936   0.518  17.689   7.071 -0.2513 -0.1479 -0.1789
 1017loPI   C3A15937   0.628  17.725   7.473  0.2578 -0.0571 -0.0978
 1017loPI   C4A15938   0.624  17.675   7.925 -0.3428  0.1140  0.0544
 1017loPI   C5A15939   0.748  17.633   8.393 -0.0120 -0.0320 -0.0013
 1017loPI   C6A15940   0.537  17.586   8.869 -0.4021 -0.0053  0.1315
 1017loPI   C1B15941   1.050  17.361   6.772 -0.0840 -0.0494  0.0543
 1017loPI   C2B15942   0.922  17.415   7.122 -0.3377  0.2145  0.2572
 1017loPI   C3B15943   1.052  17.340   7.573 -0.0988 -0.2335  0.1488
 1017loPI   C4B15944   1.046  17.434   8.044  0.1687 -0.1255  0.3014
 1018loPI    C115945   5.929  10.407   5.509 -0.0953 -0.2803 -0.2002
 1018loPI    C215946   5.574  10.280   5.375 -0.0287 -0.1718 -0.4866
 1018loPI    C315947   5.745  10.603   5.213  0.1277 -0.1281 -0.2401
 1018loPI   PO415948   5.870  10.391   5.798  0.2450  0.0764 -0.1165
 1018loPI   GL115949   5.751  10.552   6.208  0.3061  0.1706 -0.3128
 1018loPI   GL215950   5.998  10.593   6.339  0.2280  0.0660 -0.1632
 1018loPI   C1A15951   5.551  10.456   6.701 -0.3350  0.1531 -0.1957
 1018loPI   C2A15952   5.491  10.383   7.052  0.3646  0.1457 -0.1718
 1018loPI   C3A15953   5.763  10.440   7.419 -0.2456  0.1304  0.1071
 1018loPI   C4A15954   5.711  10.407   7.832  0.0654  0.1800 -0.0330
 1018loPI   C5A15955   5.474  10.391   8.224 -0.0728  0.0931 -0.1267
 1018loPI   C6A15956   5.393  10.444   8.739  0.0226 -0.0512 -0.1222
 1018loPI   C1B15957   6.238  10.629   6.790 -0.2381  0.2478  0.0828
 1018loPI   C2B15958   6.354  10.641   7.273  0.1155  0.1342  0.0974
 1018loPI   C3B15959   6.193  10.630   7.684  0.2433  0.0800  0.0519
 1018loPI   C4B15960   6.121  10.498   8.121 -0.0113  0.3049 -0.1173
 1019loPI    C115961   8.898  15.968   5.556 -0.0285 -0.2512 -0.3037
 1019loPI    C215962   9.034  16.151   5.228  0.0927  0.0265 -0.1018
 1019loPI    C315963   9.267  15.891   5.423  0.2080  0.2345  0.0422
 1019loPI   PO415964   8.835  16.153   5.732 -0.1199 -0.0120 -0.1176
 1019loPI   GL115965   8.955  16.224   6.102 -0.2157  0.0778 -0.2639
 1019loPI   GL215966   8.637  16.224   6.220 -0.3013 -0.1795 -0.1050
 1019loPI   C1A15967   9.021  16.351   6.468 -0.2721 -0.0669  0.2581
 1019loPI   C2A15968   9.193  16.350   6.851 -0.1027 -0.0647  0.0238
 1019loPI   C3A15969   9.094  16.356   7.215 -0.3077 -0.2111  0.0332
 1019loPI   C4A15970   9.110  16.384   7.721  0.2340 -0.0628 -0.0462
 1019loPI   C5A15971   8.925  16.378   8.097 -0.2555  0.2161  0.2232
 1019loPI   C6A15972   9.022  16.410   8.487  0.2509  0.0961 -0.0173
 1019loPI   C1B15973   8.579  16.170   6.648 -0.0320 -0.2500 -0.0416
 1019loPI   C2B15974   8.480  16.170   7.059 -0.3767  0.0229 -0.2213
 1019loPI   C3B15975   8.705  16.164   7.466 -0.0045  0.0890  0.0595
 1019loPI   C4B15976   8.565  16.089   7.851 -0.2052 -0.2140  0.0973
 1020loPI    C115977   9.260   9.888   5.637 -0.1735 -0.2511 -0.0509
 1020loPI    C215978   9.422   9.541   5.522  0.1853 -0.0928 -0.0350
 1020loPI    C315979   9.402   9.846   5.265  0.3003  0.0222  0.0912
 1020loPI   PO415980   9.345   9.930   5.938 -0.2775  0.1995  0.4033
 1020loPI   GL115981   9.593  10.138   6.215  0.1159  0.0680  0.2852
 1020loPI   GL215982   9.916   9.977   6.244 -0.0211  0.1131  0.3900
 1020loPI   C1A15983   9.499  10.226   6.649 -0.2883 -0.1991  0.1749
 1020loPI   C2A15984   9.375  10.243   7.020 -0.0618 -0.1853 -0.0080
 1020loPI   C3A15985   9.423  10.188   7.476  0.0229 -0.2087  0.0600
 1020loPI   C4A15986   9.395  10.320   7.902 -0.0652  0.1686  0.1098
 1020loPI   C5A15987   9.548  10.126   8.250  0.0030  0.0972  0.0645
 1020loPI   C6A15988   9.634   9.770   8.500 -0.0564  0.0081 -0.1492
 1020loPI   C1B15989   9.920   9.919   6.632 -0.3477  0.1197  0.0761
 1020loPI   C2B15990   9.711   9.829   6.985 -0.0236 -0.1198 -0.0061
 1020loPI   C3B15991   9.825   9.854   7.460 -0.0038 -0.0313  0.1081
 1020loPI   C4B15992   9.774  10.002   7.810 -0.2785 -0.1812  0.0441
 1021loPI    C115993   8.212   9.193   5.465 -0.0670 -0.0209  0.0023
 1021loPI    C215994   7.968   9.130   5.154  0.0374  0.1032 -0.1059
 1021loPI    C315995   8.150   9.484   5.198  0.0696  0.0666  0.0645
 1021loPI   PO415996   8.141   9.052   5.691  0.4009  0.1743  0.0774
 1021loPI   GL115997   8.281   8.988   6.147  0.0357  0.1537 -0.0383
 1021loPI   GL215998   8.335   9.234   6.282 -0.1184  0.1785  0.0579
 1021loPI   C1A15999   8.189   8.563   6.500 -0.1716 -0.0403  0.0734
 1021loPI   C2A16000   8.032   8.390   6.903  0.0024  0.0654 -0.1190
 1021loPI   C3A16001   8.055   8.427   7.329  0.1939 -0.1672 -0.2309
 1021loPI   C4A16002   8.140   8.404   7.675  0.0744  0.2089 -0.0309
 1021loPI   C5A16003   8.197   8.357   8.100 -0.0584  0.0288 -0.2034
 1021loPI   C6A16004   7.893   8.284   8.441  0.0072  0.0539 -0.0623
 1021loPI   C1B16005   8.233   8.998   6.652 -0.0229 -0.2274  0.2776
 1021loPI   C2B16006   8.205   8.898   7.092 -0.0547 -0.2109  0.0598
 1021loPI   C3B16007   8.102   8.870   7.548 -0.3833 -0.0199 -0.0713
 1021loPI   C4B16008   8.236   8.846   7.977 -0.0792 -0.1349  0.3928
 1022loPI    C116009  16.756   1.486   5.544  0.1108 -0.0771 -0.0620
 1022loPI    C216010  16.546   1.591   5.220  0.0135 -0.0941 -0.0049
 1022loPI    C316011  16.626   1.205   5.291  0.2516 -0.0720 -0.1412
 1022loPI   PO416012  16.712   1.588   5.673  0.1484  0.0188 -0.1859
 1022loPI   GL116013  16.688   1.502   6.090 -0.1180 -0.1752 -0.0847
 1022loPI   GL216014  16.713   1.781   6.322 -0.0604  0.1035  0.0878
 1022loPI   C1A16015  16.813   1.426   6.583 -0.0997  0.0754  0.1024
 1022loPI   C2A16016  16.770   1.420   6.920  0.1263 -0.2521  0.0572
 1022loPI   C3A16017  16.801   1.400   7.398  0.1615 -0.0154 -0.1464
 1022loPI   C4A16018  16.796   1.471   7.788 -0.2120 -0.1212  0.0545
 1022loPI   C5A16019  16.771   1.396   8.181  0.1024 -0.0827  0.0046
 1022loPI   C6A16020  16.845   1.189   8.541 -0.0267  0.1873  0.2222
 1022loPI   C1B16021  16.870   1.890   6.723  0.0568 -0.0105  0.0136
 1022loPI   C2B16022  16.906   1.883   7.147 -0.2267 -0.0011 -0.0245
 1022loPI   C3B16023  16.932   1.939   7.608  0.0505 -0.4288 -0.1154
 1022loPI   C4B16024  16.939   1.839   8.050  0.0808 -0.4619  0.0265
 1023loPI    C116025  15.698   3.668   5.620  0.0923  0.1036 -0.0259
 1023loPI    C216026  16.094   3.609   5.607  0.0523 -0.1691 -0.0659
 1023loPI    C316027  15.876   3.579   5.273  0.0022  0.0181 -0.0508
 1023loPI   PO416028  15.650   3.581   5.846  0.2346  0.0231 -0.1143
 1023loPI   GL116029  15.863   3.450   6.358 -0.2282 -0.1247 -0.0486
 1023loPI   GL216030  15.659   3.724   6.317 -0.3209  0.2010  0.1866
 1023loPI   C1A16031  15.862   3.470   6.683 -0.1482 -0.1419  0.0166
 1023loPI   C2A16032  15.819   3.520   7.096  0.1379  0.1574  0.3874
 1023loPI   C3A16033  15.802   3.535   7.523 -0.0318 -0.0471 -0.2700
 1023loPI   C4A16034  15.799   3.401   7.951  0.1585 -0.0397  0.1354
 1023loPI   C5A16035  15.734   3.336   8.350  0.0920 -0.0484  0.1240
 1023loPI   C6A16036  15.927   3.167   8.777  0.0165 -0.1172  0.0079
 1023loPI   C1B16037  15.501   3.825   6.696 -0.0159  0.2866 -0.1085
 1023loPI   C2B16038  15.408   3.799   7.108  0.1477 -0.0395  0.1254
 1023loPI   C3B16039  15.421   3.815   7.603 -0.1291 -0.1971 -0.1924
 1023loPI   C4B16040  15.401   3.868   8.010  0.0488  0.4224  0.1410
 1024loPI    C116041  14.689   7.034   5.398 -0.3007 -0.2659  0.0193
 1024loPI    C216042  14.435   7.066   5.091 -0.1561  0.0774 -0.0698
 1024loPI    C316043  14.709   6.774   5.095 -0.2569 -0.0201 -0.1920
 1024loPI   PO416044  14.512   7.097   5.559 -0.3343  0.2917 -0.0538
 1024loPI   GL116045  14.476   7.140   6.057  0.1638  0.2211  0.0746
 1024loPI   GL216046  14.754   7.226   6.178  0.1805  0.0512  0.2861
 1024loPI   C1A16047  14.329   7.326   6.461  0.0376 -0.0588  0.1978
 1024loPI   C2A16048  14.345   7.279   6.871 -0.1474 -0.0880  0.0474
 1024loPI   C3A16049  14.294   7.357   7.224 -0.0511 -0.1010 -0.1940
 1024loPI   C4A16050  14.442   7.340   7.656 -0.1323  0.0650 -0.1767
 1024loPI   C5A16051  14.535   7.343   8.102  0.1136  0.1360  0.1475
 1024loPI   C6A16052  14.474   7.254   8.534  0.0654 -0.2320 -0.0956
 1024loPI   C1B16053  14.753   7.059   6.577  0.0824  0.2889 -0.0551
 1024loPI   C2B16054  14.785   7.000   6.988 -0.0639 -0.1217 -0.0592
 1024loPI   C3B16055  14.782   7.009   7.474  0.1150 -0.0510 -0.0270
 1024loPI   C4B16056  14.789   6.976   7.909 -0.0201  0.0833  0.2814
 1025loPI    C116057  12.395   6.687   5.284 -0.2685 -0.1381 -0.2995
 1025loPI    C216058  12.491   6.300   5.318  0.0665 -0.0324  0.0281
 1025loPI    C316059  12.633   6.516   5.012  0.0014 -0.1312 -0.0724
 1025loPI   PO416060  12.256   6.734   5.564  0.0796  0.0556  0.3796
 1025loPI   GL116061  12.244   6.661   6.051  0.1020 -0.0908 -0.2311
 1025loPI   GL216062  11.976   6.869   6.057  0.1783  0.3156 -0.0159
 1025loPI   C1A16063  12.545   6.607   6.462 -0.0328 -0.1463  0.0270
 1025loPI   C2A16064  12.459   6.643   6.838  0.2377 -0.0146 -0.1318
 1025loPI   C3A16065  12.386   6.605   7.222 -0.0036  0.0127 -0.2589
 1025loPI   C4A16066  12.328   6.514   7.649 -0.1002 -0.1207  0.0207
 1025loPI   C5A16067  12.240   6.571   8.013 -0.0636  0.3258 -0.4120
 1025loPI   C6A16068  12.199   6.557   8.466 -0.2822 -0.2685 -0.2019
 1025loPI   C1B16069  11.932   6.886   6.431  0.0917 -0.0775  0.1501
 1025loPI   C2B16070  12.006   6.866   6.842 -0.0515  0.4058 -0.3503
 1025loPI   C3B16071  11.920   6.866   7.275 -0.2518 -0.0522  0.0468
 1025loPI   C4B16072  11.919   6.848   7.679 -0.2470  0.3972  0.3327
 1026loPI    C116073  14.798  10.167   5.116  0.2082  0.0513  0.2035
 1026loPI    C216074  15.154  10.247   4.951  0.1528 -0.0796  0.0181
 1026loPI    C316075  14.818  10.302   4.740  0.0645  0.0080  0.1797
 1026loPI   PO416076  14.874  10.077   5.389  0.2161  0.0388  0.1444
 1026loPI   GL116077  14.785  10.272   5.874 -0.0411 -0.2220  0.2475
 1026loPI   GL216078  14.986  10.360   6.025 -0.2705  0.0580 -0.1394
 1026loPI   C1A16079  14.536  10.282   6.288 -0.2779 -0.2631 -0.1746
 1026loPI   C2A16080  14.557  10.269   6.724  0.1056 -0.0097  0.0078
 1026loPI   C3A16081  14.586  10.220   7.195 -0.0514  0.0409 -0.0159
 1026loPI   C4A16082  14.489  10.173   7.536  0.1494 -0.1396  0.0553
 1026loPI   C5A16083  14.398  10.124   7.918 -0.0333  0.1664 -0.0883
 1026loPI   C6A16084  14.568  10.361   8.214 -0.2315  0.0401 -0.1632
 1026loPI   C1B16085  15.049  10.347   6.498  0.0448 -0.0265  0.1461
 1026loPI   C2B16086  15.020  10.295   6.935 -0.2348  0.0742  0.1140
 1026loPI   C3B16087  15.074  10.349   7.283  0.1491 -0.1440  0.0299
 1026loPI   C4B16088  14.927  10.346   7.740 -0.1899  0.0362 -0.0205
 1027loPI    C116089  12.673   6.964   5.598 -0.1918  0.0769 -0.0065
 1027loPI    C216090  12.898   6.692   5.409 -0.2018 -0.0335  0.1390
 1027loPI    C316091  12.774   7.018   5.215  0.1843  0.0895  0.0906
 1027loPI   PO416092  12.773   6.928   5.908 -0.2437 -0.3506 -0.1443
 1027loPI   GL116093  13.014   6.738   6.209 -0.0213 -0.1568  0.2925
 1027loPI   GL216094  12.953   6.494   6.223  0.5053 -0.1804  0.1211
 1027loPI   C1A16095  12.934   6.834   6.686 -0.0710 -0.4978 -0.0414
 1027loPI   C2A16096  12.901   6.781   7.208  0.0054  0.0159  0.1640
 1027loPI   C3A16097  12.821   6.722   7.590 -0.1440  0.1026  0.1544
 1027loPI   C4A16098  12.887   6.756   8.037 -0.0967 -0.1989  0.0001
 1027loPI   C5A16099  12.790   7.051   8.351  0.1331  0.0606 -0.1376
 1027loPI   C6A16100  12.934   7.463   8.470  0.3630 -0.0577  0.0254
 1027loPI   C1B16101  12.918   6.293   6.719  0.0111 -0.0245 -0.2916
 1027loPI   C2B16102  12.859   6.286   7.090  0.3495  0.1085  0.2868
 1027loPI   C3B16103  12.749   6.245   7.487 -0.1160  0.0031  0.0443
 1027loPI   C4B16104  12.669   6.276   7.904  0.3290 -0.2307  0.2471
 1028loPI    C116105   6.145   4.154   5.575 -0.0891  0.0895 -0.1962
 1028loPI    C216106   5.826   4.190   5.336 -0.1341  0.0800 -0.1381
 1028loPI    C316107   6.065   4.504   5.400 -0.1238  0.0834 -0.1927
 1028loPI   PO416108   6.069   4.098   5.759 -0.0820  0.2462  0.1328
 1028loPI   GL116109   6.188   4.198   6.212 -0.2392  0.0619  0.1728
 1028loPI   GL216110   6.299   3.912   6.187  0.3095 -0.3507  0.3144
 1028loPI   C1A16111   5.947   4.259   6.644  0.1391 -0.1715 -0.1983
 1028loPI   C2A16112   5.932   4.321   7.010 -0.3295  0.1515  0.1210
 1028loPI   C3A16113   5.911   4.279   7.530  0.2288  0.2160 -0.1189
 1028loPI   C4A16114   5.914   4.398   8.028  0.0280  0.0802  0.3028
 1028loPI   C5A16115   6.246   4.354   8.301 -0.2911  0.0923  0.1525
 1028loPI   C6A16116   6.452   4.205   8.670 -0.0308 -0.3565  0.1124
 1028loPI   C1B16117   6.371   3.873   6.605  0.2306 -0.3614  0.0649
 1028loPI   C2B16118   6.384   3.868   7.142  0.1729 -0.4205  0.0677
 1028loPI   C3B16119   6.351   4.106   7.553 -0.0404 -0.3359 -0.0312
 1028loPI   C4B16120   6.228   4.021   7.965  0.0201  0.2010 -0.0560
 1029loPI    C116121  10.853  12.729   5.723 -0.0391 -0.1666 -0.0346
 1029loPI    C216122  10.851  12.339   5.632  0.2452 -0.1695 -0.0355
 1029loPI    C316123  10.971  12.608   5.361  0.1800 -0.0930  0.0110
 1029loPI   PO416124  10.760  12.702   6.023 -0.3387 -0.3269  0.2271
 1029loPI   GL116125  10.863  12.930   6.394 -0.1643 -0.0345 -0.1484
 1029loPI   GL216126  11.193  12.780   6.307 -0.0555  0.1575 -0.0911
 1029loPI   C1A16127  10.801  12.770   6.781 -0.1480 -0.4316 -0.1781
 1029loPI   C2A16128  10.845  12.676   7.221  0.0491 -0.2668  0.1012
 1029loPI   C3A16129  10.833  12.648   7.649  0.0011  0.0501 -0.0536
 1029loPI   C4A16130  10.801  12.567   8.071 -0.1144 -0.0201 -0.1152
 1029loPI   C5A16131  10.833  12.527   8.495  0.3053  0.2700 -0.0002
 1029loPI   C6A16132  10.750  12.389   8.899  0.1968  0.0805 -0.0940
 1029loPI   C1B16133  11.339  12.924   6.697 -0.0696 -0.1006 -0.0276
 1029loPI   C2B16134  11.324  12.908   7.117  0.2668 -0.0694  0.2604
 1029loPI   C3B16135  11.306  12.843   7.566  0.0044 -0.0571 -0.3594
 1029loPI   C4B16136  11.296  12.775   8.030  0.0330  0.0661  0.0631
 1030loPI    C116137  11.796   0.527   5.523  0.0980  0.0097  0.1549
 1030loPI    C216138  11.613   0.841   5.356  0.0449 -0.0118  0.1724
 1030loPI    C316139  11.432   0.485   5.363  0.1902 -0.0917 -0.0320
 1030loPI   PO416140  11.770   0.641   5.788 -0.3431  0.0352  0.2710
 1030loPI   GL116141  11.713   0.690   6.163 -0.0160 -0.2771 -0.2123
 1030loPI   GL216142  11.678   1.049   6.183  0.1195 -0.0747  0.1288
 1030loPI   C1A16143  11.596   0.606   6.595  0.2607 -0.0005  0.1052
 1030loPI   C2A16144  11.678   0.572   7.068  0.3297 -0.1281 -0.0824
 1030loPI   C3A16145  11.660   0.613   7.433  0.0232 -0.1014 -0.1751
 1030loPI   C4A16146  11.637   0.625   7.821 -0.1908  0.0311 -0.1975
 1030loPI   C5A16147  11.708   0.676   8.170  0.1926 -0.0107  0.1048
 1030loPI   C6A16148  11.795   1.092   8.403  0.0210 -0.2122 -0.1371
 1030loPI   C1B16149  11.758   1.079   6.596 -0.3736 -0.2207  0.0329
 1030loPI   C2B16150  11.793   1.148   7.000  0.1448  0.1551 -0.1189
 1030loPI   C3B16151  11.829   1.122   7.453  0.2776 -0.4468 -0.0743
 1030loPI   C4B16152  11.754   1.137   7.810 -0.0565 -0.0827  0.1329
 1031loPI    C116153   7.754  12.467   5.521  0.1422  0.0579 -0.0842
 1031loPI    C216154   7.726  12.610   5.149  0.2896 -0.0406 -0.1346
 1031loPI    C316155   8.005  12.338   5.237  0.1648 -0.1217  0.0155
 1031loPI   PO416156   7.763  12.717   5.684 -0.1115 -0.2030 -0.1408
 1031loPI   GL116157   7.900  12.778   6.073 -0.1285  0.0133 -0.0542
 1031loPI   GL216158   8.100  12.686   6.294  0.2677  0.1982  0.2109
 1031loPI   C1A16159   7.649  12.914   6.442  0.1234 -0.4425  0.1109
 1031loPI   C2A16160   7.569  12.943   6.841  0.2371 -0.0123  0.0944
 1031loPI   C3A16161   7.630  12.967   7.359  0.1826  0.0960 -0.0017
 1031loPI   C4A16162   7.510  12.959   7.690 -0.0153 -0.0359 -0.2200
 1031loPI   C5A16163   7.729  13.026   8.055 -0.0895 -0.0848 -0.2176
 1031loPI   C6A16164   7.713  13.281   8.475  0.0586 -0.0165  0.0443
 1031loPI   C1B16165   7.964  12.582   6.703 -0.0440  0.1500  0.3187
 1031loPI   C2B16166   8.059  12.692   7.035  0.0065 -0.0656 -0.2662
 1031loPI   C3B16167   8.085  12.750   7.419  0.1672 -0.5454  0.0819
 1031loPI   C4B16168   7.922  12.714   7.738 -0.2653  0.2489  0.0082
 1032loPI    C116169   1.283   9.111   5.469  0.1565 -0.3614  0.1416
 1032loPI    C216170   1.502   9.124   5.135  0.0124 -0.3276  0.0476
 1032loPI    C316171   1.153   8.929   5.137 -0.2615  0.1457  0.0136
 1032loPI   PO416172   1.464   9.158   5.632  0.3123 -0.1219 -0.0071
 1032loPI   GL116173   1.540   9.229   6.087  0.0956 -0.0183  0.0404
 1032loPI   GL216174   1.339   9.442   6.099  0.0044  0.1866  0.1229
 1032loPI   C1A16175   1.606   9.048   6.448 -0.4525 -0.0586 -0.0912
 1032loPI   C2A16176   1.770   9.076   6.848 -0.1053 -0.1426 -0.1891
 1032loPI   C3A16177   1.597   8.991   7.275  0.0922 -0.4950 -0.3664
 1032loPI   C4A16178   1.737   9.058   7.629  0.0734  0.0865  0.1128
 1032loPI   C5A16179   1.666   8.909   8.041 -0.0098 -0.1494 -0.0533
 1032loPI   C6A16180   1.253   8.900   8.252 -0.0220 -0.2089  0.1199
 1032loPI   C1B16181   1.363   9.450   6.662 -0.3518 -0.0267  0.0448
 1032loPI   C2B16182   1.332   9.334   7.067  0.1123 -0.1870 -0.0710
 1032loPI   C3B16183   1.284   9.337   7.471 -0.2077 -0.0310 -0.1371
 1032loPI   C4B16184   1.316   9.347   7.825  0.2061 -0.3204  0.2129
 1033loPI    C116185   3.373   5.434   5.458 -0.3455  0.2349 -0.0738
 1033loPI    C216186   3.621   5.722   5.333 -0.2393  0.2688  0.2084
 1033loPI    C316187   3.710   5.339   5.266 -0.1405  0.2835  0.2542
 1033loPI   PO416188   3.300   5.516   5.782  0.1322 -0.0118  0.2211
 1033loPI   GL116189   3.253   5.484   6.163  0.2339 -0.0300 -0.0852
 1033loPI   GL216190   3.446   5.181   6.121 -0.0645 -0.0082  0.0754
 1033loPI   C1A16191   3.280   5.392   6.566  0.2780  0.0892 -0.0039
 1033loPI   C2A16192   3.302   5.278   7.060 -0.0578 -0.1023  0.1828
 1033loPI   C3A16193   3.364   5.305   7.455  0.0506 -0.1192  0.1521
 1033loPI   C4A16194   3.280   5.342   7.934  0.2420 -0.0399 -0.0266
 1033loPI   C5A16195   3.351   5.559   8.269 -0.1835  0.1177  0.1948
 1033loPI   C6A16196   3.414   6.017   8.496 -0.0094  0.0104  0.3852
 1033loPI   C1B16197   3.711   5.114   6.405  0.3383  0.1361 -0.1627
 1033loPI   C2B16198   3.659   5.035   6.807  0.3375 -0.1768  0.2638
 1033loPI   C3B16199   3.671   4.971   7.174 -0.0415 -0.0045 -0.0615
 1033loPI   C4B16200   3.772   4.968   7.580  0.0389 -0.1730 -0.1019
 1034loPI    C116201   5.608   3.067   5.734  0.4190  0.0423 -0.0518
 1034loPI    C216202   5.481   3.286   5.424  0.1296  0.1175  0.1168
 1034loPI    C316203   5.809   3.060   5.388  0.1718  0.2250 -0.2022
 1034loPI   PO416204   5.404   3.019   5.848  0.4128 -0.0400  0.3122
 1034loPI   GL116205   5.184   3.101   6.183  0.2565 -0.0263  0.1378
 1034loPI   GL216206   4.881   2.974   6.166  0.2042  0.1832  0.1416
 1034loPI   C1A16207   5.318   3.224   6.572  0.0858 -0.1363  0.0600
 1034loPI   C2A16208   5.296   3.204   7.017 -0.0716 -0.1470  0.1568
 1034loPI   C3A16209   5.231   3.158   7.433 -0.0512 -0.0050  0.3139
 1034loPI   C4A16210   5.335   3.114   7.866  0.2148 -0.2458 -0.0438
 1034loPI   C5A16211   5.445   3.170   8.331  0.1380 -0.1165  0.1246
 1034loPI   C6A16212   5.560   2.921   8.548 -0.0430  0.1672  0.2196
 1034loPI   C1B16213   4.764   3.116   6.508  0.1373 -0.0546  0.0801
 1034loPI   C2B16214   4.797   2.998   6.976  0.0251 -0.0210 -0.2537
 1034loPI   C3B16215   4.828   2.924   7.421  0.3088  0.0052  0.0769
 1034loPI   C4B16216   4.858   2.879   7.860  0.0828 -0.3055  0.4185
 1035loPI    C116217  17.170   4.092   5.978  0.1461  0.0460 -0.2040
 1035loPI    C216218  16.882   4.057   5.703  0.1180  0.1993 -0.1945
 1035loPI    C316219  17.158   3.769   5.742  0.0123  0.0891 -0.2563
 1035loPI   PO416220  17.042   4.087   6.206  0.1364  0.0917 -0.1515
 1035loPI   GL116221  17.271   4.233   6.611  0.1780  0.0876  0.1281
 1035loPI   GL216222  17.355   3.870   6.766 -0.2506  0.0204  0.1248
 1035loPI   C1A16223  17.312   4.374   6.982  0.1077  0.5221 -0.2582
 1035loPI   C2A16224  17.394   4.295   7.418 -0.0814 -0.3642 -0.1583
 1035loPI   C3A16225  17.448   4.390   7.927  0.0336 -0.2861 -0.1392
 1035loPI   C4A16226  17.605   4.550   8.278 -0.0008  0.1348 -0.1618
 1035loPI   C5A16227  18.020   4.382   8.477  0.0037 -0.3289 -0.0342
 1035loPI   C6A16228  18.300   4.032   8.619 -0.1266 -0.2215 -0.1028
 1035loPI   C1B16229  17.386   3.827   7.254  0.2656 -0.1401 -0.0284
 1035loPI   C2B16230  17.373   3.835   7.708 -0.1674 -0.3465  0.0804
 1035loPI   C3B16231  17.265   3.867   7.969  0.4020  0.2907 -0.0057
 1035loPI   C4B16232  17.239   4.069   8.404  0.0447  0.1764  0.0390
 1036loPI    C116233  11.882   4.748   5.421  0.0658 -0.1033 -0.0303
 1036loPI    C216234  12.089   5.029   5.226 -0.0029  0.0255  0.0812
 1036loPI    C316235  11.801   4.826   5.037  0.1803 -0.1103 -0.0565
 1036loPI   PO416236  11.869   4.879   5.716 -0.0101  0.1200  0.1906
 1036loPI   GL116237  11.874   4.890   6.120 -0.0863 -0.3493  0.1163
 1036loPI   GL216238  12.080   4.665   6.332  0.3183 -0.0561 -0.0602
 1036loPI   C1A16239  11.641   4.952   6.503 -0.1563 -0.2113 -0.0028
 1036loPI   C2A16240  11.611   4.905   6.945 -0.1226 -0.1220 -0.0482
 1036loPI   C3A16241  11.534   4.884   7.449 -0.1553 -0.1079 -0.1051
 1036loPI   C4A16242  11.576   4.891   7.870  0.3087  0.1068  0.1363
 1036loPI   C5A16243  11.620   4.915   8.357 -0.0198 -0.0297  0.0316
 1036loPI   C6A16244  11.383   4.735   8.781 -0.3252 -0.0175 -0.3366
 1036loPI   C1B16245  11.981   4.631   6.771 -0.3093  0.3579 -0.0411
 1036loPI   C2B16246  11.945   4.619   7.218 -0.0927  0.0090 -0.0316
 1036loPI   C3B16247  11.975   4.548   7.647  0.3234 -0.2810  0.2699
 1036loPI   C4B16248  11.974   4.563   8.141 -0.3101 -0.1697  0.1784
 1037loPI    C116249   8.564   7.535   5.607  0.1017 -0.0703 -0.0628
 1037loPI    C216250   8.647   7.883   5.428  0.2195 -0.1313 -0.1276
 1037loPI    C316251   8.271   7.747   5.437  0.1874 -0.0468 -0.1828
 1037loPI   PO416252   8.655   7.581   5.833 -0.0251  0.2886  0.0087
 1037loPI   GL116253   8.622   7.363   6.186  0.2024  0.0171  0.2930
 1037loPI   GL216254   8.886   7.711   6.253  0.0627 -0.3006  0.1037
 1037loPI   C1A16255   8.902   7.318   6.502  0.0196 -0.2986 -0.2967
 1037loPI   C2A16256   8.917   7.239   6.976 -0.0009  0.1986  0.3092
 1037loPI   C3A16257   8.787   7.290   7.372  0.1778 -0.1670 -0.1729
 1037loPI   C4A16258   8.833   7.138   7.799 -0.0014 -0.1330  0.0389
 1037loPI   C5A16259   8.874   7.051   8.160 -0.1983  0.0368  0.0453
 1037loPI   C6A16260   8.620   7.041   8.564 -0.1512  0.0329  0.0902
 1037loPI   C1B16261   8.987   7.760   6.750 -0.1118 -0.2692  0.1526
 1037loPI   C2B16262   8.917   7.779   7.156 -0.1885  0.1440 -0.0183
 1037loPI   C3B16263   8.972   7.799   7.567  0.0434  0.1745 -0.0947
 1037loPI   C4B16264   8.979   7.637   8.028  0.0853  0.0128 -0.0768
 1038loPI    C116265   7.325   5.220   5.336  0.1835  0.1996  0.1141
 1038loPI    C216266   7.184   5.110   4.978 -0.0507  0.0793  0.2410
 1038loPI    C316267   7.576   5.085   5.055 -0.0478 -0.2833  0.1296
 1038loPI   PO416268   7.179   5.057   5.536  0.0805  0.0283  0.1940
 1038loPI   GL116269   7.205   4.896   5.897  0.0163 -0.0722  0.0865
 1038loPI   GL216270   7.100   5.147   6.030 -0.5902  0.0704 -0.0206
 1038loPI   C1A16271   7.441   4.844   6.289 -0.0421 -0.1236 -0.0224
 1038loPI   C2A16272   7.436   4.809   6.767  0.1258  0.0195 -0.0949
 1038loPI   C3A16273   7.313   4.880   7.128  0.1445 -0.0483 -0.0226
 1038loPI   C4A16274   7.426   4.896   7.565 -0.1937  0.0531 -0.0384
 1038loPI   C5A16275   7.436   4.695   8.004  0.2523 -0.2686  0.0077
 1038loPI   C6A16276   7.062   4.680   8.262  0.1932 -0.2110  0.0458
 1038loPI   C1B16277   7.000   5.198   6.468  0.0242  0.1287 -0.2153
 1038loPI   C2B16278   7.039   5.116   6.826  0.3423 -0.1641  0.2357
 1038loPI   C3B16279   6.968   5.225   7.180  0.2144 -0.0758 -0.2377
 1038loPI   C4B16280   6.906   5.195   7.587  0.0696 -0.3790 -0.1546
 1039loPI    C116281  10.325   1.091   5.574  0.0679 -0.0131  0.0918
 1039loPI    C216282  10.637   1.236   5.371  0.0528  0.0513  0.1145
 1039loPI    C316283  10.562   0.843   5.367  0.0456  0.0535 -0.0142
 1039loPI   PO416284  10.299   1.154   5.897  0.0283  0.1630  0.1252
 1039loPI   GL116285  10.479   1.058   6.170  0.0961 -0.0590 -0.1243
 1039loPI   GL216286  10.277   0.774   6.265  0.2712  0.2405 -0.2370
 1039loPI   C1A16287  10.363   1.308   6.635 -0.0588 -0.0402 -0.3569
 1039loPI   C2A16288  10.439   1.202   7.057 -0.1642  0.1651  0.2996
 1039loPI   C3A16289  10.421   1.157   7.451 -0.1229  0.3712 -0.2213
 1039loPI   C4A16290  10.365   1.098   7.900  0.1673 -0.1492  0.1304
 1039loPI   C5A16291  10.744   1.064   8.271 -0.1575  0.1588 -0.2044
 1039loPI   C6A16292  10.992   0.744   8.412  0.2219  0.0164 -0.0397
 1039loPI   C1B16293  10.327   0.689   6.735  0.0757 -0.2202 -0.1033
 1039loPI   C2B16294  10.310   0.713   7.162 -0.1821 -0.1064 -0.4325
 1039loPI   C3B16295  10.355   0.626   7.625 -0.1329  0.1997 -0.1121
 1039loPI   C4B16296  10.457   0.625   8.132  0.0850 -0.0175  0.3598
 1040loPI    C116297   3.176  17.050   5.549 -0.1080 -0.0930 -0.0703
 1040loPI    C216298   3.477  17.100   5.290 -0.0709 -0.1641 -0.0411
 1040loPI    C316299   3.118  17.259   5.213  0.0050  0.0182 -0.0214
 1040loPI   PO416300   3.293  16.901   5.716 -0.2430  0.0280  0.1030
 1040loPI   GL116301   3.343  17.020   6.071 -0.1692 -0.2166 -0.2257
 1040loPI   GL216302   3.228  17.276   6.254 -0.1103  0.1712  0.1180
 1040loPI   C1A16303   3.641  16.777   6.437 -0.0097 -0.0095 -0.2266
 1040loPI   C2A16304   3.709  16.914   6.825  0.3046  0.1368 -0.1853
 1040loPI   C3A16305   3.765  16.870   7.298  0.0736  0.0770 -0.0340
 1040loPI   C4A16306   3.639  16.787   7.707 -0.1460 -0.0494  0.2249
 1040loPI   C5A16307   3.796  16.758   8.147  0.2874  0.2777  0.0312
 1040loPI   C6A16308   3.457  16.904   8.474 -0.0765 -0.0986  0.0474
 1040loPI   C1B16309   3.282  17.165   6.733 -0.0085  0.1236  0.1661
 1040loPI   C2B16310   3.304  17.190   7.262 -0.0205  0.1624  0.0971
 1040loPI   C3B16311   3.313  17.124   7.623 -0.1592 -0.1272 -0.0191
 1040loPI   C4B16312   3.391  17.175   8.032 -0.3946 -0.0872 -0.1609
 1041loPI    C116313   2.927   1.675   5.627  0.3976  0.3451  0.1347
 1041loPI    C216314   3.137   1.344   5.546 -0.0885  0.1491 -0.3940
 1041loPI    C316315   3.207   1.680   5.341  0.2271  0.3092 -0.0353
 1041loPI   PO416316   2.842   1.539   5.925 -0.0850 -0.1897 -0.0139
 1041loPI   GL116317   2.940   1.721   6.348  0.1821  0.2547 -0.0804
 1041loPI   GL216318   3.247   1.507   6.352  0.1472 -0.1454 -0.0485
 1041loPI   C1A16319   2.815   1.633   6.848 -0.0333  0.0027 -0.1477
 1041loPI   C2A16320   2.822   1.621   7.316 -0.0186 -0.1039  0.0133
 1041loPI   C3A16321   2.914   1.805   7.740 -0.1437 -0.1035  0.0767
 1041loPI   C4A16322   2.764   1.771   8.065 -0.1874  0.1361  0.2124
 1041loPI   C5A16323   2.858   1.532   8.444 -0.4275  0.2328 -0.0078
 1041loPI   C6A16324   3.341   1.458   8.574 -0.0457  0.0579 -0.1789
 1041loPI   C1B16325   3.265   1.449   6.762  0.1659 -0.1608  0.0876
 1041loPI   C2B16326   3.198   1.354   7.206  0.2046  0.1348  0.2681
 1041loPI   C3B16327   3.246   1.383   7.673 -0.2089  0.0165 -0.2009
 1041loPI   C4B16328   3.220   1.361   8.081  0.1161 -0.0153 -0.0734
 1042loPI    C116329   1.685  10.359   5.513 -0.1387  0.3801  0.0219
 1042loPI    C216330   1.501  10.480   5.179 -0.0272  0.0134 -0.1771
 1042loPI    C316331   1.863  10.310   5.158 -0.0539 -0.0869  0.1222
 1042loPI   PO416332   1.727  10.520   5.651 -0.4746  0.3756  0.0636
 1042loPI   GL116333   1.691  10.713   6.047 -0.1310 -0.0432  0.0043
 1042loPI   GL216334   1.716  10.467   6.211 -0.1473  0.1365  0.1714
 1042loPI   C1A16335   1.690  10.902   6.411 -0.0617  0.1990 -0.1002
 1042loPI   C2A16336   1.637  10.842   6.886 -0.1700 -0.2441  0.1537
 1042loPI   C3A16337   1.563  10.951   7.296  0.2517 -0.2178 -0.3363
 1042loPI   C4A16338   1.567  11.006   7.667 -0.1849 -0.0971 -0.1221
 1042loPI   C5A16339   1.467  10.957   8.086  0.0995  0.2150  0.0316
 1042loPI   C6A16340   1.233  11.109   8.373 -0.1700  0.0939 -0.1127
 1042loPI   C1B16341   1.604  10.401   6.646 -0.2066  0.1359  0.1427
 1042loPI   C2B16342   1.472  10.383   7.084  0.1180 -0.1622 -0.0032
 1042loPI   C3B16343   1.422  10.515   7.506 -0.0297  0.3238 -0.1161
 1042loPI   C4B16344   1.472  10.518   7.831  0.3281 -0.1759  0.1438
 1043loPI    C116345   8.050  11.979   5.684 -0.0924 -0.2921  0.2583
 1043loPI    C216346   8.429  12.019   5.563 -0.1319 -0.2667  0.1410
 1043loPI    C316347   8.171  11.803   5.346 -0.2828  0.0382  0.0109
 1043loPI   PO416348   8.041  11.874   5.885  0.0694 -0.1818 -0.0815
 1043loPI   GL116349   7.953  11.870   6.270  0.0696 -0.0844 -0.2946
 1043loPI   GL216350   7.869  12.170   6.472 -0.0731  0.2594 -0.0247
 1043loPI   C1A16351   8.230  11.749   6.523  0.0050  0.0388  0.3116
 1043loPI   C2A16352   8.330  11.831   6.897  0.3193  0.0760 -0.1156
 1043loPI   C3A16353   8.273  11.870   7.360 -0.0045  0.2252 -0.1918
 1043loPI   C4A16354   8.293  11.805   7.808 -0.0615 -0.1394 -0.2176
 1043loPI   C5A16355   8.187  11.772   8.277 -0.0946  0.0364  0.1079
 1043loPI   C6A16356   8.269  12.052   8.656 -0.0082  0.0186 -0.0137
 1043loPI   C1B16357   7.918  12.098   6.868  0.0908 -0.1522  0.1620
 1043loPI   C2B16358   7.912  12.285   7.285 -0.0675 -0.0765 -0.1135
 1043loPI   C3B16359   7.780  12.111   7.718 -0.3876 -0.2368 -0.0132
 1043loPI   C4B16360   7.813  12.104   8.179  0.0476  0.3219 -0.3049
 1044loPI    C116361  10.812   8.179   5.616 -0.2689 -0.1587 -0.0593
 1044loPI    C216362  10.925   7.919   5.335  0.0187 -0.0894 -0.0105
 1044loPI    C316363  10.753   8.264   5.229  0.1325 -0.0603 -0.1029
 1044loPI   PO416364  10.838   8.132   5.821 -0.1370 -0.3923 -0.0391
 1044loPI   GL116365  10.994   8.296   6.183  0.3145 -0.2804  0.1540
 1044loPI   GL216366  11.144   8.072   6.184  0.1265  0.2168 -0.2207
 1044loPI   C1A16367  10.899   8.462   6.667  0.0786  0.2285 -0.1832
 1044loPI   C2A16368  10.917   8.400   7.071 -0.0764 -0.1207  0.1348
 1044loPI   C3A16369  10.874   8.441   7.534  0.0122  0.0765  0.2456
 1044loPI   C4A16370  10.906   8.362   7.906 -0.1642 -0.0431 -0.2648
 1044loPI   C5A16371  10.988   8.205   8.254  0.2791 -0.3464 -0.2191
 1044loPI   C6A16372  10.797   8.231   8.736  0.3887 -0.2775 -0.0374
 1044loPI   C1B16373  11.315   8.003   6.508 -0.3458 -0.1926  0.0750
 1044loPI   C2B16374  11.323   8.073   6.927  0.0430 -0.1862  0.0183
 1044loPI   C3B16375  11.285   8.149   7.362  0.2999  0.0531 -0.4807
 1044loPI   C4B16376  11.331   8.049   7.783 -0.2237  0.3597 -0.1369
 1045loPI    C116377  15.000  15.992   5.814 -0.0886 -0.1734 -0.3031
 1045loPI    C216378  14.693  15.741   5.867 -0.1153 -0.1295 -0.2486
 1045loPI    C316379  14.785  15.871   5.500  0.0130 -0.3633 -0.3013
 1045loPI   PO416380  15.114  15.895   6.101 -0.1268 -0.0359  0.1031
 1045loPI   GL116381  15.313  15.628   6.501 -0.0072  0.0747  0.0191
 1045loPI   GL216382  15.590  15.612   6.547 -0.1873 -0.0326  0.0805
 1045loPI   C1A16383  15.195  15.706   6.945  0.1187  0.0655  0.0663
 1045loPI   C2A16384  15.155  15.626   7.400 -0.2766  0.2464  0.2630
 1045loPI   C3A16385  15.157  15.517   7.805 -0.1693 -0.0044 -0.0595
 1045loPI   C4A16386  15.268  15.347   8.253 -0.0319 -0.1652 -0.0335
 1045loPI   C5A16387  15.409  15.125   8.634 -0.0231 -0.1214 -0.0697
 1045loPI   C6A16388  15.217  14.898   8.912  0.1336  0.3363  0.0138
 1045loPI   C1B16389  15.590  15.370   6.914  0.3995  0.0939 -0.2166
 1045loPI   C2B16390  15.661  15.296   7.376 -0.0790 -0.0145  0.0670
 1045loPI   C3B16391  15.660  15.237   7.847 -0.1005  0.1330  0.0808
 1045loPI   C4B16392  15.726  15.128   8.228 -0.0102 -0.1773 -0.0990
 1046loPI    C116393  10.469   2.540   5.992  0.0279 -0.1826 -0.0820
 1046loPI    C216394  10.408   2.617   5.604 -0.0899 -0.0966 -0.0465
 1046loPI    C316395  10.719   2.781   5.794  0.0120 -0.1997 -0.1232
 1046loPI   PO416396  10.257   2.621   6.183 -0.3412  0.2082  0.0995
 1046loPI   GL116397  10.170   2.595   6.531 -0.2164  0.1553 -0.0411
 1046loPI   GL216398  10.186   2.911   6.591  0.2714  0.1266  0.1563
 1046loPI   C1A16399  10.189   2.622   6.997  0.1279  0.1936 -0.3509
 1046loPI   C2A16400  10.244   2.492   7.407  0.1751  0.1506 -0.2765
 1046loPI   C3A16401  10.211   2.538   7.812  0.1332  0.0707  0.1598
 1046loPI   C4A16402  10.229   2.480   8.281 -0.1010  0.0026 -0.0687
 1046loPI   C5A16403  10.392   2.162   8.550 -0.3303 -0.0816 -0.1288
 1046loPI   C6A16404  10.451   1.779   8.805 -0.2546 -0.1555  0.0274
 1046loPI   C1B16405  10.265   3.093   6.979 -0.1074  0.2661  0.0166
 1046loPI   C2B16406  10.290   3.102   7.313 -0.2633  0.0108 -0.2480
 1046loPI   C3B16407  10.221   3.075   7.769 -0.0308 -0.1119 -0.3730
 1046loPI   C4B16408  10.304   3.005   8.207  0.2561 -0.0888  0.3418
 1047loPI    C116409   3.918   6.138   5.523 -0.1915 -0.2340  0.2032
 1047loPI    C216410   3.743   6.187   5.167  0.1199  0.1109  0.0911
 1047loPI    C316411   4.103   6.015   5.190 -0.0670 -0.2661  0.2836
 1047loPI   PO416412   3.827   6.361   5.628  0.2134  0.0136  0.0396
 1047loPI   GL116413   3.549   6.446   5.911  0.1903 -0.0141 -0.2302
 1047loPI   GL216414   3.871   6.211   6.129  0.2839 -0.1151  0.2018
 1047loPI   C1A16415   3.407   6.346   6.329 -0.1053  0.1840 -0.1027
 1047loPI   C2A16416   3.522   6.374   6.759 -0.2143 -0.2495  0.1529
 1047loPI   C3A16417   3.496   6.324   7.194 -0.0954 -0.4180  0.0011
 1047loPI   C4A16418   3.545   6.369   7.673 -0.1604  0.2519 -0.1415
 1047loPI   C5A16419   3.584   6.363   8.068 -0.4714  0.0539 -0.1099
 1047loPI   C6A16420   3.448   6.685   8.483 -0.0179  0.2123  0.1328
 1047loPI   C1B16421   3.915   6.039   6.524  0.2075  0.0298  0.0216
 1047loPI   C2B16422   3.915   6.094   6.957 -0.0111  0.1059  0.1855
 1047loPI   C3B16423   3.858   6.003   7.408  0.0175  0.1234 -0.2046
 1047loPI   C4B16424   3.866   6.024   7.775  0.1328  0.0860  0.0711
 1048loPI    C116425  14.804   4.724   5.852  0.0276 -0.2422 -0.0232
 1048loPI    C216426  15.005   4.910   5.560 -0.0263 -0.0292  0.0732
 1048loPI    C316427  14.606   4.892   5.548 -0.0286 -0.0216  0.1329
 1048loPI   PO416428  14.837   4.825   6.066  0.1305  0.2030  0.1731
 1048loPI   GL116429  14.615   4.916   6.424 -0.2125 -0.0069  0.0055
 1048loPI   GL216430  14.537   5.236   6.370  0.3156  0.3255 -0.1579
 1048loPI   C1A16431  14.425   4.937   6.813  0.0889 -0.4382 -0.3153
 1048loPI   C2A16432  14.278   4.858   7.212 -0.3317 -0.0837 -0.0637
 1048loPI   C3A16433  14.317   4.833   7.709 -0.0884  0.0077  0.0084
 1048loPI   C4A16434  14.328   4.925   8.230 -0.2111  0.1383  0.3318
 1048loPI   C5A16435  14.406   5.066   8.560 -0.2199 -0.2082  0.1481
 1048loPI   C6A16436  14.467   4.891   8.905 -0.0790  0.1407 -0.1021
 1048loPI   C1B16437  14.403   5.452   6.818 -0.1505 -0.0692  0.0037
 1048loPI   C2B16438  14.486   5.430   7.190  0.2969  0.1272 -0.0720
 1048loPI   C3B16439  14.390   5.504   7.590  0.2989 -0.1791 -0.1247
 1048loPI   C4B16440  14.444   5.417   8.074  0.3910 -0.0496 -0.0690
 1049loPI    C116441   9.504   5.600   5.444  0.0915 -0.1502  0.1004
 1049loPI    C216442   9.401   5.274   5.236  0.1058 -0.0269 -0.1029
 1049loPI    C316443   9.280   5.635   5.115 -0.2017  0.0174  0.3132
 1049loPI   PO416444   9.454   5.499   5.693 -0.2705 -0.0480  0.2010
 1049loPI   GL116445   9.365   5.534   6.229 -0.3077 -0.1075  0.0972
 1049loPI   GL216446   9.525   5.837   6.143 -0.1192  0.0456  0.1267
 1049loPI   C1A16447   9.402   5.544   6.728 -0.1842  0.0194 -0.4400
 1049loPI   C2A16448   9.429   5.536   7.158  0.0131  0.0775  0.0667
 1049loPI   C3A16449   9.426   5.535   7.585  0.0043 -0.1757  0.0663
 1049loPI   C4A16450   9.232   5.610   7.998  0.1644  0.2504  0.0855
 1049loPI   C5A16451   9.297   5.855   8.337 -0.0007 -0.1276  0.0416
 1049loPI   C6A16452   9.026   6.133   8.532  0.0668  0.3895 -0.2016
 1049loPI   C1B16453   9.561   6.016   6.571  0.1029  0.2387  0.1412
 1049loPI   C2B16454   9.583   6.012   6.929 -0.0827  0.2427 -0.1445
 1049loPI   C3B16455   9.534   6.016   7.399 -0.1250 -0.0943  0.0341
 1049loPI   C4B16456   9.545   6.052   7.790 -0.2993  0.0743  0.1882
 1050loPI    C116457   9.983   4.045   5.340  0.3462 -0.1603 -0.0813
 1050loPI    C216458   9.737   3.755   5.214  0.2612 -0.1894  0.1474
 1050loPI    C316459   9.979   3.939   4.954 -0.1460 -0.0198 -0.1210
 1050loPI   PO416460   9.891   4.089   5.572 -0.2853  0.3037  0.0592
 1050loPI   GL116461   9.901   4.169   6.013 -0.2218  0.0928  0.1552
 1050loPI   GL216462  10.137   4.177   6.219  0.0286 -0.2941  0.1652
 1050loPI   C1A16463   9.718   4.360   6.355 -0.1129 -0.0110 -0.0539
 1050loPI   C2A16464   9.653   4.286   6.781 -0.0281  0.1192  0.0066
 1050loPI   C3A16465   9.663   4.254   7.198  0.0647 -0.0552  0.2585
 1050loPI   C4A16466   9.667   4.195   7.593  0.3856  0.1766 -0.2753
 1050loPI   C5A16467   9.604   4.195   8.052 -0.0252 -0.2449 -0.1764
 1050loPI   C6A16468   9.565   4.032   8.520  0.2441  0.0981  0.1295
 1050loPI   C1B16469  10.137   4.308   6.628 -0.1370  0.0185 -0.3367
 1050loPI   C2B16470  10.127   4.371   7.131 -0.0762  0.1163 -0.1538
 1050loPI   C3B16471  10.137   4.360   7.589 -0.1277 -0.1109 -0.0053
 1050loPI   C4B16472  10.128   4.402   8.012  0.2594  0.2333 -0.1243
 1051loPI    C116473   6.504   7.823   5.573 -0.0449 -0.1227 -0.2857
 1051loPI    C216474   6.740   8.055   5.348 -0.0007 -0.0389 -0.1539
 1051loPI    C316475   6.364   7.980   5.233 -0.0863  0.2772 -0.0898
 1051loPI   PO416476   6.527   7.962   5.874 -0.0442 -0.0331 -0.0527
 1051loPI   GL116477   6.435   7.799   6.266 -0.0698 -0.3065 -0.1858
 1051loPI   GL216478   6.093   7.998   6.216 -0.2588 -0.2110 -0.1826
 1051loPI   C1A16479   6.469   7.862   6.765  0.1657  0.3151 -0.1617
 1051loPI   C2A16480   6.534   7.870   7.271  0.1433  0.0750  0.2597
 1051loPI   C3A16481   6.511   7.872   7.715  0.0875  0.4311  0.1270
 1051loPI   C4A16482   6.784   7.836   8.113 -0.2574 -0.0249 -0.2175
 1051loPI   C5A16483   6.807   8.029   8.418  0.0766  0.0327  0.1323
 1051loPI   C6A16484   6.959   8.422   8.577 -0.1638  0.1460  0.1987
 1051loPI   C1B16485   6.010   7.842   6.617 -0.2525  0.2507 -0.1309
 1051loPI   C2B16486   6.006   7.799   7.053  0.0142  0.0805  0.0176
 1051loPI   C3B16487   6.083   7.744   7.514  0.0552  0.0378 -0.0677
 1051loPI   C4B16488   6.045   7.775   7.956  0.3147 -0.1423 -0.1637
 1052loPI    C116489  13.667   7.640   5.606  0.1253  0.1701  0.0285
 1052loPI    C216490  13.771   7.867   5.293  0.0537 -0.0153 -0.1321
 1052loPI    C316491  13.588   7.516   5.234 -0.1589  0.0487  0.1267
 1052loPI   PO416492  13.575   7.777   5.712 -0.0890  0.3477  0.0117
 1052loPI   GL116493  13.566   7.986   6.123  0.0061 -0.1624 -0.0544
 1052loPI   GL216494  13.518   8.326   6.097 -0.1725  0.1658 -0.0530
 1052loPI   C1A16495  13.580   7.933   6.625 -0.1101  0.0002 -0.0874
 1052loPI   C2A16496  13.625   8.001   7.065 -0.1574 -0.0682 -0.1559
 1052loPI   C3A16497  13.613   7.909   7.516 -0.0139 -0.0192  0.1875
 1052loPI   C4A16498  13.685   7.817   7.923 -0.0280 -0.0749 -0.1659
 1052loPI   C5A16499  13.873   7.594   8.170 -0.1598  0.3987  0.0626
 1052loPI   C6A16500  13.826   7.117   8.314 -0.0425 -0.0081 -0.0819
 1052loPI   C1B16501  13.649   8.445   6.496  0.0112  0.0265  0.3668
 1052loPI   C2B16502  13.768   8.517   6.985 -0.0918  0.1803 -0.1502
 1052loPI   C3B16503  13.719   8.426   7.375 -0.1475  0.0116 -0.2510
 1052loPI   C4B16504  13.790   8.458   7.832  0.2180  0.2759 -0.0979
 1053loPI    C116505  16.493  10.007   5.585  0.0324 -0.0482 -0.0615
 1053loPI    C216506  16.245  10.178   5.322 -0.1371 -0.0873  0.0709
 1053loPI    C316507  16.431   9.836   5.229  0.0442  0.0590 -0.1157
 1053loPI   PO416508  16.352  10.008   5.801  0.1123 -0.2828  0.0175
 1053loPI   GL116509  16.322   9.922   6.280  0.2320 -0.1375  0.1673
 1053loPI   GL216510  16.405   9.620   6.152 -0.0396  0.1227  0.3260
 1053loPI   C1A16511  16.290   9.884   6.789 -0.2573 -0.2485  0.0828
 1053loPI   C2A16512  16.286   9.831   7.237 -0.2131  0.1028 -0.1250
 1053loPI   C3A16513  16.295   9.804   7.601  0.2968  0.1368  0.2649
 1053loPI   C4A16514  16.208   9.849   7.990  0.0404  0.0482 -0.1631
 1053loPI   C5A16515  16.088  10.214   8.264  0.0158 -0.0611  0.1184
 1053loPI   C6A16516  16.055  10.416   8.682  0.4279 -0.0232  0.0178
 1053loPI   C1B16517  16.120   9.445   6.472  0.1066 -0.0780  0.1338
 1053loPI   C2B16518  16.171   9.386   6.904 -0.1416 -0.1088  0.1168
 1053loPI   C3B16519  16.252   9.317   7.312 -0.0582 -0.5119  0.0987
 1053loPI   C4B16520  16.169   9.296   7.722  0.2733 -0.1635 -0.2287
 1054loPI    C116521   6.709   2.223   5.791  0.0607  0.1270 -0.0919
 1054loPI    C216522   6.938   2.234   5.463  0.1093 -0.0425 -0.0649
 1054loPI    C316523   6.645   1.964   5.493 -0.1455  0.2208 -0.1306
 1054loPI   PO416524   6.899   2.298   5.977  0.1584 -0.1071  0.0123
 1054loPI   GL116525   7.186   2.321   6.364 -0.1875 -0.1728 -0.0175
 1054loPI   GL216526   7.472   2.129   6.240 -0.3091  0.1235  0.0372
 1054loPI   C1A16527   6.961   2.319   6.824 -0.0262 -0.1066  0.1305
 1054loPI   C2A16528   6.978   2.323   7.305 -0.1339  0.1463 -0.0996
 1054loPI   C3A16529   7.004   2.315   7.792  0.3487 -0.0113 -0.3967
 1054loPI   C4A16530   7.021   2.279   8.173  0.1295 -0.1924 -0.5030
 1054loPI   C5A16531   6.888   2.597   8.458 -0.0900 -0.0036 -0.0448
 1054loPI   C6A16532   6.986   2.222   8.713 -0.0963 -0.0460  0.6234
 1054loPI   C1B16533   7.842   2.143   6.502 -0.2494 -0.1148 -0.0033
 1054loPI   C2B16534   7.878   2.197   6.887 -0.0161 -0.0138 -0.3290
 1054loPI   C3B16535   7.876   2.115   7.305  0.0842 -0.2119  0.2577
 1054loPI   C4B16536   7.885   2.128   7.788  0.6134 -0.3628  0.3657
 1055loPI    C116537   4.357   5.783   5.648  0.1295  0.1148  0.0162
 1055loPI    C216538   4.128   5.566   5.403  0.0400  0.2461 -0.0169
 1055loPI    C316539   4.504   5.653   5.300  0.0850  0.0846  0.0086
 1055loPI   PO416540   4.238   5.776   5.969  0.0852 -0.1624 -0.0033
 1055loPI   GL116541   3.988   5.627   6.228 -0.2709 -0.1081  0.0005
 1055loPI   GL216542   3.699   5.651   6.238  0.0162 -0.0435  0.4287
 1055loPI   C1A16543   3.774   5.540   6.714 -0.2580  0.0247 -0.2150
 1055loPI   C2A16544   3.741   5.552   7.147  0.1366  0.0255 -0.0250
 1055loPI   C3A16545   3.803   5.535   7.530 -0.0493 -0.0486  0.2462
 1055loPI   C4A16546   3.798   5.418   7.912 -0.3243  0.3083 -0.1490
 1055loPI   C5A16547   3.945   5.434   8.364  0.0417 -0.0081 -0.4895
 1055loPI   C6A16548   4.067   5.388   8.912  0.2000 -0.0354 -0.0054
 1055loPI   C1B16549   3.426   5.862   6.478  0.0619  0.0788  0.1852
 1055loPI   C2B16550   3.400   5.904   6.918 -0.0999 -0.0768 -0.0430
 1055loPI   C3B16551   3.378   5.818   7.365 -0.1894 -0.1233  0.2564
 1055loPI   C4B16552   3.433   5.826   7.825  0.1909 -0.0109  0.0796
 1056loPI    C116553   4.864   2.257   5.568  0.0629 -0.0843 -0.0164
 1056loPI    C216554   4.863   2.098   5.201 -0.0856 -0.0658 -0.0248
 1056loPI    C316555   5.119   2.392   5.291 -0.1927  0.0766 -0.1786
 1056loPI   PO416556   4.683   2.136   5.712 -0.2624  0.3822  0.0436
 1056loPI   GL116557   4.664   2.229   6.075  0.0146  0.2197 -0.0107
 1056loPI   GL216558   4.961   2.399   6.062  0.1198  0.1282 -0.0131
 1056loPI   C1A16559   4.625   1.992   6.485 -0.0413 -0.0667  0.1389
 1056loPI   C2A16560   4.663   1.844   6.897 -0.0924 -0.0859  0.0411
 1056loPI   C3A16561   4.591   1.827   7.367  0.2512  0.2135  0.0294
 1056loPI   C4A16562   4.687   1.886   7.703 -0.2929  0.1321  0.0387
 1056loPI   C5A16563   4.670   1.975   8.149 -0.1821  0.0380 -0.2862
 1056loPI   C6A16564   4.613   1.883   8.616  0.0028 -0.2551  0.0141
 1056loPI   C1B16565   5.135   2.553   6.396  0.1599 -0.0725 -0.1970
 1056loPI   C2B16566   5.190   2.648   6.788  0.0422 -0.0343 -0.1576
 1056loPI   C3B16567   5.241   2.532   7.210 -0.0066 -0.0907  0.1280
 1056loPI   C4B16568   5.243   2.640   7.663 -0.1611  0.0727 -0.4013
 1057loPI    C116569  16.368   3.042   5.602  0.1199  0.1110 -0.0391
 1057loPI    C216570  16.376   3.331   5.326  0.1162  0.1612  0.0133
 1057loPI    C316571  16.057   3.091   5.355  0.2088  0.0139 -0.1713
 1057loPI   PO416572  16.455   3.119   5.808  0.0048  0.3345 -0.0922
 1057loPI   GL116573  16.207   3.071   6.252  0.1737  0.0880 -0.0416
 1057loPI   GL216574  16.606   3.192   6.361  0.2817  0.0566 -0.0124
 1057loPI   C1A16575  16.215   3.153   6.683 -0.2799  0.1994  0.2583
 1057loPI   C2A16576  16.228   3.124   7.090 -0.0705 -0.1582 -0.0633
 1057loPI   C3A16577  16.162   3.073   7.629  0.3165 -0.2715 -0.0129
 1057loPI   C4A16578  16.156   3.082   8.103  0.0038 -0.2297  0.3622
 1057loPI   C5A16579  16.166   2.852   8.407  0.1285 -0.1035 -0.2629
 1057loPI   C6A16580  16.256   2.528   8.528  0.3567 -0.1148  0.2306
 1057loPI   C1B16581  16.612   2.847   6.772  0.0440 -0.1464 -0.2654
 1057loPI   C2B16582  16.618   2.811   7.264 -0.1216  0.3444  0.0058
 1057loPI   C3B16583  16.629   2.744   7.760  0.1646 -0.1772 -0.2208
 1057loPI   C4B16584  16.623   2.682   8.187 -0.2845  0.1762  0.0072
 1058loPI    C116585  15.209   6.496   5.778 -0.0043 -0.1778  0.1096
 1058loPI    C216586  15.015   6.258   5.522  0.0752 -0.1632  0.0351
 1058loPI    C316587  15.411   6.222   5.568  0.1013  0.0144 -0.0433
 1058loPI   PO416588  15.152   6.521   5.975  0.2049 -0.0326  0.2420
 1058loPI   GL116589  15.225   6.404   6.434 -0.0154  0.0517 -0.0483
 1058loPI   GL216590  15.187   6.094   6.485 -0.2009  0.2305 -0.2399
 1058loPI   C1A16591  15.188   6.677   6.810  0.0194  0.1919 -0.0835
 1058loPI   C2A16592  15.224   6.603   7.226 -0.0007 -0.1948  0.3232
 1058loPI   C3A16593  15.200   6.571   7.655  0.0681 -0.0263 -0.0589
 1058loPI   C4A16594  15.180   6.606   8.099 -0.1116 -0.2293  0.1624
 1058loPI   C5A16595  14.891   6.737   8.450 -0.2906 -0.0365 -0.0757
 1058loPI   C6A16596  14.652   6.703   8.800  0.0922  0.2088  0.3295
 1058loPI   C1B16597  15.092   6.213   6.937 -0.1880 -0.0545  0.1527
 1058loPI   C2B16598  15.080   6.108   7.335  0.1596 -0.1406  0.2827
 1058loPI   C3B16599  15.104   6.050   7.776 -0.0485 -0.1730  0.0638
 1058loPI   C4B16600  15.024   6.109   8.277  0.0455 -0.1314  0.0477
 1059loPI    C116601  17.147   5.846   5.671  0.0645  0.1423  0.0185
 1059loPI    C216602  17.085   6.066   5.343  0.1665  0.2597  0.0771
 1059loPI    C316603  17.448   6.057   5.512  0.2101 -0.0959 -0.0274
 1059loPI   PO416604  16.971   5.917   5.854  0.1357  0.2090  0.2606
 1059loPI   GL116605  16.945   6.064   6.229 -0.0283  0.1932 -0.1163
 1059loPI   GL216606  16.854   5.853   6.418 -0.1904  0.0698  0.0939
 1059loPI   C1A16607  17.007   6.364   6.577  0.0602 -0.4663  0.0610
 1059loPI   C2A16608  16.972   6.374   6.950  0.1627 -0.1802  0.1825
 1059loPI   C3A16609  17.055   6.277   7.452  0.0420  0.0724  0.0997
 1059loPI   C4A16610  16.923   6.266   7.847  0.1983 -0.0680  0.2854
 1059loPI   C5A16611  16.909   6.066   8.328 -0.0024  0.2121 -0.0779
 1059loPI   C6A16612  17.229   6.081   8.612  0.0706 -0.0806  0.0316
 1059loPI   C1B16613  16.855   5.926   6.904 -0.3001  0.1430  0.2118
 1059loPI   C2B16614  16.952   5.799   7.247  0.0860  0.0249 -0.1924
 1059loPI   C3B16615  16.849   5.783   7.686 -0.1820  0.2003  0.0435
 1059loPI   C4B16616  17.158   5.846   7.976  0.0443 -0.4056 -0.0738
 1060loPI    C116617   6.441   8.631   5.820 -0.0614  0.0199  0.1233
 1060loPI    C216618   6.417   8.425   5.479  0.0797  0.0430  0.0989
 1060loPI    C316619   6.591   8.785   5.483  0.0342  0.0642  0.1854
 1060loPI   PO416620   6.297   8.451   5.969 -0.2216  0.3515  0.0499
 1060loPI   GL116621   5.990   8.475   6.183  0.2167 -0.0744  0.3165
 1060loPI   GL216622   5.753   8.605   6.317  0.2419  0.2511 -0.1233
 1060loPI   C1A16623   6.138   8.390   6.593 -0.2973  0.1225  0.2293
 1060loPI   C2A16624   6.131   8.290   7.009  0.2060  0.2920 -0.0685
 1060loPI   C3A16625   6.235   8.290   7.453 -0.2068 -0.0135  0.1020
 1060loPI   C4A16626   6.194   8.279   7.889  0.0814  0.1825  0.1420
 1060loPI   C5A16627   6.320   8.092   8.255  0.1659 -0.0349 -0.1488
 1060loPI   C6A16628   6.350   8.124   8.643 -0.0595 -0.2519 -0.5109
 1060loPI   C1B16629   5.730   8.600   6.789 -0.2232 -0.0522  0.0751
 1060loPI   C2B16630   5.737   8.571   7.188  0.0628  0.0656  0.0626
 1060loPI   C3B16631   5.735   8.554   7.629  0.3864 -0.0254 -0.0747
 1060loPI   C4B16632   5.728   8.534   8.046  0.0851 -0.6676  0.1262
 1061loPI    C116633  13.961   1.122   5.954  0.1421 -0.1635  0.1220
 1061loPI    C216634  13.615   1.172   5.761  0.1017 -0.0325  0.2262
 1061loPI    C316635  13.882   0.905   5.628 -0.0689 -0.1856  0.1863
 1061loPI   PO416636  13.831   1.171   6.195  0.3124 -0.0989  0.1075
 1061loPI   GL116637  13.700   0.931   6.454  0.1529  0.1326  0.3445
 1061loPI   GL216638  13.545   1.239   6.605 -0.0042 -0.2138 -0.0154
 1061loPI   C1A16639  13.907   0.874   6.815 -0.0273 -0.1510 -0.2256
 1061loPI   C2A16640  13.871   0.862   7.175  0.2202 -0.1915  0.0460
 1061loPI   C3A16641  13.993   0.947   7.545 -0.0003  0.1072  0.3346
 1061loPI   C4A16642  14.038   0.943   7.992  0.2919  0.0980 -0.2028
 1061loPI   C5A16643  14.124   0.949   8.431  0.0410  0.0785  0.1080
 1061loPI   C6A16644  14.275   1.201   8.776 -0.4753  0.0449 -0.1188
 1061loPI   C1B16645  13.510   1.265   7.109 -0.1386  0.0379 -0.2600
 1061loPI   C2B16646  13.630   1.240   7.491  0.1389 -0.1177  0.1273
 1061loPI   C3B16647  13.636   1.313   8.011 -0.2117  0.0882  0.1267
 1061loPI   C4B16648  13.734   1.293   8.426  0.4845 -0.0930  0.1340
 1062loPI    C116649   8.955   5.293   5.439 -0.1510 -0.1883  0.2272
 1062loPI    C216650   8.872   4.932   5.288  0.1434 -0.1546 -0.0276
 1062loPI    C316651   8.798   5.261   5.072 -0.0908 -0.0613  0.1895
 1062loPI   PO416652   9.025   5.205   5.665  0.1971 -0.0983  0.2017
 1062loPI   GL116653   9.021   5.159   6.060  0.2198 -0.2202  0.1790
 1062loPI   GL216654   9.125   4.946   6.139 -0.1557 -0.1040 -0.4492
 1062loPI   C1A16655   8.914   5.428   6.504  0.1956  0.1037 -0.5261
 1062loPI   C2A16656   8.978   5.381   6.950 -0.2198  0.1735 -0.1558
 1062loPI   C3A16657   8.844   5.420   7.447 -0.2030  0.1212 -0.0586
 1062loPI   C4A16658   8.877   5.344   7.894 -0.3177  0.0176 -0.1342
 1062loPI   C5A16659   8.738   5.185   8.247 -0.2628 -0.1039  0.2275
 1062loPI   C6A16660   8.822   4.809   8.522 -0.0540 -0.0197  0.0912
 1062loPI   C1B16661   9.296   5.104   6.545  0.0107 -0.0997  0.1769
 1062loPI   C2B16662   9.318   5.036   6.990  0.1235 -0.3399  0.0028
 1062loPI   C3B16663   9.317   5.077   7.442  0.2857 -0.1239 -0.3089
 1062loPI   C4B16664   9.321   5.113   7.814  0.0164 -0.0761  0.0504
 1063loPI    C116665   9.369  14.810   5.951  0.1387 -0.4460 -0.1111
 1063loPI    C216666   9.103  14.814   5.652 -0.3386  0.2905  0.2938
 1063loPI    C316667   9.431  15.043   5.631 -0.1267 -0.0207  0.1377
 1063loPI   PO416668   9.189  14.920   6.136 -0.1426 -0.0792  0.2121
 1063loPI   GL116669   9.289  15.096   6.472  0.1506  0.2287  0.3424
 1063loPI   GL216670   9.549  15.206   6.544 -0.2080 -0.0860 -0.1953
 1063loPI   C1A16671   9.316  14.958   6.931 -0.0636  0.0776  0.1488
 1063loPI   C2A16672   9.363  14.964   7.313 -0.0349  0.0992 -0.2252
 1063loPI   C3A16673   9.293  14.878   7.735  0.1883  0.1438 -0.2024
 1063loPI   C4A16674   9.362  14.844   8.266 -0.1869  0.1757 -0.1365
 1063loPI   C5A16675   9.361  15.249   8.611  0.1166  0.1398  0.2687
 1063loPI   C6A16676   9.757  15.367   8.839  0.0246  0.3484  0.0542
 1063loPI   C1B16677   9.770  15.243   6.934 -0.0479  0.1608 -0.0542
 1063loPI   C2B16678   9.853  15.196   7.327 -0.0195  0.1830  0.0481
 1063loPI   C3B16679   9.796  15.168   7.719 -0.0685  0.0892  0.3015
 1063loPI   C4B16680   9.862  15.015   8.191  0.0946  0.1249  0.1150
 1064loPI    C116681   7.783   1.248   5.793 -0.3378  0.1222 -0.0406
 1064loPI    C216682   7.986   1.249   5.448  0.0552 -0.0487  0.1824
 1064loPI    C316683   8.002   1.567   5.690 -0.1918  0.0571  0.0634
 1064loPI   PO416684   7.851   1.048   5.980 -0.1812  0.3647  0.1401
 1064loPI   GL116685   7.666   1.011   6.378  0.4309  0.2583  0.0340
 1064loPI   GL216686   7.830   1.307   6.418 -0.3395  0.0792 -0.0633
 1064loPI   C1A16687   7.696   1.093   6.847  0.2210 -0.3098  0.2642
 1064loPI   C2A16688   7.662   1.103   7.273  0.0565 -0.1957  0.1986
 1064loPI   C3A16689   7.742   1.107   7.741  0.0122 -0.0685  0.0345
 1064loPI   C4A16690   7.594   1.023   8.199  0.1898  0.0770  0.1431
 1064loPI   C5A16691   7.383   1.072   8.685  0.2680 -0.1460 -0.0922
 1064loPI   C6A16692   7.042   1.236   9.018  0.0268  0.2542 -0.1145
 1064loPI   C1B16693   8.127   1.302   6.806 -0.1731 -0.0490 -0.0873
 1064loPI   C2B16694   8.150   1.235   7.335  0.1122 -0.0466 -0.0558
 1064loPI   C3B16695   8.250   1.311   7.832  0.0047 -0.1671  0.3377
 1064loPI   C4B16696   8.269   1.269   8.249  0.1185  0.2369  0.1853
 1065loPI    C116697   1.562   1.642   5.996  0.0413 -0.0196  0.0685
 1065loPI    C216698   1.202   1.709   5.837  0.0758 -0.0163 -0.0086
 1065loPI    C316699   1.383   1.358   5.779  0.1680  0.0506 -0.1306
 1065loPI   PO416700   1.604   1.659   6.223  0.1014  0.0985 -0.1351
 1065loPI   GL116701   1.502   1.774   6.559 -0.0187 -0.0126  0.2327
 1065loPI   GL216702   1.381   1.634   6.808 -0.1575  0.2149  0.2525
 1065loPI   C1A16703   1.590   2.170   6.926 -0.4632  0.3194  0.0125
 1065loPI   C2A16704   1.707   2.256   7.308  0.5506 -0.2907 -0.2964
 1065loPI   C3A16705   1.598   2.267   7.792  0.3537 -0.0530  0.2277
 1065loPI   C4A16706   1.565   2.246   8.235 -0.2828 -0.0394 -0.2576
 1065loPI   C5A16707   1.643   1.959   8.512 -0.2146 -0.2665 -0.2628
 1065loPI   C6A16708   1.576   1.608   8.659 -0.2416  0.0121 -0.0957
 1065loPI   C1B16709   0.967   1.519   7.094 -0.3058 -0.3736  0.0688
 1065loPI   C2B16710   0.920   1.517   7.540  0.0827  0.0481  0.1552
 1065loPI   C3B16711   0.987   1.614   7.941  0.0187  0.1004 -0.3291
 1065loPI   C4B16712   1.518   1.718   8.062  0.0678  0.0413  0.2105
 1066loPI    C116713  13.171  16.749   5.784  0.0267 -0.2429  0.2488
 1066loPI    C216714  13.370  16.830   5.446 -0.0845 -0.0174  0.2356
 1066loPI    C316715  13.162  16.491   5.479  0.1202 -0.1514  0.1675
 1066loPI   PO416716  13.044  16.972   5.874  0.1962 -0.2193 -0.0544
 1066loPI   GL116717  12.994  17.093   6.291 -0.0141 -0.1424  0.1911
 1066loPI   GL216718  13.185  16.931   6.552 -0.3026 -0.0261  0.0279
 1066loPI   C1A16719  12.843  17.260   6.737 -0.0131 -0.1445 -0.0708
 1066loPI   C2A16720  12.789  17.239   7.188 -0.3769  0.1335 -0.0643
 1066loPI   C3A16721  12.817  17.327   7.699  0.3460  0.4124 -0.0765
 1066loPI   C4A16722  12.866  17.320   8.111  0.0430 -0.0193 -0.0388
 1066loPI   C5A16723  13.045  17.102   8.475  0.0589 -0.0710  0.0787
 1066loPI   C6A16724  13.115  16.610   8.448  0.0409  0.1622  0.0105
 1066loPI   C1B16725  13.186  16.925   7.041  0.3029  0.2153  0.2009
 1066loPI   C2B16726  13.200  16.992   7.365  0.0646  0.4684  0.0030
 1066loPI   C3B16727  13.324  16.951   7.699 -0.1221  0.0704  0.3530
 1066loPI   C4B16728  13.244  16.971   8.066  0.1256  0.3622  0.0531
 1067loPI    C116729   3.010   0.632   5.707 -0.0405 -0.1082  0.0748
 1067loPI    C216730   3.248   0.855   5.474 -0.0948 -0.0670  0.0586
 1067loPI    C316731   3.218   0.461   5.411 -0.0659 -0.0649  0.0317
 1067loPI   PO416732   3.067   0.695   5.965  0.0829 -0.0965  0.2402
 1067loPI   GL116733   3.294   0.605   6.368  0.2922 -0.1654 -0.0111
 1067loPI   GL216734   3.076   0.844   6.404 -0.0573 -0.0156  0.0006
 1067loPI   C1A16735   3.473   0.525   6.802  0.0202 -0.2434 -0.2838
 1067loPI   C2A16736   3.453   0.489   7.311  0.0299 -0.1153  0.2141
 1067loPI   C3A16737   3.490   0.479   7.750  0.2657  0.1039  0.2137
 1067loPI   C4A16738   3.381   0.472   8.157 -0.0176 -0.0265 -0.0496
 1067loPI   C5A16739   3.319   0.444   8.583 -0.0712  0.0629  0.3479
 1067loPI   C6A16740   3.536   0.258   8.852  0.1917  0.2066 -0.1173
 1067loPI   C1B16741   3.077   0.911   6.780  0.0523 -0.0838  0.0782
 1067loPI   C2B16742   3.098   0.805   7.215 -0.0375  0.2276 -0.3261
 1067loPI   C3B16743   3.155   0.787   7.649 -0.0712 -0.1211 -0.0426
 1067loPI   C4B16744   3.069   0.872   7.976 -0.1302 -0.2239 -0.3504
 1068loPI    C116745   0.803   4.531   5.759  0.1720 -0.4506 -0.0761
 1068loPI    C216746   0.755   4.750   5.428  0.1500 -0.0381  0.1927
 1068loPI    C316747   0.473   4.488   5.537 -0.0128  0.0881  0.0797
 1068loPI   PO416748   0.815   4.687   5.958 -0.2066 -0.2205 -0.0064
 1068loPI   GL116749   0.946   4.563   6.292 -0.1214 -0.2462  0.0362
 1068loPI   GL216750   0.589   4.754   6.409  0.0589 -0.1594  0.5041
 1068loPI   C1A16751   0.961   4.445   6.650  0.2491 -0.1048  0.2464
 1068loPI   C2A16752   0.981   4.453   7.079 -0.0389 -0.0016 -0.0029
 1068loPI   C3A16753   1.010   4.459   7.457  0.0070  0.0351  0.3342
 1068loPI   C4A16754   1.112   4.414   7.822 -0.0006 -0.0910 -0.0038
 1068loPI   C5A16755   1.129   4.518   8.245 -0.0622  0.1251  0.0859
 1068loPI   C6A16756   0.961   4.501   8.624  0.0350  0.3108  0.0316
 1068loPI   C1B16757   0.579   4.706   6.887 -0.1472  0.1532 -0.0943
 1068loPI   C2B16758   0.597   4.735   7.255  0.2791  0.0839 -0.2393
 1068loPI   C3B16759   0.632   4.780   7.640 -0.1130  0.0393 -0.2655
 1068loPI   C4B16760   0.635   4.812   8.162  0.0176 -0.0294 -0.1009
 1069loPI    C116761  15.109   9.586   5.377 -0.0843  0.0119 -0.2090
 1069loPI    C216762  15.460   9.498   5.205  0.0405  0.1615 -0.0340
 1069loPI    C316763  15.183   9.704   5.002  0.0290 -0.0092 -0.1935
 1069loPI   PO416764  15.035   9.386   5.543 -0.3684  0.0148 -0.1439
 1069loPI   GL116765  15.022   9.410   5.979  0.2860  0.0034 -0.2427
 1069loPI   GL216766  15.320   9.530   6.167  0.2237  0.1759  0.1726
 1069loPI   C1A16767  14.717   9.451   6.364  0.2631  0.0253 -0.0104
 1069loPI   C2A16768  14.775   9.412   6.847 -0.0953  0.4298  0.2837
 1069loPI   C3A16769  14.759   9.346   7.258  0.0013 -0.0876 -0.0441
 1069loPI   C4A16770  14.879   9.383   7.693 -0.0506 -0.1573 -0.1347
 1069loPI   C5A16771  14.961   9.378   8.132  0.0926  0.0503 -0.0973
 1069loPI   C6A16772  14.707   9.443   8.425 -0.2682 -0.0305 -0.0536
 1069loPI   C1B16773  15.213   9.497   6.542 -0.0046  0.0953  0.0662
 1069loPI   C2B16774  15.332   9.573   6.877 -0.0037  0.0533  0.0279
 1069loPI   C3B16775  15.254   9.485   7.327 -0.2000 -0.2657  0.0070
 1069loPI   C4B16776  15.360   9.483   7.746 -0.1561 -0.2434  0.2441
 1070loPI    C116777   2.895   3.032   5.981  0.0657 -0.0142 -0.0556
 1070loPI    C216778   2.669   2.928   5.668  0.1673 -0.0007 -0.1340
 1070loPI    C316779   2.998   3.149   5.612  0.1110  0.1183 -0.0016
 1070loPI   PO416780   2.825   2.855   6.202 -0.1076 -0.1171 -0.0357
 1070loPI   GL116781   3.016   2.718   6.578 -0.1811  0.0956 -0.0204
 1070loPI   GL216782   3.292   2.498   6.628  0.1597  0.0165  0.2858
 1070loPI   C1A16783   2.922   2.759   7.019 -0.2920 -0.2726  0.0662
 1070loPI   C2A16784   3.057   2.760   7.464 -0.1457 -0.1736  0.0267
 1070loPI   C3A16785   3.029   2.750   7.900 -0.0697  0.0025 -0.1780
 1070loPI   C4A16786   2.941   2.755   8.340  0.0391  0.1533  0.1895
 1070loPI   C5A16787   2.637   2.836   8.629  0.0485  0.0869  0.2126
 1070loPI   C6A16788   2.423   3.220   8.825  0.2823  0.2069  0.0633
 1070loPI   C1B16789   3.353   2.394   6.942 -0.0073 -0.0884  0.2400
 1070loPI   C2B16790   3.451   2.347   7.393  0.0099  0.1751 -0.2113
 1070loPI   C3B16791   3.386   2.338   7.818  0.0805  0.1475  0.0170
 1070loPI   C4B16792   3.403   2.261   8.137 -0.1085 -0.2772 -0.0050
 1071loPI    C116793   1.611  17.391   5.740  0.2583  0.0908 -0.2318
 1071loPI    C216794   1.776  17.081   5.548  0.0251 -0.1185 -0.0981
 1071loPI    C316795   1.607  17.028   5.907  0.1873  0.2104  0.0307
 1071loPI   PO416796   1.790  17.595   5.766 -0.1496 -0.1776  0.2651
 1071loPI   GL116797   1.960  17.724   6.145  0.1110 -0.1933  0.1147
 1071loPI   GL216798   2.202  18.025   6.143  0.2933  0.1930 -0.0273
 1071loPI   C1A16799   1.918  17.733   6.558  0.0109 -0.1270  0.3518
 1071loPI   C2A16800   2.023  17.669   7.018 -0.0472 -0.1764  0.0257
 1071loPI   C3A16801   2.073  17.610   7.370 -0.2778  0.2142 -0.0873
 1071loPI   C4A16802   1.979  17.589   7.804  0.0577 -0.0437 -0.2934
 1071loPI   C5A16803   2.074  17.642   8.225  0.1985  0.1485 -0.0304
 1071loPI   C6A16804   1.941  17.615   8.618 -0.1098  0.3807  0.1042
 1071loPI   C1B16805   2.430  17.946   6.610  0.2152 -0.3097  0.2007
 1071loPI   C2B16806   2.527  17.796   7.070 -0.0188 -0.3521  0.0120
 1071loPI   C3B16807   2.494  17.846   7.461 -0.0866 -0.0511 -0.1962
 1071loPI   C4B16808   2.487  17.786   8.060  0.0630 -0.2260 -0.1146
 1072loPI    C116809   0.291   3.506   5.825 -0.2000 -0.1232 -0.2283
 1072loPI    C216810   0.337   3.269   5.506  0.0669 -0.0867 -0.2191
 1072loPI    C316811   0.173   3.632   5.464 -0.2881 -0.2462 -0.2428
 1072loPI   PO416812   0.173   3.435   6.134  0.0800 -0.0540 -0.2663
 1072loPI   GL116813   0.152   3.556   6.571 -0.0177 -0.0571  0.0807
 1072loPI   GL216814   0.447   3.692   6.683  0.1987  0.1447 -0.1334
 1072loPI   C1A16815   0.031   3.572   7.012  0.0073  0.1498  0.0191
 1072loPI   C2A16816   0.099   3.518   7.480 -0.3356 -0.0777 -0.1092
 1072loPI   C3A16817   0.098   3.603   7.897  0.0991  0.2515  0.1985
 1072loPI   C4A16818  -0.110   3.441   8.257 -0.1251 -0.1945  0.1479
 1072loPI   C5A16819  -0.110   3.575   8.666  0.1030  0.0813  0.0074
 1072loPI   C6A16820  -0.493   3.874   8.883 -0.0634  0.1036  0.2656
 1072loPI   C1B16821   0.508   3.682   7.115 -0.2776 -0.1345  0.0922
 1072loPI   C2B16822   0.530   3.770   7.641  0.2174 -0.0027  0.2327
 1072loPI   C3B16823   0.508   3.727   8.098 -0.0953 -0.2340 -0.0412
 1072loPI   C4B16824   0.371   3.576   8.506  0.0500  0.0583 -0.2704
 1073loPI    C116825  13.855   8.607   5.487 -0.0973 -0.0297  0.0306
 1073loPI    C216826  13.881   8.963   5.307  0.0840 -0.0408  0.0328
 1073loPI    C316827  13.689   8.661   5.127  0.1048  0.0006 -0.0598
 1073loPI   PO416828  13.770   8.680   5.754  0.2193 -0.1988  0.0529
 1073loPI   GL116829  13.861   8.760   6.147 -0.0163 -0.2170  0.0104
 1073loPI   GL216830  14.199   8.784   6.268 -0.0383  0.0333  0.2147
 1073loPI   C1A16831  13.760   9.038   6.488 -0.0143  0.1913 -0.1886
 1073loPI   C2A16832  13.816   9.155   6.791  0.2749  0.0967 -0.0256
 1073loPI   C3A16833  13.715   8.986   7.225 -0.2779 -0.1210  0.0649
 1073loPI   C4A16834  13.828   8.907   7.601 -0.1594  0.0800 -0.1186
 1073loPI   C5A16835  13.977   9.051   7.946  0.2913  0.1632  0.1433
 1073loPI   C6A16836  13.941   9.455   8.121  0.1175  0.0972 -0.0442
 1073loPI   C1B16837  14.155   8.813   6.723  0.4215 -0.0216  0.0126
 1073loPI   C2B16838  14.119   8.725   7.206 -0.0498 -0.0924 -0.1389
 1073loPI   C3B16839  14.220   8.588   7.599  0.0035  0.0771  0.0214
 1073loPI   C4B16840  14.236   8.571   8.020 -0.0093  0.1004  0.1799
 1074loPI    C116841  13.091   4.526   5.812  0.1324  0.0172 -0.2331
 1074loPI    C216842  12.839   4.777   5.629 -0.0188 -0.0024 -0.0546
 1074loPI    C316843  12.844   4.391   5.528 -0.1477 -0.0256  0.0256
 1074loPI   PO416844  13.029   4.561   6.093  0.2788  0.1150  0.3791
 1074loPI   GL116845  13.158   4.858   6.394  0.0275 -0.1631  0.0337
 1074loPI   GL216846  13.506   5.114   6.310  0.1777  0.0277  0.0542
 1074loPI   C1A16847  13.112   4.936   6.846  0.1205  0.1784  0.0148
 1074loPI   C2A16848  13.011   4.944   7.270  0.1033  0.2806  0.0321
 1074loPI   C3A16849  12.940   4.852   7.596  0.2130  0.1099 -0.0346
 1074loPI   C4A16850  12.963   4.857   8.021 -0.2495 -0.0325 -0.0544
 1074loPI   C5A16851  12.934   4.767   8.467 -0.2165  0.0738  0.1342
 1074loPI   C6A16852  12.707   4.319   8.585 -0.0294  0.2151  0.3713
 1074loPI   C1B16853  13.601   5.021   6.701  0.0210  0.0283  0.0721
 1074loPI   C2B16854  13.499   5.111   7.122  0.1833  0.2426 -0.0200
 1074loPI   C3B16855  13.441   5.039   7.563 -0.2279 -0.0032 -0.1013
 1074loPI   C4B16856  13.532   4.983   7.991 -0.0754 -0.0197 -0.0396
 1075loPI    C116857  12.411  14.652   5.355 -0.2741 -0.0532 -0.0532
 1075loPI    C216858  12.636  14.322   5.380  0.1226  0.2186  0.0574
 1075loPI    C316859  12.519  14.459   5.023  0.2077  0.1241 -0.0070
 1075loPI   PO416860  12.378  14.671   5.720 -0.0953  0.2249  0.1835
 1075loPI   GL116861  12.151  14.759   6.101 -0.1125 -0.1739  0.1111
 1075loPI   GL216862  11.991  15.055   6.294 -0.1335 -0.0001  0.0074
 1075loPI   C1A16863  11.969  14.530   6.512  0.3507  0.2792 -0.0271
 1075loPI   C2A16864  11.559  14.451   6.768  0.5336  0.0880  0.2321
 1075loPI   C3A16865  11.422  14.380   7.139  0.0725  0.4246 -0.2734
 1075loPI   C4A16866  11.464  14.333   7.606  0.0477  0.0706 -0.1519
 1075loPI   C5A16867  11.485  14.365   8.013  0.0823 -0.2798  0.1024
 1075loPI   C6A16868  11.706  14.312   8.312  0.4480 -0.0130  0.0002
 1075loPI   C1B16869  11.995  15.008   6.736 -0.0871 -0.2236  0.0993
 1075loPI   C2B16870  11.922  15.089   7.261  0.1150 -0.0940  0.2728
 1075loPI   C3B16871  12.077  15.107   7.731  0.0044 -0.0428 -0.1571
 1075loPI   C4B16872  12.167  14.963   8.189 -0.2702  0.1362  0.1738
 1076loPI    C116873   9.219   6.907   5.391  0.1516 -0.1256  0.1278
 1076loPI    C216874   8.851   6.808   5.267  0.0726  0.0959  0.1809
 1076loPI    C316875   9.141   6.532   5.274 -0.1322 -0.1199  0.2901
 1076loPI   PO416876   9.288   6.992   5.655  0.0645  0.0254 -0.3918
 1076loPI   GL116877   9.197   6.939   6.072 -0.0963  0.1648  0.0283
 1076loPI   GL216878   9.609   6.898   6.202 -0.3462  0.1365 -0.2201
 1076loPI   C1A16879   9.169   6.873   6.600  0.3817 -0.3033  0.3499
 1076loPI   C2A16880   9.349   6.897   7.021 -0.2179 -0.0789  0.1499
 1076loPI   C3A16881   9.180   6.900   7.416 -0.0853  0.0927  0.0996
 1076loPI   C4A16882   9.252   6.838   7.792 -0.1762  0.0326  0.1161
 1076loPI   C5A16883   9.264   6.634   8.217  0.1674 -0.1681  0.0809
 1076loPI   C6A16884   9.474   6.510   8.539 -0.0065 -0.0182  0.1982
 1076loPI   C1B16885   9.717   7.005   6.584 -0.0454  0.0462  0.1809
 1076loPI   C2B16886   9.794   7.095   6.988  0.1079 -0.0040 -0.1161
 1076loPI   C3B16887   9.672   7.102   7.426 -0.1453  0.1647  0.1160
 1076loPI   C4B16888   9.704   7.129   7.818  0.0217 -0.0924 -0.2058
 1077loPI    C116889  14.740  14.740   5.774  0.1621 -0.2028 -0.2369
 1077loPI    C216890  14.996  14.869   5.495  0.0801  0.0249 -0.2092
 1077loPI    C316891  14.804  14.521   5.446  0.3378 -0.1116 -0.2647
 1077loPI   PO416892  14.892  14.846   6.025 -0.0020  0.0130 -0.1063
 1077loPI   GL116893  15.081  14.873   6.478 -0.0064  0.2230 -0.0389
 1077loPI   GL216894  15.126  15.196   6.652 -0.0035 -0.0380 -0.1805
 1077loPI   C1A16895  14.994  14.728   6.931  0.1712  0.4694  0.0184
 1077loPI   C2A16896  14.880  14.748   7.330 -0.1291  0.0293  0.0733
 1077loPI   C3A16897  15.069  14.614   7.695 -0.0601  0.1097 -0.2259
 1077loPI   C4A16898  15.046  14.511   8.076  0.2413  0.3437 -0.0005
 1077loPI   C5A16899  14.787  14.357   8.342 -0.2807 -0.2563  0.0807
 1077loPI   C6A16900  14.429  14.703   8.243 -0.1467  0.0238 -0.0714
 1077loPI   C1B16901  15.090  15.256   7.106 -0.1731 -0.1758 -0.0253
 1077loPI   C2B16902  15.110  15.107   7.561 -0.1945  0.3533 -0.0290
 1077loPI   C3B16903  15.006  15.032   7.973 -0.1095 -0.0639 -0.2395
 1077loPI   C4B16904  14.924  14.940   8.379  0.1602  0.3241 -0.2388
 1078loPI    C116905   2.864  15.720   5.282 -0.0579 -0.1134  0.1996
 1078loPI    C216906   2.511  15.693   5.095  0.0003  0.0824  0.0587
 1078loPI    C316907   2.729  15.364   5.158 -0.0937 -0.0069 -0.0753
 1078loPI   PO416908   2.869  15.876   5.592  0.0023 -0.0701  0.1997
 1078loPI   GL116909   2.837  15.775   5.927 -0.3736 -0.0125 -0.2111
 1078loPI   GL216910   2.498  15.799   6.068 -0.4440 -0.0251  0.0462
 1078loPI   C1A16911   2.887  15.641   6.329  0.1162 -0.0220  0.0794
 1078loPI   C2A16912   2.947  15.627   6.719  0.0547 -0.2339 -0.1411
 1078loPI   C3A16913   2.962  15.708   7.176  0.1529 -0.1219 -0.0326
 1078loPI   C4A16914   2.973  15.689   7.688  0.0288 -0.0334  0.2637
 1078loPI   C5A16915   3.105  15.668   8.189 -0.1574  0.0393  0.4480
 1078loPI   C6A16916   3.146  15.647   8.597 -0.1477 -0.0350 -0.2141
 1078loPI   C1B16917   2.504  16.020   6.478 -0.0546 -0.1266 -0.1239
 1078loPI   C2B16918   2.552  15.946   6.959  0.1056 -0.2128 -0.1043
 1078loPI   C3B16919   2.592  16.001   7.424  0.0466 -0.2819  0.5457
 1078loPI   C4B16920   2.565  15.993   7.897  0.0968  0.0740  0.1743
 1079loPI    C116921  11.107   1.337   5.446 -0.2094  0.1551 -0.1303
 1079loPI    C216922  11.085   0.961   5.310 -0.1382  0.2029 -0.2750
 1079loPI    C316923  11.314   1.230   5.122 -0.0347  0.2691 -0.0576
 1079loPI   PO416924  11.173   1.362   5.740 -0.1317  0.0487  0.0455
 1079loPI   GL116925  11.370   1.403   6.174  0.0632 -0.1721  0.1709
 1079loPI   GL216926  11.147   1.104   6.203  0.4606 -0.1689  0.1937
 1079loPI   C1A16927  11.370   1.541   6.603 -0.1365  0.0629  0.1758
 1079loPI   C2A16928  11.399   1.557   7.065  0.2036 -0.1386  0.1251
 1079loPI   C3A16929  11.455   1.431   7.440  0.0956  0.0250  0.0436
 1079loPI   C4A16930  11.378   1.488   7.818 -0.0638 -0.2615 -0.2566
 1079loPI   C5A16931  11.520   1.418   8.171  0.0339 -0.0806  0.0192
 1079loPI   C6A16932  11.448   1.446   8.608  0.2406  0.2588  0.2754
 1079loPI   C1B16933  11.257   1.028   6.708  0.1971  0.2013 -0.1453
 1079loPI   C2B16934  11.348   0.952   7.138 -0.0873 -0.4923  0.2271
 1079loPI   C3B16935  11.292   0.959   7.556 -0.2231  0.0604  0.0859
 1079loPI   C4B16936  11.238   1.009   8.004  0.0853 -0.1407 -0.1491
 1080loPI    C116937   6.564   3.977   5.335  0.0099 -0.0690  0.0112
 1080loPI    C216938   6.564   4.376   5.362 -0.0540 -0.0622 -0.0810
 1080loPI    C316939   6.335   4.195   5.089 -0.1620 -0.1705  0.0795
 1080loPI   PO416940   6.797   3.882   5.491  0.0443  0.0064  0.1154
 1080loPI   GL116941   6.877   3.799   5.963  0.0022 -0.5523  0.6646
 1080loPI   GL216942   6.779   3.609   6.163  0.2916  0.2058 -0.1676
 1080loPI   C1A16943   6.849   4.059   6.355 -0.0441 -0.2829 -0.1110
 1080loPI   C2A16944   6.740   4.113   6.800  0.2290 -0.1275 -0.0021
 1080loPI   C3A16945   6.776   4.183   7.301  0.0736 -0.3132 -0.3149
 1080loPI   C4A16946   6.816   4.204   7.673  0.1690 -0.0188 -0.0642
 1080loPI   C5A16947   6.756   4.241   8.167  0.0615  0.1428  0.1311
 1080loPI   C6A16948   6.954   4.207   8.589  0.0309  0.3592  0.1179
 1080loPI   C1B16949   6.737   3.612   6.658 -0.3037  0.0215  0.1577
 1080loPI   C2B16950   6.741   3.516   7.120 -0.3523  0.1862 -0.2628
 1080loPI   C3B16951   6.658   3.694   7.508 -0.3580 -0.3178 -0.1301
 1080loPI   C4B16952   6.727   3.739   7.924  0.2579 -0.0361  0.0785
 1081loPI    C116953   1.225   4.766   5.564 -0.2487 -0.0005 -0.2110
 1081loPI    C216954   1.133   4.425   5.376 -0.0588 -0.1130 -0.1030
 1081loPI    C316955   1.321   4.718   5.178 -0.1507 -0.1022 -0.1747
 1081loPI   PO416956   1.298   4.683   5.806 -0.1299 -0.1968  0.1368
 1081loPI   GL116957   1.285   4.894   6.088  0.1877  0.0567  0.0632
 1081loPI   GL216958   1.498   4.673   6.270  0.0006  0.3051  0.2031
 1081loPI   C1A16959   1.121   4.968   6.515  0.2298 -0.2373 -0.0479
 1081loPI   C2A16960   1.084   4.927   7.007  0.2875  0.0276 -0.1701
 1081loPI   C3A16961   1.061   4.995   7.523  0.3127  0.2526 -0.2094
 1081loPI   C4A16962   1.096   4.887   7.909  0.1768  0.2405 -0.0079
 1081loPI   C5A16963   1.013   5.119   8.381 -0.1607 -0.0814 -0.0694
 1081loPI   C6A16964   1.293   5.275   8.748 -0.1741 -0.0108 -0.3450
 1081loPI   C1B16965   1.410   4.605   6.671  0.0552 -0.1713  0.0326
 1081loPI   C2B16966   1.439   4.633   7.131  0.1308 -0.0007  0.1256
 1081loPI   C3B16967   1.485   4.592   7.527 -0.2091  0.2005  0.0897
 1081loPI   C4B16968   1.566   4.620   7.886 -0.0485  0.1605  0.1703
 1082loPI    C116969   4.373  11.328   5.587  0.1983  0.0806  0.2437
 1082loPI    C216970   4.514  11.394   5.219 -0.0265  0.1926  0.1755
 1082loPI    C316971   4.683  11.115   5.451  0.0607  0.0596 -0.0444
 1082loPI   PO416972   4.296  11.593   5.706  0.0131  0.1347  0.1444
 1082loPI   GL116973   4.157  11.639   6.039  0.0949  0.1711 -0.2702
 1082loPI   GL216974   4.478  11.530   6.156  0.1353  0.3150 -0.0459
 1082loPI   C1A16975   4.106  11.757   6.427 -0.3303  0.0506 -0.4176
 1082loPI   C2A16976   4.087  11.743   6.913 -0.3430  0.0422  0.0646
 1082loPI   C3A16977   4.041  11.690   7.331 -0.1229  0.2439  0.0945
 1082loPI   C4A16978   4.171  11.856   7.743 -0.1208  0.1644  0.0897
 1082loPI   C5A16979   4.136  11.878   8.169 -0.0288  0.1134 -0.1814
 1082loPI   C6A16980   4.300  11.861   8.556  0.1791  0.0625 -0.0028
 1082loPI   C1B16981   4.462  11.389   6.546 -0.3222  0.1155 -0.4014
 1082loPI   C2B16982   4.429  11.438   7.029 -0.1137 -0.0666 -0.0849
 1082loPI   C3B16983   4.452  11.424   7.547  0.1372 -0.0630  0.1455
 1082loPI   C4B16984   4.556  11.449   7.969  0.2945 -0.0742  0.0786
 1083loPI    C116985  11.391   9.875   5.513  0.0008  0.1284 -0.1844
 1083loPI    C216986  11.257  10.141   5.246  0.2258  0.0042 -0.4258
 1083loPI    C316987  11.648  10.117   5.324  0.1761 -0.0598 -0.1901
 1083loPI   PO416988  11.273   9.993   5.726  0.0828 -0.0381  0.1905
 1083loPI   GL116989  11.199  10.031   6.233  0.3484 -0.1527  0.0446
 1083loPI   GL216990  11.017   9.832   6.094 -0.0525 -0.1310 -0.3306
 1083loPI   C1A16991  11.184   9.899   6.607 -0.1414  0.1608  0.0448
 1083loPI   C2A16992  11.253   9.954   6.985 -0.3957 -0.1192  0.0009
 1083loPI   C3A16993  11.261   9.860   7.330  0.1705  0.1740  0.1433
 1083loPI   C4A16994  11.321   9.916   7.821 -0.0276 -0.1339 -0.1651
 1083loPI   C5A16995  11.326  10.038   8.245 -0.2383 -0.1204  0.0122
 1083loPI   C6A16996  11.124  10.373   8.638  0.1433  0.0620  0.0099
 1083loPI   C1B16997  10.778   9.751   6.397 -0.2183 -0.0750  0.1448
 1083loPI   C2B16998  10.704   9.769   6.801 -0.1279 -0.0532  0.0017
 1083loPI   C3B16999  10.770   9.794   7.216  0.1073  0.0554  0.4597
 1083loPI   C4B17000  10.697   9.775   7.652  0.2719  0.0577 -0.0531
 1084loPI    C117001  15.708  12.977   5.803  0.1005  0.0492  0.0419
 1084loPI    C217002  15.629  13.343   5.664 -0.0138  0.0645  0.1454
 1084loPI    C317003  15.605  13.027   5.420 -0.0671  0.1083  0.0936
 1084loPI   PO417004  15.784  12.961   5.997  0.0160  0.1812  0.3239
 1084loPI   GL117005  15.986  12.813   6.323 -0.0316 -0.1528  0.4078
 1084loPI   GL217006  16.114  13.128   6.444 -0.2049  0.0845  0.2754
 1084loPI   C1A17007  15.913  12.621   6.662 -0.2534  0.0257 -0.1122
 1084loPI   C2A17008  15.932  12.540   7.043 -0.0554 -0.0516 -0.2483
 1084loPI   C3A17009  15.973  12.513   7.507 -0.2237  0.1318 -0.0246
 1084loPI   C4A17010  15.950  12.618   7.925 -0.1164  0.3650 -0.0011
 1084loPI   C5A17011  16.177  12.640   8.269 -0.3797 -0.0637  0.0007
 1084loPI   C6A17012  16.386  12.634   8.691  0.0821 -0.0537  0.0815
 1084loPI   C1B17013  16.091  13.142   6.855 -0.0536 -0.1868 -0.1614
 1084loPI   C2B17014  16.075  13.077   7.324  0.2103  0.0053  0.0821
 1084loPI   C3B17015  16.070  13.017   7.696 -0.0876  0.1994  0.1246
 1084loPI   C4B17016  16.096  13.095   8.132 -0.2102  0.0013  0.0946
 1085loPI    C117017  15.373  17.051   5.931 -0.0513 -0.0828  0.0237
 1085loPI    C217018  15.048  17.017   5.701 -0.0348 -0.0995  0.0029
 1085loPI    C317019  15.393  16.852   5.585 -0.0194 -0.0841  0.0262
 1085loPI   PO417020  15.300  16.948   6.209 -0.3281 -0.1937  0.2155
 1085loPI   GL117021  15.357  16.736   6.422  0.3193  0.0336  0.2002
 1085loPI   GL217022  15.110  16.730   6.582 -0.0344 -0.1612 -0.1577
 1085loPI   C1A17023  15.655  16.536   6.617 -0.0606  0.0004 -0.3114
 1085loPI   C2A17024  15.782  16.356   7.036 -0.2535  0.0817  0.0252
 1085loPI   C3A17025  15.697  16.341   7.492 -0.0816  0.2155 -0.1939
 1085loPI   C4A17026  15.747  16.343   7.936 -0.3201  0.2033  0.0260
 1085loPI   C5A17027  16.077  16.318   8.324  0.3950 -0.0404 -0.1639
 1085loPI   C6A17028  16.130  16.311   8.806 -0.2261 -0.1456 -0.1142
 1085loPI   C1B17029  15.401  16.822   6.945  0.3670  0.0800  0.0089
 1085loPI   C2B17030  15.392  16.686   7.342  0.0260 -0.1051 -0.0878
 1085loPI   C3B17031  15.196  16.605   7.699  0.3546 -0.0843 -0.0359
 1085loPI   C4B17032  15.083  16.396   8.075 -0.4163 -0.0481  0.1191
 1086loPI    C117033  10.545   8.651   5.476  0.0836 -0.0881 -0.1239
 1086loPI    C217034  10.391   9.002   5.359  0.2067  0.0041 -0.0124
 1086loPI    C317035  10.378   8.686   5.114 -0.0522  0.0416 -0.0502
 1086loPI   PO417036  10.460   8.621   5.691  0.0509  0.0342  0.1288
 1086loPI   GL117037  10.540   8.577   6.016  0.1386  0.4019  0.0379
 1086loPI   GL217038  10.553   8.858   6.108 -0.2228  0.0431 -0.0624
 1086loPI   C1A17039  10.523   8.380   6.330 -0.1430 -0.1950  0.0774
 1086loPI   C2A17040  10.446   8.255   6.779  0.1641 -0.2282 -0.0674
 1086loPI   C3A17041  10.406   8.255   7.233  0.0788 -0.2143  0.3892
 1086loPI   C4A17042  10.372   8.210   7.681 -0.1396  0.0669  0.1178
 1086loPI   C5A17043  10.474   8.270   8.120 -0.3359 -0.1964  0.0254
 1086loPI   C6A17044  10.347   8.265   8.517 -0.2116  0.0763  0.1889
 1086loPI   C1B17045  10.602   8.818   6.511  0.1955 -0.0919  0.0320
 1086loPI   C2B17046  10.548   8.743   6.970  0.2089  0.0571  0.0627
 1086loPI   C3B17047  10.538   8.732   7.348 -0.0087 -0.1991 -0.4419
 1086loPI   C4B17048  10.566   8.714   7.785 -0.0320 -0.3310 -0.2449
 1087loPI    C117049  13.231  13.761   5.769 -0.1196 -0.1184  0.0491
 1087loPI    C217050  13.536  14.008   5.689 -0.1354 -0.0074  0.3208
 1087loPI    C317051  13.534  13.637   5.539 -0.1555  0.1825 -0.1669
 1087loPI   PO417052  13.106  13.803   6.050 -0.0788 -0.0241  0.1421
 1087loPI   GL117053  13.009  13.937   6.422  0.0362  0.0320  0.0223
 1087loPI   GL217054  13.327  14.069   6.618  0.0115 -0.0022  0.1430
 1087loPI   C1A17055  12.910  14.156   6.831  0.0215  0.0317  0.0330
 1087loPI   C2A17056  12.762  13.928   7.251 -0.1022 -0.1567  0.2240
 1087loPI   C3A17057  12.871  13.976   7.670  0.2047  0.4250 -0.1331
 1087loPI   C4A17058  13.027  14.091   8.015 -0.0580  0.1098  0.3999
 1087loPI   C5A17059  13.159  14.066   8.412  0.1162  0.2119  0.0181
 1087loPI   C6A17060  13.284  13.792   8.707  0.0452 -0.0482  0.1525
 1087loPI   C1B17061  13.543  14.192   7.030  0.0643 -0.1092  0.0130
 1087loPI   C2B17062  13.662  14.545   7.271 -0.4255 -0.3206 -0.1823
 1087loPI   C3B17063  13.814  14.768   7.636 -0.0163 -0.0566  0.0901
 1087loPI   C4B17064  13.971  14.891   8.042 -0.1096  0.1827 -0.4142
 1088loPI    C117065   3.220  12.513   5.331 -0.0600 -0.1848  0.0505
 1088loPI    C217066   2.869  12.702   5.308  0.0541  0.0220 -0.0190
 1088loPI    C317067   3.048  12.573   4.975  0.0606 -0.0526  0.0133
 1088loPI   PO417068   3.092  12.388   5.629 -0.0281  0.0639 -0.1638
 1088loPI   GL117069   2.956  12.431   6.032 -0.3081  0.1264  0.0346
 1088loPI   GL217070   3.244  12.420   6.194  0.1565 -0.0648 -0.0473
 1088loPI   C1A17071   2.839  12.285   6.452 -0.1487 -0.0826  0.0690
 1088loPI   C2A17072   2.778  12.188   6.865  0.0728 -0.2627  0.0676
 1088loPI   C3A17073   2.833  12.268   7.298  0.0635  0.0976  0.2040
 1088loPI   C4A17074   2.750  12.200   7.725 -0.0055 -0.0143 -0.2731
 1088loPI   C5A17075   2.621  12.257   8.138 -0.3355  0.1216 -0.4333
 1088loPI   C6A17076   2.539  12.264   8.568  0.1628 -0.0509 -0.1518
 1088loPI   C1B17077   3.393  12.408   6.572  0.1519  0.0485 -0.0330
 1088loPI   C2B17078   3.327  12.451   6.929 -0.1560 -0.1767 -0.0302
 1088loPI   C3B17079   3.303  12.472   7.337 -0.1170  0.1718 -0.1250
 1088loPI   C4B17080   3.298  12.476   7.716 -0.1739 -0.0744 -0.1640
 1089loPI    C117081   4.976   6.080   5.844  0.2168 -0.2812  0.0029
 1089loPI    C217082   4.916   5.817   5.549  0.0152 -0.2352  0.0011
 1089loPI    C317083   5.111   6.159   5.476  0.0087 -0.2458 -0.0671
 1089loPI   PO417084   4.759   6.138   5.897  0.2500  0.1042 -0.2746
 1089loPI   GL117085   4.724   6.229   6.294 -0.2902  0.1868  0.0566
 1089loPI   GL217086   4.405   6.132   6.346  0.1557 -0.0021 -0.0068
 1089loPI   C1A17087   4.827   6.398   6.675 -0.0171  0.0628  0.2015
 1089loPI   C2A17088   5.040   6.384   7.055 -0.0314 -0.1810 -0.1236
 1089loPI   C3A17089   4.896   6.367   7.457  0.2922 -0.0671 -0.0867
 1089loPI   C4A17090   4.957   6.491   7.861  0.4472  0.1207  0.0624
 1089loPI   C5A17091   4.978   6.351   8.246 -0.2561 -0.3848  0.0298
 1089loPI   C6A17092   5.196   6.379   8.595  0.2262 -0.0835  0.0052
 1089loPI   C1B17093   4.391   6.223   6.834 -0.1213  0.1015  0.2510
 1089loPI   C2B17094   4.318   6.121   7.210 -0.2923 -0.1369 -0.0531
 1089loPI   C3B17095   4.406   6.248   7.548 -0.0471  0.1656 -0.2016
 1089loPI   C4B17096   4.497   6.181   8.031 -0.5717  0.2448  0.2670
 1090loPI    C117097  12.161   2.770   5.708 -0.1014  0.0304  0.1728
 1090loPI    C217098  11.835   2.972   5.594 -0.0144  0.1314  0.1010
 1090loPI    C317099  12.173   3.001   5.382 -0.0512 -0.2328 -0.0153
 1090loPI   PO417100  12.209   2.817   5.894  0.2613  0.3508  0.0870
 1090loPI   GL117101  12.349   2.596   6.195  0.2290 -0.0238  0.1808
 1090loPI   GL217102  12.114   2.708   6.384 -0.1105 -0.0661  0.0864
 1090loPI   C1A17103  12.468   2.423   6.494 -0.2225  0.0725 -0.2487
 1090loPI   C2A17104  12.525   2.417   6.962  0.1692 -0.1524 -0.1342
 1090loPI   C3A17105  12.414   2.332   7.400  0.2284 -0.0882 -0.0446
 1090loPI   C4A17106  12.455   2.377   7.770  0.0040 -0.1630 -0.0987
 1090loPI   C5A17107  12.435   2.374   8.244  0.3197  0.0614 -0.3087
 1090loPI   C6A17108  12.017   2.088   8.426  0.0134 -0.0539 -0.4328
 1090loPI   C1B17109  12.107   2.746   6.763 -0.0018 -0.0567 -0.0101
 1090loPI   C2B17110  12.051   2.792   7.214 -0.0818 -0.4578  0.1035
 1090loPI   C3B17111  12.104   2.718   7.629  0.1059  0.0806  0.1350
 1090loPI   C4B17112  12.059   2.681   8.114 -0.1011  0.0512  0.1401
 1091loPI    C117113   6.167   1.787   5.489 -0.0812 -0.1417 -0.0484
 1091loPI    C217114   6.082   2.083   5.234  0.1193 -0.0162  0.0282
 1091loPI    C317115   5.869   1.745   5.226 -0.2278  0.1976  0.0580
 1091loPI   PO417116   6.203   2.022   5.706  0.0289  0.1675  0.0598
 1091loPI   GL117117   6.109   2.187   6.095  0.0172  0.0348  0.0699
 1091loPI   GL217118   6.414   2.258   6.192 -0.1054 -0.1085 -0.1877
 1091loPI   C1A17119   5.985   1.996   6.429  0.0959 -0.2065 -0.2174
 1091loPI   C2A17120   5.950   1.943   6.822  0.2612 -0.2321 -0.0418
 1091loPI   C3A17121   5.966   1.922   7.264  0.1720 -0.4882 -0.0150
 1091loPI   C4A17122   6.022   1.926   7.608  0.2921 -0.0202 -0.1046
 1091loPI   C5A17123   6.026   1.899   7.993  0.2004 -0.2839  0.0636
 1091loPI   C6A17124   5.726   2.176   8.146  0.0403 -0.0091  0.3989
 1091loPI   C1B17125   6.449   2.120   6.609 -0.2238  0.0650  0.1094
 1091loPI   C2B17126   6.389   2.082   7.025  0.0194  0.0265 -0.1593
 1091loPI   C3B17127   6.458   2.155   7.473 -0.1708  0.4092  0.4681
 1091loPI   C4B17128   6.505   2.092   7.871 -0.2920 -0.1876 -0.1746
 1092loPI    C117129  12.085   5.761   5.633  0.1338 -0.0635 -0.0835
 1092loPI    C217130  12.331   5.516   5.435 -0.0627 -0.1917 -0.1725
 1092loPI    C317131  12.254   5.882   5.291  0.1905 -0.0939 -0.0664
 1092loPI   PO417132  12.196   5.801   5.923  0.1583 -0.1673  0.0449
 1092loPI   GL117133  12.137   5.855   6.400 -0.2680  0.3418  0.0261
 1092loPI   GL217134  11.810   5.908   6.570  0.0451  0.1259  0.2641
 1092loPI   C1A17135  12.182   5.641   6.820  0.2321  0.1144  0.2606
 1092loPI   C2A17136  12.162   5.566   7.220 -0.0022  0.1999 -0.0075
 1092loPI   C3A17137  12.107   5.464   7.706  0.1295 -0.1629  0.1726
 1092loPI   C4A17138  12.206   5.468   8.187  0.1464 -0.1492 -0.0874
 1092loPI   C5A17139  12.334   5.022   8.403  0.3503  0.0094  0.1926
 1092loPI   C6A17140  12.530   4.778   8.740 -0.2217 -0.0826  0.2142
 1092loPI   C1B17141  11.800   5.877   7.033  0.0492  0.0287 -0.2951
 1092loPI   C2B17142  11.692   5.824   7.463  0.0988 -0.1461 -0.0409
 1092loPI   C3B17143  11.678   5.898   7.925  0.0009 -0.2805  0.2631
 1092loPI   C4B17144  11.903   5.889   8.259 -0.1337  0.3144 -0.2011
 1093loPI    C117145   5.250  15.311   5.439 -0.0700  0.1291 -0.0067
 1093loPI    C217146   5.255  15.021   5.163  0.0824  0.0157  0.1137
 1093loPI    C317147   5.219  15.403   5.051  0.0858 -0.0341 -0.0593
 1093loPI   PO417148   5.325  15.190   5.633  0.2131 -0.0367  0.1704
 1093loPI   GL117149   5.556  15.289   5.929  0.0084 -0.0631 -0.2978
 1093loPI   GL217150   5.696  15.524   6.009 -0.0612 -0.0656  0.0324
 1093loPI   C1A17151   5.669  15.178   6.378 -0.0882  0.1356 -0.0562
 1093loPI   C2A17152   5.615  15.162   6.818  0.0334  0.1029  0.2372
 1093loPI   C3A17153   5.669  15.149   7.162  0.0872  0.1482 -0.2102
 1093loPI   C4A17154   5.605  15.143   7.630 -0.1121  0.0645  0.0760
 1093loPI   C5A17155   5.572  15.175   8.033 -0.1894 -0.1795  0.1892
 1093loPI   C6A17156   5.831  15.266   8.369  0.1883 -0.0992  0.0925
 1093loPI   C1B17157   5.365  15.561   6.319  0.0406 -0.1477 -0.3092
 1093loPI   C2B17158   5.189  15.513   6.674  0.1285 -0.0392 -0.2425
 1093loPI   C3B17159   5.204  15.462   7.094  0.1266  0.1361 -0.1429
 1093loPI   C4B17160   5.314  15.562   7.525  0.2851  0.1653 -0.0608
 1094loPI    C117161   9.108   1.286   5.420  0.0325 -0.1050  0.1840
 1094loPI    C217162   9.200   1.558   5.141  0.0188 -0.0257  0.2563
 1094loPI    C317163   9.211   1.168   5.052 -0.0680  0.0022  0.1207
 1094loPI   PO417164   9.236   1.337   5.797 -0.1803  0.4291  0.2479
 1094loPI   GL117165   9.309   1.226   6.118  0.0032  0.1201 -0.1387
 1094loPI   GL217166   9.506   1.518   6.196  0.0207 -0.3292  0.0150
 1094loPI   C1A17167   9.093   1.112   6.373 -0.0895 -0.3576  0.0120
 1094loPI   C2A17168   9.026   1.195   6.844 -0.0599  0.2078  0.0919
 1094loPI   C3A17169   9.033   1.155   7.197  0.0746 -0.0081  0.3285
 1094loPI   C4A17170   9.117   1.145   7.604  0.2481 -0.1073  0.3618
 1094loPI   C5A17171   9.185   1.109   8.065 -0.3080  0.3358  0.0650
 1094loPI   C6A17172   8.814   1.100   8.324 -0.1725 -0.0015 -0.0384
 1094loPI   C1B17173   9.505   1.327   6.586 -0.3983  0.1623 -0.2971
 1094loPI   C2B17174   9.488   1.285   7.088  0.0267 -0.0089 -0.3329
 1094loPI   C3B17175   9.593   1.296   7.451  0.3891  0.0765 -0.1702
 1094loPI   C4B17176   9.605   1.301   7.867 -0.1269  0.0890  0.0604
 1095loPI    C117177  17.548   6.626   5.443  0.1404  0.0982 -0.1937
 1095loPI    C217178  17.177   6.589   5.298  0.0562  0.0088  0.0399
 1095loPI    C317179  17.486   6.433   5.097  0.0063  0.3426 -0.3087
 1095loPI   PO417180  17.526   6.582   5.726  0.0168  0.1195 -0.0491
 1095loPI   GL117181  17.506   6.776   6.097  0.1850  0.1046  0.0777
 1095loPI   GL217182  17.329   7.087   6.083  0.0027  0.1566  0.3424
 1095loPI   C1A17183  17.556   6.565   6.509 -0.1381 -0.0147  0.0364
 1095loPI   C2A17184  17.477   6.480   6.891 -0.1486 -0.2354  0.0671
 1095loPI   C3A17185  17.523   6.460   7.348 -0.1338  0.0116 -0.1185
 1095loPI   C4A17186  17.386   6.491   7.755 -0.1480 -0.0146  0.2098
 1095loPI   C5A17187  17.390   6.373   8.138 -0.0734  0.3025 -0.2766
 1095loPI   C6A17188  17.634   6.008   8.308 -0.2500  0.0519 -0.2499
 1095loPI   C1B17189  17.460   7.163   6.493  0.0006  0.1419  0.1459
 1095loPI   C2B17190  17.675   6.960   6.850 -0.0341  0.1275  0.1533
 1095loPI   C3B17191  17.678   6.939   7.301  0.3378  0.0276  0.0071
 1095loPI   C4B17192  17.566   6.926   7.797 -0.0943 -0.1256 -0.1365
 1096loPI    C117193   2.139  14.989   5.540  0.1238  0.0750  0.1884
 1096loPI    C217194   2.070  15.360   5.671  0.1808  0.1176  0.0989
 1096loPI    C317195   2.216  15.302   5.304  0.1148  0.0034  0.0901
 1096loPI   PO417196   2.305  14.934   5.783 -0.1532 -0.2747  0.1561
 1096loPI   GL117197   2.115  14.878   6.142  0.0776  0.1215  0.1409
 1096loPI   GL217198   1.860  14.876   6.296  0.0640 -0.3516 -0.2290
 1096loPI   C1A17199   2.284  15.030   6.528  0.1974  0.1105 -0.0439
 1096loPI   C2A17200   2.377  14.994   6.864 -0.0018  0.1204 -0.0839
 1096loPI   C3A17201   2.362  14.949   7.394 -0.2054 -0.3203 -0.0286
 1096loPI   C4A17202   2.476  15.002   7.788 -0.0400 -0.2186 -0.2180
 1096loPI   C5A17203   2.528  14.850   8.183  0.0157 -0.2817 -0.2514
 1096loPI   C6A17204   2.770  14.605   8.485 -0.0639 -0.2435  0.0203
 1096loPI   C1B17205   1.819  14.837   6.668 -0.0534  0.2467  0.0198
 1096loPI   C2B17206   1.950  14.893   7.059 -0.3155 -0.3079  0.1738
 1096loPI   C3B17207   1.843  14.795   7.495  0.1959  0.1607  0.2188
 1096loPI   C4B17208   2.031  14.804   7.858 -0.0918  0.2258 -0.3291
 1097loPI    C117209   8.862  11.752   5.502 -0.1615 -0.1274 -0.0795
 1097loPI    C217210   8.997  11.407   5.352 -0.0456 -0.1196  0.0060
 1097loPI    C317211   9.154  11.754   5.229 -0.1169 -0.1007 -0.0319
 1097loPI   PO417212   8.867  11.687   5.843  0.1995 -0.2647  0.1401
 1097loPI   GL117213   8.962  11.436   6.258  0.4131 -0.0800  0.1006
 1097loPI   GL217214   8.581  11.344   6.277 -0.2638 -0.0259  0.2482
 1097loPI   C1A17215   9.218  11.609   6.609 -0.0516  0.1419 -0.1411
 1097loPI   C2A17216   9.175  11.667   7.079  0.1051 -0.1415 -0.1668
 1097loPI   C3A17217   9.177  11.630   7.572 -0.0538 -0.1240  0.2304
 1097loPI   C4A17218   9.164  11.621   8.038 -0.0073 -0.1676  0.2438
 1097loPI   C5A17219   9.048  11.721   8.480  0.0970 -0.0975  0.2604
 1097loPI   C6A17220   8.780  11.933   8.842  0.1552  0.1118  0.0926
 1097loPI   C1B17221   8.685  11.444   6.699 -0.0916  0.1443 -0.0981
 1097loPI   C2B17222   8.682  11.491   7.144  0.1168 -0.0813 -0.3529
 1097loPI   C3B17223   8.662  11.540   7.550  0.1026 -0.0790 -0.1108
 1097loPI   C4B17224   8.575  11.415   8.017 -0.2690  0.0221 -0.1318
 1098loPI    C117225   8.356   1.991   5.553 -0.0248  0.0194  0.0951
 1098loPI    C217226   7.977   2.017   5.426 -0.0105  0.0705  0.0626
 1098loPI    C317227   8.225   1.749   5.262  0.0647  0.2729 -0.1604
 1098loPI   PO417228   8.279   1.938   5.936 -0.1202 -0.0499 -0.2531
 1098loPI   GL117229   8.353   2.114   6.312  0.0764  0.0731  0.1791
 1098loPI   GL217230   8.676   2.007   6.446 -0.1423 -0.1708  0.4769
 1098loPI   C1A17231   8.332   2.340   6.598  0.0895 -0.3532  0.0804
 1098loPI   C2A17232   8.355   2.345   7.064  0.2362  0.0285  0.2155
 1098loPI   C3A17233   8.398   2.374   7.537  0.1265  0.5919 -0.0436
 1098loPI   C4A17234   8.386   2.246   7.947 -0.0521 -0.0089 -0.3910
 1098loPI   C5A17235   8.526   2.034   8.419 -0.1725  0.2533  0.2441
 1098loPI   C6A17236   8.918   1.817   8.675  0.4901 -0.2536 -0.0777
 1098loPI   C1B17237   8.767   2.011   6.888 -0.0571 -0.0148  0.0449
 1098loPI   C2B17238   8.758   2.097   7.281  0.2651  0.0487 -0.1874
 1098loPI   C3B17239   8.796   1.974   7.761 -0.0552  0.1140  0.2010
 1098loPI   C4B17240   8.982   1.771   8.144 -0.1928 -0.1961  0.1050
 1099loPI    C117241   0.408  12.812   5.299 -0.1095  0.0177  0.0264
 1099loPI    C217242   0.025  12.805   5.415 -0.1289  0.1085 -0.0310
 1099loPI    C317243   0.130  12.651   5.061 -0.0514 -0.2798  0.1557
 1099loPI   PO417244   0.498  12.792   5.586  0.1337  0.0129  0.4703
 1099loPI   GL117245   0.691  12.655   6.019  0.0125 -0.2053 -0.1114
 1099loPI   GL217246   0.693  12.346   6.057 -0.1104 -0.1581 -0.1142
 1099loPI   C1A17247   0.632  12.973   6.433 -0.2029 -0.0330 -0.0471
 1099loPI   C2A17248   0.543  13.055   6.905  0.1161 -0.2036  0.0012
 1099loPI   C3A17249   0.585  12.894   7.298  0.0259 -0.0306  0.1629
 1099loPI   C4A17250   0.528  12.865   7.795  0.3198 -0.0062 -0.0986
 1099loPI   C5A17251   0.389  12.707   8.151  0.0408 -0.1760 -0.2390
 1099loPI   C6A17252   0.261  12.964   8.552 -0.3893  0.0418  0.0394
 1099loPI   C1B17253   0.617  12.365   6.445  0.0595  0.1145 -0.0406
 1099loPI   C2B17254   0.537  12.426   6.905 -0.5271 -0.1088  0.2627
 1099loPI   C3B17255   0.478  12.411   7.286 -0.0536  0.1496  0.0142
 1099loPI   C4B17256   0.358  12.432   7.686 -0.1377  0.1805  0.0425
 1100loPI    C117257   7.312  12.056   5.420 -0.1431  0.0363 -0.3148
 1100loPI    C217258   7.687  11.926   5.378 -0.0967  0.0514  0.0217
 1100loPI    C317259   7.509  12.123   5.079  0.1740  0.0733 -0.1284
 1100loPI   PO417260   7.316  12.192   5.686  0.1458 -0.2251 -0.0157
 1100loPI   GL117261   7.164  12.384   6.070 -0.2134 -0.1902 -0.1519
 1100loPI   GL217262   7.399  12.635   6.155  0.0973 -0.1778 -0.0899
 1100loPI   C1A17263   6.978  12.338   6.458 -0.1636 -0.2910 -0.0737
 1100loPI   C2A17264   6.996  12.264   6.847  0.0052 -0.0154  0.2214
 1100loPI   C3A17265   7.034  12.177   7.180 -0.2243 -0.0334  0.0981
 1100loPI   C4A17266   7.032  12.278   7.572  0.1230 -0.1478  0.1450
 1100loPI   C5A17267   6.951  12.325   8.049  0.1032 -0.0955  0.1029
 1100loPI   C6A17268   6.979  12.483   8.453  0.1385 -0.1251 -0.1298
 1100loPI   C1B17269   7.443  12.459   6.607 -0.0401  0.0547 -0.1522
 1100loPI   C2B17270   7.484  12.472   7.010  0.0227 -0.1686 -0.1521
 1100loPI   C3B17271   7.556  12.500   7.494  0.2366  0.1274  0.0039
 1100loPI   C4B17272   7.406  12.484   7.911  0.0712 -0.0095  0.2526
 1101loPI    C117273  15.241   3.848   5.506  0.0399  0.0406 -0.0204
 1101loPI    C217274  15.137   3.592   5.216  0.0363 -0.0855  0.0912
 1101loPI    C317275  15.442   3.845   5.160  0.0769 -0.1536  0.0012
 1101loPI   PO417276  15.149   3.546   5.745  0.1682 -0.0499 -0.3861
 1101loPI   GL117277  15.206   3.559   6.255  0.3446 -0.1211 -0.0736
 1101loPI   GL217278  15.085   3.739   6.465 -0.0751  0.0589 -0.3561
 1101loPI   C1A17279  15.395   3.284   6.659 -0.1741 -0.0030 -0.2114
 1101loPI   C2A17280  15.344   3.239   6.980 -0.0726  0.3161  0.0328
 1101loPI   C3A17281  15.331   3.406   7.393  0.7143  0.3555 -0.2559
 1101loPI   C4A17282  15.337   3.363   7.722  0.2489 -0.1087  0.0213
 1101loPI   C5A17283  15.325   3.269   8.113  0.5504 -0.4267 -0.0737
 1101loPI   C6A17284  15.250   3.369   8.571  0.1006 -0.0484  0.0642
 1101loPI   C1B17285  15.022   3.587   6.860 -0.1460  0.0718 -0.2392
 1101loPI   C2B17286  14.927   3.677   7.311  0.1956 -0.2608  0.1045
 1101loPI   C3B17287  14.942   3.721   7.736  0.1208 -0.1168  0.0828
 1101loPI   C4B17288  14.933   3.726   8.234 -0.0363  0.2812  0.0277
 1102loPI    C117289  13.246   0.256   5.846 -0.0492 -0.0152 -0.0539
 1102loPI    C217290  12.918   0.141   5.648 -0.0684  0.1615 -0.1271
 1102loPI    C317291  13.243   0.259   5.446  0.0878 -0.1366 -0.0569
 1102loPI   PO417292  13.186   0.377   6.031  0.0511 -0.1814  0.0524
 1102loPI   GL117293  13.031   0.342   6.441  0.1844 -0.1101  0.0608
 1102loPI   GL217294  12.768   0.031   6.528 -0.0295 -0.0371 -0.0565
 1102loPI   C1A17295  12.936   0.534   6.720  0.1578  0.0536  0.2169
 1102loPI   C2A17296  12.956   0.693   7.134 -0.4123  0.0947  0.2430
 1102loPI   C3A17297  13.006   0.610   7.612  0.0795 -0.1348 -0.0931
 1102loPI   C4A17298  12.990   0.666   8.075 -0.0201 -0.0030 -0.0167
 1102loPI   C5A17299  13.167   0.599   8.467 -0.0484  0.1212 -0.0117
 1102loPI   C6A17300  13.280   0.431   8.911  0.3133 -0.2387 -0.1502
 1102loPI   C1B17301  12.868   0.163   7.009 -0.3043 -0.0864 -0.1046
 1102loPI   C2B17302  12.925   0.135   7.550  0.2122  0.0648 -0.3255
 1102loPI   C3B17303  12.959   0.174   8.065 -0.3013 -0.0248 -0.0396
 1102loPI   C4B17304  13.163   0.093   8.428 -0.1013  0.1012  0.1588
 1103loPI    C117305   7.773  14.455   5.577  0.0751  0.2927  0.1085
 1103loPI    C217306   7.471  14.682   5.445 -0.0872  0.0182 -0.0016
 1103loPI    C317307   7.627  14.400   5.208 -0.1243 -0.2229  0.2553
 1103loPI   PO417308   7.764  14.526   5.830 -0.4584 -0.3369 -0.1116
 1103loPI   GL117309   8.022  14.420   6.215  0.0360 -0.0161  0.2172
 1103loPI   GL217310   8.183  14.175   6.255  0.0379 -0.3611 -0.0365
 1103loPI   C1A17311   7.791  14.428   6.668  0.1354  0.1513  0.0976
 1103loPI   C2A17312   7.850  14.540   7.111  0.0028  0.1382 -0.0052
 1103loPI   C3A17313   7.816  14.505   7.641  0.0199  0.0474  0.2465
 1103loPI   C4A17314   7.778  14.599   7.970  0.1889 -0.2133 -0.3227
 1103loPI   C5A17315   8.014  14.659   8.393  0.0991  0.2126 -0.1647
 1103loPI   C6A17316   8.468  14.854   8.496 -0.0919  0.1215  0.1875
 1103loPI   C1B17317   8.232  14.117   6.702  0.1849 -0.1711 -0.0960
 1103loPI   C2B17318   8.207  14.226   7.100  0.0084  0.0472  0.0747
 1103loPI   C3B17319   8.247  14.226   7.525  0.0669 -0.0321 -0.1144
 1103loPI   C4B17320   8.121  14.194   8.002 -0.0079 -0.0247  0.3528
 1104loPI    C117321  12.131  12.003   5.854  0.0829  0.0591 -0.0303
 1104loPI    C217322  12.233  12.236   5.545  0.0625  0.0519 -0.0426
 1104loPI    C317323  12.043  11.890   5.480  0.1083  0.0234 -0.0256
 1104loPI   PO417324  12.180  12.091   6.142 -0.2408  0.1333 -0.1371
 1104loPI   GL117325  12.081  12.369   6.431  0.0771  0.0428  0.0734
 1104loPI   GL217326  12.247  12.643   6.557  0.0200 -0.1491 -0.1457
 1104loPI   C1A17327  12.103  12.164   6.860  0.0913  0.0039 -0.0275
 1104loPI   C2A17328  12.100  12.174   7.270 -0.0319 -0.1991  0.1055
 1104loPI   C3A17329  12.189  12.197   7.741  0.1923 -0.0123 -0.0887
 1104loPI   C4A17330  12.172  12.327   8.220  0.0150 -0.0178 -0.1678
 1104loPI   C5A17331  12.127  12.175   8.634 -0.0639  0.3693 -0.1694
 1104loPI   C6A17332  11.881  12.371   8.932  0.3516  0.1281 -0.1486
 1104loPI   C1B17333  12.235  12.718   6.970 -0.1520  0.1499 -0.0557
 1104loPI   C2B17334  12.223  12.683   7.441  0.0930 -0.0365 -0.0669
 1104loPI   C3B17335  12.353  12.650   7.925 -0.0482  0.0450 -0.2414
 1104loPI   C4B17336  12.509  12.790   8.318  0.1557 -0.0380  0.4148
 1105loPI    C117337   2.177  10.215   5.522 -0.0619 -0.2363 -0.2512
 1105loPI    C217338   2.418  10.279   5.209 -0.3042 -0.3200 -0.4591
 1105loPI    C317339   2.202  10.580   5.360  0.2387 -0.1419 -0.0009
 1105loPI   PO417340   2.279  10.140   5.717 -0.2038 -0.1781  0.5697
 1105loPI   GL117341   2.285  10.145   6.108  0.1724 -0.0982  0.2914
 1105loPI   GL217342   2.509  10.338   6.147 -0.0838 -0.0659  0.1776
 1105loPI   C1A17343   2.346  10.137   6.588  0.2835 -0.2935  0.4022
 1105loPI   C2A17344   2.407  10.173   7.042 -0.3615 -0.1427 -0.4342
 1105loPI   C3A17345   2.326  10.229   7.417  0.1900  0.0078 -0.2978
 1105loPI   C4A17346   2.473  10.319   7.950  0.0803  0.0353 -0.0021
 1105loPI   C5A17347   2.638  10.257   8.342  0.0140 -0.2352 -0.1129
 1105loPI   C6A17348   2.742  10.120   8.802  0.1729 -0.1313  0.0586
 1105loPI   C1B17349   2.871  10.336   6.459  0.2157  0.0453 -0.0760
 1105loPI   C2B17350   2.880  10.369   6.922  0.3117 -0.0126  0.2749
 1105loPI   C3B17351   2.893  10.417   7.398 -0.1733 -0.1305  0.1775
 1105loPI   C4B17352   2.922  10.461   7.794 -0.0487 -0.0948 -0.0443
 1106loPI    C117353  17.520   8.142   5.583  0.4183 -0.1075  0.0869
 1106loPI    C217354  17.560   8.530   5.494 -0.1506 -0.1296 -0.3225
 1106loPI    C317355  17.679   8.252   5.233  0.2610 -0.2394 -0.0278
 1106loPI   PO417356  17.591   8.068   5.831  0.0059 -0.1070  0.1724
 1106loPI   GL117357  17.670   7.989   6.274  0.0931 -0.0951 -0.0802
 1106loPI   GL217358  17.992   7.964   6.370 -0.0359  0.0332  0.0293
 1106loPI   C1A17359  17.495   8.302   6.584 -0.1250  0.1678  0.0222
 1106loPI   C2A17360  17.401   8.341   7.032  0.2321  0.0335 -0.1819
 1106loPI   C3A17361  17.481   8.201   7.390 -0.1853 -0.3557 -0.2395
 1106loPI   C4A17362  17.271   8.374   7.823 -0.0029 -0.0431 -0.1680
 1106loPI   C5A17363  17.128   8.326   8.186 -0.0461  0.4065 -0.1281
 1106loPI   C6A17364  17.400   8.176   8.555  0.2835  0.2990  0.1841
 1106loPI   C1B17365  17.876   7.940   6.752  0.0646  0.1141  0.0421
 1106loPI   C2B17366  17.885   7.926   7.163 -0.3165  0.0264  0.0664
 1106loPI   C3B17367  17.817   7.885   7.576 -0.0136 -0.1515 -0.0144
 1106loPI   C4B17368  17.636   7.852   7.994  0.2321  0.4106 -0.2465
 1107loPI    C117369  14.645   6.615   5.583  0.0065 -0.0090 -0.0087
 1107loPI    C217370  14.556   6.364   5.284  0.1068  0.2718 -0.2796
 1107loPI    C317371  14.298   6.652   5.386  0.0862  0.1954 -0.1133
 1107loPI   PO417372  14.637   6.474   5.829 -0.1680  0.0011 -0.1043
 1107loPI   GL117373  14.474   6.540   6.187  0.2926  0.1063 -0.1764
 1107loPI   GL217374  14.772   6.675   6.267 -0.3400 -0.1641  0.1805
 1107loPI   C1A17375  14.236   6.871   6.541  0.0524  0.0771 -0.0887
 1107loPI   C2A17376  14.285   6.821   6.890  0.3151 -0.1654  0.5824
 1107loPI   C3A17377  14.386   6.853   7.188  0.2339 -0.2081  0.1531
 1107loPI   C4A17378  14.289   6.805   7.688 -0.0506  0.0182  0.1826
 1107loPI   C5A17379  14.270   6.759   8.167 -0.0422  0.1930 -0.2118
 1107loPI   C6A17380  14.117   6.704   8.597  0.0721  0.4142  0.1009
 1107loPI   C1B17381  14.763   6.527   6.630  0.0672  0.1364 -0.0022
 1107loPI   C2B17382  14.696   6.461   7.098  0.0337 -0.0702 -0.1222
 1107loPI   C3B17383  14.697   6.511   7.513 -0.3287  0.0671 -0.0131
 1107loPI   C4B17384  14.681   6.333   7.891 -0.1460 -0.2773 -0.3225
 1108loPI    C117385  17.102   7.412   5.599  0.0009 -0.1651  0.0379
 1108loPI    C217386  16.720   7.468   5.493  0.0510  0.0739 -0.0229
 1108loPI    C317387  16.959   7.240   5.268 -0.0591 -0.0895  0.0242
 1108loPI   PO417388  17.117   7.393   5.779  0.1549 -0.0190  0.0922
 1108loPI   GL117389  16.834   7.279   6.082  0.2203  0.0252 -0.0846
 1108loPI   GL217390  16.552   7.204   6.201  0.1356 -0.0785  0.1942
 1108loPI   C1A17391  16.978   7.286   6.434 -0.1198 -0.0317  0.1535
 1108loPI   C2A17392  17.258   7.305   6.894  0.0268  0.1599 -0.1477
 1108loPI   C3A17393  17.220   7.293   7.315 -0.3231  0.0953 -0.2743
 1108loPI   C4A17394  17.087   7.294   7.732 -0.4737  0.0998  0.3399
 1108loPI   C5A17395  16.952   7.202   8.173 -0.0443 -0.0942 -0.0689
 1108loPI   C6A17396  16.541   7.094   8.328 -0.0831  0.0131  0.2215
 1108loPI   C1B17397  16.573   7.173   6.666 -0.0248 -0.1805  0.1671
 1108loPI   C2B17398  16.759   7.174   6.998 -0.1949  0.0462  0.5711
 1108loPI   C3B17399  16.689   7.180   7.394  0.2596 -0.3550 -0.0613
 1108loPI   C4B17400  16.638   6.938   7.796 -0.2053 -0.0362  0.0343
 1109loPI    C117401  13.198   6.238   5.682  0.0237 -0.0330 -0.0251
 1109loPI    C217402  12.976   6.211   5.351  0.2103 -0.2900 -0.1324
 1109loPI    C317403  13.346   6.057   5.357  0.3060 -0.0574  0.1135
 1109loPI   PO417404  13.043   6.148   5.891 -0.0617  0.1968  0.0763
 1109loPI   GL117405  12.637   5.927   6.180 -0.1520  0.3707  0.3342
 1109loPI   GL217406  12.525   6.205   6.170  0.0122  0.0811 -0.2097
 1109loPI   C1A17407  12.834   5.817   6.463  0.0325 -0.1384  0.2449
 1109loPI   C2A17408  12.710   5.781   6.884 -0.1210 -0.0302 -0.1207
 1109loPI   C3A17409  12.794   5.767   7.355 -0.4183 -0.1858 -0.2118
 1109loPI   C4A17410  12.843   5.641   7.634 -0.0777  0.1196  0.3472
 1109loPI   C5A17411  12.995   5.782   8.014 -0.1760 -0.1491  0.0842
 1109loPI   C6A17412  13.307   5.803   8.257 -0.0435  0.0046 -0.1232
 1109loPI   C1B17413  12.449   6.133   6.626  0.1665  0.1272  0.0028
 1109loPI   C2B17414  12.403   6.047   7.174 -0.0468  0.0419 -0.5695
 1109loPI   C3B17415  12.293   5.954   7.598  0.1268  0.1544 -0.0607
 1109loPI   C4B17416  12.485   5.787   8.035 -0.1034 -0.2470 -0.1449
 1110loPI    C117417   3.859   8.757   5.552  0.0794 -0.2210 -0.1629
 1110loPI    C217418   3.632   8.510   5.333 -0.0757 -0.1841 -0.0460
 1110loPI    C317419   3.762   8.855   5.176 -0.1153 -0.1971 -0.1075
 1110loPI   PO417420   3.787   8.755   5.762 -0.3452  0.1015 -0.0342
 1110loPI   GL117421   3.943   8.948   6.090 -0.1262  0.1845 -0.1512
 1110loPI   GL217422   4.314   8.946   6.188 -0.0647  0.1760 -0.3227
 1110loPI   C1A17423   3.975   8.876   6.558  0.0396  0.0066  0.1367
 1110loPI   C2A17424   3.984   8.889   6.925  0.1954  0.2346  0.1377
 1110loPI   C3A17425   3.955   8.927   7.305  0.1264 -0.0908 -0.0105
 1110loPI   C4A17426   3.987   8.899   7.707  0.1577  0.1405  0.0661
 1110loPI   C5A17427   4.002   8.971   8.100 -0.0887  0.0507  0.0885
 1110loPI   C6A17428   4.359   9.188   8.368 -0.0092 -0.0191 -0.1773
 1110loPI   C1B17429   4.459   9.060   6.577 -0.3058  0.2092 -0.0267
 1110loPI   C2B17430   4.426   9.090   7.014 -0.3317 -0.0217 -0.0008
 1110loPI   C3B17431   4.484   9.032   7.470  0.0602 -0.0351  0.3700
 1110loPI   C4B17432   4.434   9.072   7.876 -0.3251 -0.1406  0.1934
 1111loPI    C117433   2.700   4.484   5.712 -0.0162 -0.1518 -0.0634
 1111loPI    C217434   3.042   4.613   5.549 -0.0109 -0.2569 -0.1364
 1111loPI    C317435   2.692   4.704   5.379 -0.0143 -0.2286 -0.1145
 1111loPI   PO417436   2.846   4.382   5.954 -0.0969 -0.1800 -0.2102
 1111loPI   GL117437   2.789   4.395   6.308  0.0722  0.2214 -0.1144
 1111loPI   GL217438   2.686   4.115   6.548 -0.0523 -0.1882 -0.1933
 1111loPI   C1A17439   2.760   4.621   6.721  0.1575  0.0330  0.5456
 1111loPI   C2A17440   2.766   4.619   7.182  0.0137 -0.1315 -0.3001
 1111loPI   C3A17441   2.875   4.598   7.545 -0.0100 -0.0449 -0.0548
 1111loPI   C4A17442   2.866   4.593   7.979  0.0345 -0.1232  0.0159
 1111loPI   C5A17443   2.875   4.587   8.412  0.0617 -0.0918 -0.1061
 1111loPI   C6A17444   2.927   4.293   8.723  0.0306  0.2434 -0.1005
 1111loPI   C1B17445   2.740   4.096   6.976 -0.1256  0.0482  0.4145
 1111loPI   C2B17446   2.800   4.092   7.419  0.2077 -0.2648  0.1070
 1111loPI   C3B17447   2.778   4.099   7.766 -0.2067  0.2813 -0.1517
 1111loPI   C4B17448   2.846   4.097   8.212 -0.1484 -0.1315 -0.0169
 1112loPI    C117449  10.049  12.333   5.878  0.1292  0.0238  0.1099
 1112loPI    C217450   9.698  12.455   6.025  0.0908  0.0639 -0.0135
 1112loPI    C317451   9.722  12.109   5.827  0.1526 -0.0153  0.1312
 1112loPI   PO417452  10.275  12.405   5.966  0.0262  0.0642 -0.2622
 1112loPI   GL117453  10.354  12.476   6.323 -0.1433  0.0801  0.1943
 1112loPI   GL217454  10.056  12.345   6.397 -0.0221  0.3099 -0.1480
 1112loPI   C1A17455  10.423  12.571   6.654  0.0497  0.0428 -0.0149
 1112loPI   C2A17456  10.339  12.550   7.057 -0.1011  0.0690 -0.0089
 1112loPI   C3A17457  10.364  12.475   7.530  0.0725 -0.2539 -0.0756
 1112loPI   C4A17458  10.274  12.476   7.845  0.1386 -0.2561 -0.1754
 1112loPI   C5A17459  10.353  12.320   8.222 -0.3026  0.2060 -0.0542
 1112loPI   C6A17460  10.528  12.079   8.580 -0.1531  0.1121  0.3513
 1112loPI   C1B17461   9.890  12.272   6.828 -0.1217 -0.1143 -0.0750
 1112loPI   C2B17462   9.745  12.311   7.241  0.0385  0.1156 -0.1686
 1112loPI   C3B17463   9.775  12.353   7.687  0.0239  0.0030 -0.1128
 1112loPI   C4B17464   9.830  12.329   8.179  0.1550 -0.0408 -0.1807
 1113loPI    C117465  11.358  11.915   5.747  0.1320 -0.1024  0.2505
 1113loPI    C217466  11.703  11.731   5.831  0.4794  0.3303 -0.1742
 1113loPI    C317467  11.558  11.724   5.458 -0.0585  0.0280  0.0290
 1113loPI   PO417468  11.183  11.924   5.949  0.2885  0.1337 -0.2106
 1113loPI   GL117469  11.131  12.008   6.478 -0.3214  0.2300 -0.0328
 1113loPI   GL217470  10.978  12.309   6.507  0.0234 -0.2445  0.0311
 1113loPI   C1A17471  11.127  11.945   6.852  0.0590  0.1021  0.0331
 1113loPI   C2A17472  11.058  11.809   7.130  0.1464  0.1174  0.0086
 1113loPI   C3A17473  11.153  11.810   7.543  0.0954  0.0199  0.3014
 1113loPI   C4A17474  11.207  11.814   8.014  0.3700 -0.2734  0.0114
 1113loPI   C5A17475  11.420  11.775   8.368 -0.1281  0.1177 -0.1074
 1113loPI   C6A17476  11.652  12.120   8.572  0.2505 -0.2549 -0.0014
 1113loPI   C1B17477  10.784  12.302   6.843  0.0779 -0.0331  0.0255
 1113loPI   C2B17478  10.750  12.163   7.330 -0.1653  0.0439 -0.1074
 1113loPI   C3B17479  10.688  12.154   7.771 -0.0763 -0.0672 -0.0535
 1113loPI   C4B17480  10.823  12.107   8.166 -0.0133  0.1762  0.0084
 1114loPI    C117481  10.213  16.600   5.592 -0.0643 -0.0527 -0.1830
 1114loPI    C217482  10.517  16.368   5.711  0.1018  0.2680  0.0340
 1114loPI    C317483  10.525  16.539   5.349 -0.0344 -0.0791 -0.1381
 1114loPI   PO417484  10.196  16.726   5.853 -0.2865 -0.1016  0.2759
 1114loPI   GL117485   9.975  16.586   6.310  0.1113  0.2085 -0.3061
 1114loPI   GL217486   9.988  16.320   6.372  0.0875  0.1471  0.1568
 1114loPI   C1A17487   9.998  16.748   6.801 -0.1488 -0.3161 -0.1664
 1114loPI   C2A17488  10.069  16.688   7.219  0.1041 -0.0508  0.1228
 1114loPI   C3A17489  10.031  16.775   7.681  0.2251 -0.1680  0.1331
 1114loPI   C4A17490  10.069  16.746   8.121  0.1109  0.3670 -0.1506
 1114loPI   C5A17491  10.136  16.614   8.513 -0.2872 -0.0735 -0.0987
 1114loPI   C6A17492  10.205  16.301   8.674  0.1666  0.2851 -0.0070
 1114loPI   C1B17493   9.937  16.238   6.876 -0.0478 -0.1043  0.0765
 1114loPI   C2B17494   9.959  16.196   7.381  0.0978  0.2852  0.0805
 1114loPI   C3B17495   9.986  16.241   7.840  0.2101 -0.0052 -0.0062
 1114loPI   C4B17496   9.885  16.222   8.269 -0.0234 -0.0938  0.2446
 1115loPI    C117497   8.019   5.164   5.284  0.0167  0.0411  0.0040
 1115loPI    C217498   8.319   5.257   5.036  0.0976  0.0636  0.1096
 1115loPI    C317499   8.069   4.958   4.945 -0.0839  0.2954 -0.1682
 1115loPI   PO417500   8.115   5.097   5.491  0.3841 -0.2077 -0.0627
 1115loPI   GL117501   8.119   4.979   5.911  0.1356 -0.1122 -0.4670
 1115loPI   GL217502   7.878   4.738   6.026 -0.0895  0.1136 -0.1806
 1115loPI   C1A17503   8.380   5.158   6.242  0.2376  0.0510  0.1694
 1115loPI   C2A17504   8.401   5.196   6.626  0.1826 -0.1941  0.2039
 1115loPI   C3A17505   8.396   5.225   7.030 -0.1540  0.0958  0.2244
 1115loPI   C4A17506   8.415   5.161   7.447 -0.1515  0.1721  0.0087
 1115loPI   C5A17507   8.397   5.064   7.911 -0.0518  0.3146 -0.1503
 1115loPI   C6A17508   8.308   5.133   8.346 -0.0125  0.0075 -0.0525
 1115loPI   C1B17509   7.823   4.522   6.493 -0.4372 -0.0361 -0.2242
 1115loPI   C2B17510   7.844   4.551   6.924 -0.2275  0.5098  0.0987
 1115loPI   C3B17511   7.688   4.470   7.261  0.1418  0.1415 -0.0744
 1115loPI   C4B17512   7.776   4.440   7.587  0.0399 -0.2679  0.0169
 1116loPI    C117513   9.947  15.601   5.976  0.0876 -0.0559  0.2256
 1116loPI    C217514   9.646  15.608   5.712  0.2316 -0.1909  0.0544
 1116loPI    C317515  10.014  15.506   5.593  0.3376 -0.0687  0.2707
 1116loPI   PO417516   9.907  15.772   6.089 -0.1539 -0.1402 -0.0519
 1116loPI   GL117517   9.751  15.625   6.457 -0.1617  0.2209 -0.0179
 1116loPI   GL217518   9.393  15.674   6.377  0.1919 -0.1283 -0.0043
 1116loPI   C1A17519   9.862  15.733   6.843 -0.0238  0.0945 -0.0608
 1116loPI   C2A17520   9.934  15.695   7.245 -0.0775 -0.1581  0.4466
 1116loPI   C3A17521   9.851  15.675   7.648 -0.1114  0.1899  0.1301
 1116loPI   C4A17522   9.725  15.776   8.017 -0.0208  0.0184 -0.1154
 1116loPI   C5A17523   9.811  15.728   8.461 -0.1540 -0.2640  0.2245
 1116loPI   C6A17524   9.899  15.933   8.860 -0.1676 -0.1158 -0.1081
 1116loPI   C1B17525   9.406  15.607   6.861  0.0478  0.2355  0.1706
 1116loPI   C2B17526   9.503  15.506   7.329  0.2057  0.1524 -0.1481
 1116loPI   C3B17527   9.385  15.499   7.666 -0.0033  0.1573  0.1239
 1116loPI   C4B17528   9.430  15.254   8.055 -0.0091 -0.2737 -0.0281
 1117loPI    C117529  12.596  15.075   5.584 -0.0079  0.2470  0.1958
 1117loPI    C217530  12.209  15.138   5.504  0.0019  0.0365 -0.0295
 1117loPI    C317531  12.487  15.220   5.228  0.0842 -0.1795 -0.0132
 1117loPI   PO417532  12.691  15.093   5.862 -0.0438  0.0375  0.0592
 1117loPI   GL117533  12.627  14.792   6.161  0.3436  0.0277  0.0864
 1117loPI   GL217534  12.764  15.076   6.413 -0.0975  0.0974  0.1749
 1117loPI   C1A17535  12.408  14.755   6.567  0.3018  0.0169  0.0994
 1117loPI   C2A17536  12.187  14.655   6.994  0.3745  0.3407 -0.1287
 1117loPI   C3A17537  11.892  14.611   7.224  0.1011  0.0543 -0.2852
 1117loPI   C4A17538  11.921  14.539   7.581  0.1945 -0.1745 -0.1212
 1117loPI   C5A17539  12.109  14.507   8.043  0.1241  0.3717 -0.0006
 1117loPI   C6A17540  12.364  14.626   8.529 -0.2112 -0.3853  0.4198
 1117loPI   C1B17541  12.721  15.056   6.802  0.0148  0.2530 -0.1694
 1117loPI   C2B17542  12.479  15.092   7.097  0.4094 -0.0488 -0.0430
 1117loPI   C3B17543  12.422  15.284   7.406  0.0417 -0.2421 -0.2135
 1117loPI   C4B17544  12.586  15.309   7.750 -0.0252  0.0406 -0.0552
 1118loPI    C117545   4.430  17.321   5.661  0.1919 -0.0313  0.0193
 1118loPI    C217546   4.405  17.006   5.415  0.1611  0.0622 -0.0984
 1118loPI    C317547   4.307  17.371   5.284  0.0851  0.1039  0.0715
 1118loPI   PO417548   4.348  17.215   5.869 -0.1548  0.2156 -0.0387
 1118loPI   GL117549   4.257  17.374   6.212 -0.3966 -0.1786 -0.1442
 1118loPI   GL217550   4.138  17.636   6.275  0.0164 -0.2268  0.0673
 1118loPI   C1A17551   4.213  17.038   6.552  0.0196 -0.0163 -0.1099
 1118loPI   C2A17552   4.205  17.025   7.007  0.3453 -0.1155  0.2624
 1118loPI   C3A17553   4.189  17.053   7.448 -0.4655  0.3094 -0.0104
 1118loPI   C4A17554   4.133  17.022   7.864 -0.1481  0.0346  0.2219
 1118loPI   C5A17555   4.257  17.035   8.379 -0.1585  0.0103 -0.0836
 1118loPI   C6A17556   3.988  16.974   8.734 -0.0246  0.2686  0.0307
 1118loPI   C1B17557   4.283  17.547   6.680 -0.0410 -0.1812  0.3654
 1118loPI   C2B17558   4.330  17.543   7.072 -0.1389  0.2687  0.0531
 1118loPI   C3B17559   4.275  17.551   7.471 -0.3920  0.3445 -0.0294
 1118loPI   C4B17560   4.274  17.478   8.033 -0.0126 -0.1781 -0.4674
 1119loPI    C117561  13.986   4.385   5.677 -0.2162 -0.1099 -0.1311
 1119loPI    C217562  14.130   4.752   5.609  0.1609 -0.2038  0.1304
 1119loPI    C317563  13.894   4.577   5.338  0.3019  0.0725 -0.1779
 1119loPI   PO417564  13.900   4.385   5.971 -0.1372  0.0363 -0.3399
 1119loPI   GL117565  13.867   4.555   6.367  0.1536 -0.2627  0.3445
 1119loPI   GL217566  13.528   4.451   6.402 -0.1636 -0.0811 -0.1571
 1119loPI   C1A17567  13.995   4.739   6.774  0.0634 -0.0517  0.0401
 1119loPI   C2A17568  13.848   4.671   7.163 -0.2756  0.1520 -0.1100
 1119loPI   C3A17569  13.809   4.700   7.684 -0.1056 -0.0464  0.1242
 1119loPI   C4A17570  13.888   4.652   8.139 -0.1540 -0.0628 -0.0814
 1119loPI   C5A17571  13.736   4.388   8.501  0.0558  0.2341  0.2142
 1119loPI   C6A17572  13.771   4.365   8.998 -0.1144 -0.3858  0.0431
 1119loPI   C1B17573  13.436   4.547   6.854  0.1272  0.0342 -0.0052
 1119loPI   C2B17574  13.343   4.631   7.317  0.3485 -0.0442 -0.0149
 1119loPI   C3B17575  13.324   4.543   7.782 -0.1200 -0.1433  0.0404
 1119loPI   C4B17576  13.325   4.503   8.233  0.2058  0.0397  0.1394
 1120loPI    C117577   0.974   1.394   6.191 -0.0171  0.0700 -0.0603
 1120loPI    C217578   1.067   1.039   6.032 -0.0918 -0.0172  0.0889
 1120loPI    C317579   0.882   1.316   5.810 -0.1841 -0.1331  0.0202
 1120loPI   PO417580   1.198   1.453   6.341  0.2365  0.0422  0.0860
 1120loPI   GL117581   1.449   1.213   6.457 -0.2498 -0.3232 -0.2740
 1120loPI   GL217582   1.847   1.367   6.599  0.1908  0.0340 -0.0577
 1120loPI   C1A17583   1.677   0.933   6.738 -0.1798 -0.2465  0.0593
 1120loPI   C2A17584   1.749   0.853   7.163  0.2614 -0.3305 -0.2565
 1120loPI   C3A17585   1.818   0.861   7.534  0.2550  0.1202  0.0106
 1120loPI   C4A17586   1.784   0.816   7.974  0.0912  0.1209  0.0425
 1120loPI   C5A17587   1.852   0.803   8.402 -0.1376  0.0452 -0.0434
 1120loPI   C6A17588   1.935   0.398   8.600 -0.3543 -0.0896 -0.2367
 1120loPI   C1B17589   1.866   1.347   7.018  0.1821  0.0425 -0.1199
 1120loPI   C2B17590   1.866   1.309   7.426  0.1261  0.2510 -0.0072
 1120loPI   C3B17591   1.889   1.418   7.860 -0.2976  0.1752  0.4854
 1120loPI   C4B17592   1.726   1.293   8.248 -0.1643  0.2552  0.0200
 1121loPI    C117593  13.121  14.838   6.035  0.3258  0.0895 -0.2112
 1121loPI    C217594  13.189  14.994   5.673 -0.0081  0.1408 -0.2543
 1121loPI    C317595  12.936  14.687   5.714  0.0138  0.1474 -0.0622
 1121loPI   PO417596  13.348  14.925   6.119  0.0439 -0.0868  0.0018
 1121loPI   GL117597  13.452  15.109   6.606  0.1410  0.2002  0.1426
 1121loPI   GL217598  13.192  14.988   6.805  0.1107  0.0802 -0.2384
 1121loPI   C1A17599  13.745  14.970   6.857 -0.0993  0.2633  0.3553
 1121loPI   C2A17600  14.122  14.742   6.838  0.1771 -0.0130 -0.0818
 1121loPI   C3A17601  14.206  14.627   7.363 -0.0063 -0.2655 -0.0218
 1121loPI   C4A17602  14.380  14.726   7.752 -0.0280 -0.3097  0.0909
 1121loPI   C5A17603  14.555  14.319   7.887  0.0092  0.0979  0.3235
 1121loPI   C6A17604  14.498  13.918   7.982 -0.2185 -0.2120  0.2038
 1121loPI   C1B17605  13.196  14.622   7.015  0.1039 -0.0418 -0.1327
 1121loPI   C2B17606  13.146  14.327   7.368 -0.1096  0.0286  0.1028
 1121loPI   C3B17607  12.775  14.443   7.709 -0.0458 -0.1774  0.2012
 1121loPI   C4B17608  12.394  14.171   7.783 -0.0888  0.0311 -0.0062
 1122loPI    C117609   2.513   8.054   5.509 -0.1323  0.1295  0.0275
 1122loPI    C217610   2.514   7.855   5.162 -0.2342 -0.0239  0.1140
 1122loPI    C317611   2.450   8.249   5.166 -0.2202 -0.0195 -0.0423
 1122loPI   PO417612   2.553   7.813   5.742  0.2726  0.0740 -0.0179
 1122loPI   GL117613   2.188   7.954   6.033 -0.1565  0.1855 -0.0191
 1122loPI   GL217614   2.191   8.206   6.214 -0.2123 -0.2232  0.3388
 1122loPI   C1A17615   1.997   7.740   6.402  0.5531  0.1688  0.1050
 1122loPI   C2A17616   1.888   7.686   6.766 -0.0348 -0.0805  0.1950
 1122loPI   C3A17617   1.923   7.700   7.236  0.1176  0.1094  0.1128
 1122loPI   C4A17618   1.937   7.600   7.596 -0.1935  0.4668 -0.0052
 1122loPI   C5A17619   1.931   7.641   8.008  0.0275 -0.1772 -0.1323
 1122loPI   C6A17620   1.983   7.927   8.398 -0.1868  0.0696 -0.0249
 1122loPI   C1B17621   2.006   8.189   6.676  0.0118 -0.0149  0.1726
 1122loPI   C2B17622   2.085   8.171   7.094  0.2008 -0.1605  0.0699
 1122loPI   C3B17623   1.976   8.162   7.572  0.0602  0.2366  0.0376
 1122loPI   C4B17624   2.008   8.216   7.989  0.0857 -0.2845  0.0227
 1123loPI    C117625   5.168   8.127   5.763  0.0967 -0.1331 -0.1758
 1123loPI    C217626   5.479   8.143   5.512  0.1071 -0.1939 -0.1670
 1123loPI    C317627   5.114   8.245   5.384  0.1370 -0.0850 -0.1667
 1123loPI   PO417628   5.227   7.861   5.892 -0.1905 -0.0767 -0.0763
 1123loPI   GL117629   5.208   7.945   6.368 -0.0067  0.0047  0.0057
 1123loPI   GL217630   5.020   7.671   6.287  0.1366 -0.0239  0.0408
 1123loPI   C1A17631   5.131   7.947   6.744  0.0402 -0.0646 -0.2235
 1123loPI   C2A17632   5.228   7.915   7.135  0.0061  0.1026 -0.1413
 1123loPI   C3A17633   5.186   7.939   7.503 -0.1582  0.1938  0.1271
 1123loPI   C4A17634   5.175   7.949   7.938 -0.0324  0.2560  0.1272
 1123loPI   C5A17635   5.372   7.832   8.239  0.2807 -0.0556 -0.2381
 1123loPI   C6A17636   5.724   7.484   8.272  0.1643 -0.1101 -0.3834
 1123loPI   C1B17637   5.054   7.439   6.646 -0.0234 -0.3836 -0.1681
 1123loPI   C2B17638   5.104   7.438   7.117  0.4896  0.1657  0.0805
 1123loPI   C3B17639   5.059   7.358   7.555 -0.1215  0.0826 -0.2218
 1123loPI   C4B17640   5.009   7.468   8.025  0.0259  0.2095  0.1298
 1124loPI    C117641   6.877  13.590   5.464  0.0901  0.2553  0.1006
 1124loPI    C217642   6.583  13.611   5.194  0.1921 -0.0307 -0.0372
 1124loPI    C317643   6.783  13.942   5.299 -0.1949  0.1724  0.0811
 1124loPI   PO417644   6.689  13.514   5.691 -0.0795 -0.0678  0.0983
 1124loPI   GL117645   6.486  13.558   6.116 -0.0585 -0.0256 -0.0112
 1124loPI   GL217646   6.613  13.308   6.253  0.5120  0.0806 -0.1145
 1124loPI   C1A17647   6.276  13.578   6.575 -0.1972 -0.2489 -0.2056
 1124loPI   C2A17648   6.295  13.534   7.057  0.0349  0.1010  0.2788
 1124loPI   C3A17649   6.271  13.437   7.522 -0.1483 -0.0281  0.1673
 1124loPI   C4A17650   6.250  13.469   8.004  0.0722  0.0765  0.2019
 1124loPI   C5A17651   6.432  13.453   8.305 -0.0675 -0.1941 -0.1397
 1124loPI   C6A17652   6.877  13.340   8.445 -0.0112  0.0822 -0.1833
 1124loPI   C1B17653   6.637  13.166   6.666  0.0821  0.1893  0.1035
 1124loPI   C2B17654   6.700  13.225   7.046  0.4346  0.3465  0.2397
 1124loPI   C3B17655   6.698  13.045   7.529  0.1415 -0.2299  0.4640
 1124loPI   C4B17656   6.665  13.148   7.916 -0.5298  0.3416  0.2656
 1125loPI    C117657  13.489  17.223   5.861  0.0851 -0.0570  0.0005
 1125loPI    C217658  13.546  17.570   5.670  0.0014 -0.0380  0.0101
 1125loPI    C317659  13.211  17.360   5.609  0.0485 -0.1132  0.0101
 1125loPI   PO417660  13.511  17.231   6.124 -0.1801 -0.2071  0.2291
 1125loPI   GL117661  13.656  17.526   6.399 -0.2663 -0.0456 -0.0399
 1125loPI   GL217662  13.488  17.351   6.729  0.1497  0.1584 -0.2198
 1125loPI   C1A17663  13.834  17.660   6.766 -0.1338  0.1019  0.0132
 1125loPI   C2A17664  14.079  17.739   7.163 -0.0745 -0.0688 -0.1681
 1125loPI   C3A17665  14.277  17.731   7.513 -0.1720  0.1188  0.0080
 1125loPI   C4A17666  14.295  17.767   7.900 -0.0328 -0.2113 -0.1507
 1125loPI   C5A17667  14.355  17.736   8.353 -0.0941 -0.0638 -0.0310
 1125loPI   C6A17668  14.570  17.496   8.510 -0.1051  0.0550  0.0564
 1125loPI   C1B17669  13.419  17.415   7.204 -0.0250  0.0770  0.1659
 1125loPI   C2B17670  13.320  17.450   7.543  0.0302 -0.0979  0.1772
 1125loPI   C3B17671  13.356  17.499   8.032  0.2407 -0.0716 -0.0337
 1125loPI   C4B17672  13.543  17.415   8.468  0.0011 -0.0075  0.0245
 1126loPI    C117673  12.569   3.520   5.822  0.1113  0.0781 -0.1688
 1126loPI    C217674  12.225   3.323   5.769  0.1919 -0.0229 -0.3237
 1126loPI    C317675  12.362   3.567   5.483  0.0974  0.2537 -0.1372
 1126loPI   PO417676  12.609   3.592   6.134  0.0289 -0.0293 -0.3642
 1126loPI   GL117677  12.612   3.443   6.534 -0.3015 -0.0011 -0.0244
 1126loPI   GL217678  12.777   3.797   6.566  0.3351 -0.0807  0.2175
 1126loPI   C1A17679  12.641   3.412   6.996 -0.2447 -0.0352 -0.2834
 1126loPI   C2A17680  12.573   3.423   7.433 -0.2674 -0.0335 -0.0223
 1126loPI   C3A17681  12.694   3.295   7.876 -0.0183 -0.2643 -0.0177
 1126loPI   C4A17682  12.587   3.295   8.296 -0.4812  0.2558 -0.0510
 1126loPI   C5A17683  12.327   3.499   8.569  0.2597 -0.3750 -0.0518
 1126loPI   C6A17684  12.035   3.840   8.571  0.1529  0.3625  0.1558
 1126loPI   C1B17685  12.740   3.954   7.018 -0.3804  0.0812  0.1254
 1126loPI   C2B17686  12.774   3.916   7.462  0.2322  0.0939  0.0448
 1126loPI   C3B17687  12.626   3.888   7.879 -0.0954 -0.1195  0.0303
 1126loPI   C4B17688  12.692   3.791   8.328  0.0093 -0.0517  0.2311
 1127loPI    C117689  11.059   6.737   5.536  0.2284 -0.1942  0.0312
 1127loPI    C217690  10.895   6.984   5.268 -0.0463 -0.1515  0.2338
 1127loPI    C317691  11.155   6.704   5.150 -0.1468 -0.1190 -0.0726
 1127loPI   PO417692  10.814   6.705   5.698 -0.2049  0.1799  0.0652
 1127loPI   GL117693  10.710   6.864   6.079  0.1596  0.1093  0.4540
 1127loPI   GL217694  11.010   6.894   6.119  0.1435  0.1900  0.0677
 1127loPI   C1A17695  10.486   6.802   6.375 -0.0081  0.4204 -0.3991
 1127loPI   C2A17696  10.536   6.824   6.813 -0.0246  0.0338 -0.1413
 1127loPI   C3A17697  10.656   6.881   7.258 -0.0554 -0.0701  0.2876
 1127loPI   C4A17698  10.590   6.858   7.665  0.2062  0.2589  0.0599
 1127loPI   C5A17699  10.614   6.967   8.028 -0.0799 -0.0163  0.1194
 1127loPI   C6A17700  10.703   7.371   8.245 -0.0861  0.1161 -0.2538
 1127loPI   C1B17701  11.016   7.062   6.540  0.1901  0.0743 -0.1181
 1127loPI   C2B17702  11.159   7.123   6.884  0.2641  0.1231 -0.0229
 1127loPI   C3B17703  11.118   7.037   7.297 -0.1297 -0.2755  0.0980
 1127loPI   C4B17704  11.111   7.078   7.771 -0.0502 -0.0585  0.2261
 1128loPI    C117705   6.755   4.865   5.621 -0.0383 -0.0893  0.0396
 1128loPI    C217706   7.007   4.574   5.513 -0.0676 -0.0807 -0.0532
 1128loPI    C317707   6.804   4.776   5.234 -0.0950 -0.0138  0.0148
 1128loPI   PO417708   6.636   4.823   5.814 -0.0520  0.1534  0.3173
 1128loPI   GL117709   6.597   4.945   6.276 -0.1065 -0.0330  0.0336
 1128loPI   GL217710   6.525   4.601   6.247  0.3172 -0.0544  0.0448
 1128loPI   C1A17711   6.600   4.964   6.825 -0.2487  0.0424 -0.2122
 1128loPI   C2A17712   6.469   5.011   7.221  0.0903 -0.2314  0.2744
 1128loPI   C3A17713   6.471   5.031   7.683 -0.2057  0.1530 -0.2895
 1128loPI   C4A17714   6.522   5.072   8.022  0.2939 -0.1543  0.0961
 1128loPI   C5A17715   6.330   5.178   8.338  0.0236  0.0875 -0.1221
 1128loPI   C6A17716   5.912   5.111   8.506 -0.0868 -0.1127  0.0463
 1128loPI   C1B17717   6.394   4.418   6.627  0.2068 -0.1460 -0.0666
 1128loPI   C2B17718   6.396   4.380   7.059  0.3302 -0.1685  0.1467
 1128loPI   C3B17719   6.427   4.531   7.414  0.0677 -0.1370 -0.0378
 1128loPI   C4B17720   6.448   4.534   7.892 -0.2267 -0.2125  0.1650
 1129loPI    C117721   2.717   3.803   5.604 -0.1414 -0.1627  0.0597
 1129loPI    C217722   2.325   3.744   5.653 -0.1762  0.0421  0.0395
 1129loPI    C317723   2.571   3.431   5.611 -0.3462 -0.0853 -0.0212
 1129loPI   PO417724   2.800   3.919   5.816 -0.0900 -0.1219  0.1097
 1129loPI   GL117725   3.037   3.928   6.217 -0.0346 -0.0810  0.0427
 1129loPI   GL217726   3.301   4.182   6.222  0.1140  0.1389  0.0533
 1129loPI   C1A17727   3.029   3.737   6.672 -0.0852 -0.1199 -0.0406
 1129loPI   C2A17728   3.195   3.850   7.152 -0.3086 -0.0816 -0.0756
 1129loPI   C3A17729   3.219   3.786   7.515 -0.0346  0.1729  0.0877
 1129loPI   C4A17730   3.165   3.723   7.978  0.2971 -0.3692  0.0729
 1129loPI   C5A17731   3.075   3.674   8.417  0.0635  0.0596 -0.2822
 1129loPI   C6A17732   2.844   3.454   8.769  0.0250 -0.1888  0.2518
 1129loPI   C1B17733   3.137   4.271   6.634 -0.0010 -0.0158  0.0366
 1129loPI   C2B17734   3.145   4.328   7.023 -0.2219 -0.0305 -0.1202
 1129loPI   C3B17735   3.268   4.328   7.410 -0.2466  0.1859  0.3198
 1129loPI   C4B17736   3.261   4.211   7.831  0.3427 -0.0668  0.0745
 1130loPI    C117737   4.138  10.862   5.457  0.0354 -0.1430  0.0381
 1130loPI    C217738   4.334  10.965   5.124 -0.0660 -0.0949 -0.0072
 1130loPI    C317739   3.934  10.948   5.124 -0.0635 -0.1624  0.0932
 1130loPI   PO417740   4.300  10.798   5.575  0.0163 -0.2491  0.1851
 1130loPI   GL117741   4.413  10.840   5.950 -0.1379 -0.0127  0.2365
 1130loPI   GL217742   4.642  11.097   5.999  0.1093 -0.1936 -0.5239
 1130loPI   C1A17743   4.302  10.990   6.309  0.2113  0.0840 -0.3488
 1130loPI   C2A17744   4.310  10.958   6.789 -0.0986  0.3075 -0.0490
 1130loPI   C3A17745   4.281  10.854   7.233  0.1279 -0.0259  0.5907
 1130loPI   C4A17746   4.347  10.958   7.704  0.2378 -0.1440  0.0030
 1130loPI   C5A17747   4.314  10.941   8.113 -0.0993 -0.1822  0.0943
 1130loPI   C6A17748   4.316  11.382   8.403 -0.1104 -0.0440  0.0413
 1130loPI   C1B17749   4.816  11.000   6.396  0.3453  0.0874 -0.0621
 1130loPI   C2B17750   4.819  11.092   6.864 -0.1299  0.1334 -0.0520
 1130loPI   C3B17751   4.889  11.105   7.298  0.3236  0.0949 -0.0785
 1130loPI   C4B17752   4.837  11.072   7.840 -0.2236  0.0866  0.1485
 1131loPI    C117753   1.662   6.250   5.516 -0.2306  0.0625  0.0701
 1131loPI    C217754   1.759   5.873   5.425 -0.2130  0.1102 -0.1135
 1131loPI    C317755   2.037   6.160   5.410 -0.2598  0.1554 -0.1162
 1131loPI   PO417756   1.518   6.232   5.721 -0.1301  0.1867 -0.1278
 1131loPI   GL117757   1.572   6.295   6.172 -0.0775  0.1455  0.0176
 1131loPI   GL217758   1.280   6.488   6.174  0.0506  0.1497  0.0408
 1131loPI   C1A17759   1.599   6.150   6.521 -0.1731  0.1831  0.2194
 1131loPI   C2A17760   1.660   6.157   7.004 -0.0169  0.2545 -0.3377
 1131loPI   C3A17761   1.605   6.068   7.480 -0.1725 -0.1675  0.0528
 1131loPI   C4A17762   1.691   6.133   7.860  0.1850 -0.1859  0.2433
 1131loPI   C5A17763   1.784   6.126   8.337 -0.1787  0.1394 -0.2784
 1131loPI   C6A17764   1.875   6.008   8.807 -0.0025 -0.0010  0.1365
 1131loPI   C1B17765   1.281   6.523   6.586  0.0549  0.1889  0.1364
 1131loPI   C2B17766   1.264   6.489   7.018 -0.2566 -0.0321  0.0615
 1131loPI   C3B17767   1.291   6.498   7.492  0.1037 -0.2817 -0.0950
 1131loPI   C4B17768   1.267   6.475   7.925  0.3571 -0.0358 -0.0882
 1132loPI    C117769  13.023   3.157   5.794  0.1050 -0.0137  0.0394
 1132loPI    C217770  13.279   2.850   5.789 -0.0778 -0.1664 -0.0603
 1132loPI    C317771  13.113   2.979   5.448 -0.0111  0.0367 -0.0174
 1132loPI   PO417772  12.937   3.186   6.020 -0.0807  0.0141  0.3090
 1132loPI   GL117773  13.111   3.437   6.346 -0.1122  0.0956 -0.1480
 1132loPI   GL217774  13.440   3.536   6.377 -0.1689  0.0855 -0.0897
 1132loPI   C1A17775  13.120   3.530   6.801  0.4281  0.2575 -0.0730
 1132loPI   C2A17776  13.105   3.643   7.211  0.0445 -0.0333 -0.0027
 1132loPI   C3A17777  13.049   3.559   7.637  0.2228 -0.2339 -0.2114
 1132loPI   C4A17778  13.096   3.539   8.014  0.1093 -0.0715 -0.1783
 1132loPI   C5A17779  13.061   3.446   8.373 -0.0315 -0.1488  0.0938
 1132loPI   C6A17780  13.264   3.482   8.829 -0.0692  0.0486  0.1225
 1132loPI   C1B17781  13.586   3.697   6.776 -0.1441 -0.0396 -0.0650
 1132loPI   C2B17782  13.596   3.709   7.290 -0.0145 -0.1312  0.0386
 1132loPI   C3B17783  13.561   3.691   7.650 -0.2018 -0.0678 -0.0296
 1132loPI   C4B17784  13.630   3.649   8.029 -0.2118  0.0934  0.1526
 1133loPI    C117785   2.447  13.204   5.278 -0.1363 -0.0017 -0.0411
 1133loPI    C217786   2.630  12.997   4.990 -0.0972 -0.2325  0.1467
 1133loPI    C317787   2.310  13.221   4.903  0.1914  0.0721 -0.1604
 1133loPI   PO417788   2.494  13.006   5.551  0.1537 -0.0318 -0.2816
 1133loPI   GL117789   2.508  12.796   5.998  0.0351  0.0694  0.1085
 1133loPI   GL217790   2.498  12.588   6.191  0.2072  0.1203 -0.2155
 1133loPI   C1A17791   2.091  12.952   6.212 -0.0664 -0.1543 -0.0952
 1133loPI   C2A17792   2.071  12.958   6.575  0.0244  0.3292 -0.1325
 1133loPI   C3A17793   2.162  12.923   7.003  0.1295  0.1723 -0.1446
 1133loPI   C4A17794   1.951  12.890   7.315 -0.4058  0.4749 -0.2238
 1133loPI   C5A17795   1.938  12.950   7.705 -0.1139 -0.2374  0.2994
 1133loPI   C6A17796   2.231  13.081   7.995  0.0719  0.3760 -0.3146
 1133loPI   C1B17797   2.434  12.620   6.624  0.3377 -0.2639 -0.0312
 1133loPI   C2B17798   2.422  12.453   7.035 -0.2199  0.1442  0.3310
 1133loPI   C3B17799   2.373  12.563   7.390  0.3100  0.0052 -0.0074
 1133loPI   C4B17800   2.315  12.635   7.753  0.1101  0.0095 -0.1029
 1134loPI    C117801  11.977  16.763   5.647 -0.0986  0.1468 -0.1613
 1134loPI    C217802  12.234  16.697   5.348 -0.0389  0.0813 -0.0961
 1134loPI    C317803  11.910  16.466   5.388  0.0959 -0.0851  0.0497
 1134loPI   PO417804  12.144  16.775   5.830  0.0553 -0.1925 -0.2037
 1134loPI   GL117805  12.172  16.578   6.261  0.2122  0.0410  0.1949
 1134loPI   GL217806  11.882  16.608   6.303 -0.2228  0.1978  0.1206
 1134loPI   C1A17807  12.250  16.637   6.762  0.1000 -0.2707  0.2807
 1134loPI   C2A17808  12.231  16.648   7.227 -0.0487  0.0097  0.0463
 1134loPI   C3A17809  12.262  16.683   7.630 -0.2184 -0.0273  0.1331
 1134loPI   C4A17810  12.250  16.546   8.186 -0.0337 -0.1627 -0.1636
 1134loPI   C5A17811  11.881  16.440   8.319  0.2384  0.0908 -0.0990
 1134loPI   C6A17812  11.493  16.279   8.537 -0.0867  0.0484 -0.1467
 1134loPI   C1B17813  11.746  16.488   6.647  0.2689 -0.1931 -0.0061
 1134loPI   C2B17814  11.811  16.421   7.042 -0.0220 -0.0453 -0.0516
 1134loPI   C3B17815  11.851  16.441   7.468  0.2041 -0.0643 -0.0168
 1134loPI   C4B17816  11.814  16.509   7.833 -0.2597 -0.1623 -0.3280
 1135loPI    C117817   1.336  13.785   5.508 -0.0805 -0.0363 -0.0841
 1135loPI    C217818   0.955  13.670   5.547 -0.1788  0.2485 -0.1796
 1135loPI    C317819   1.058  13.925   5.256  0.0299  0.4127  0.0344
 1135loPI   PO417820   1.399  13.878   5.761 -0.0707 -0.3525  0.1561
 1135loPI   GL117821   1.537  13.774   6.085  0.1254 -0.2281 -0.1375
 1135loPI   GL217822   1.743  13.815   6.281  0.2449 -0.0850  0.0110
 1135loPI   C1A17823   1.240  13.599   6.370 -0.0637  0.2662 -0.2675
 1135loPI   C2A17824   1.213  13.682   6.750  0.1106  0.0532  0.3440
 1135loPI   C3A17825   1.311  13.642   7.216 -0.2083  0.2040  0.1762
 1135loPI   C4A17826   1.195  13.583   7.626 -0.1691 -0.0995 -0.0300
 1135loPI   C5A17827   1.128  13.429   8.074 -0.1378  0.2338  0.0134
 1135loPI   C6A17828   1.162  13.022   8.358  0.3411 -0.0179  0.0943
 1135loPI   C1B17829   1.666  13.869   6.721  0.1659  0.1869  0.2167
 1135loPI   C2B17830   1.768  13.895   7.110 -0.3733  0.1386 -0.1525
 1135loPI   C3B17831   1.704  13.830   7.504  0.0686 -0.1757 -0.1262
 1135loPI   C4B17832   1.580  13.860   7.909 -0.0569  0.1820  0.2292
 1136loPI    C117833   4.338   0.175   5.462 -0.0128  0.1459  0.2003
 1136loPI    C217834   4.525   0.237   5.114  0.2318 -0.0520  0.2935
 1136loPI    C317835   4.125   0.243   5.130  0.2165 -0.1262 -0.0066
 1136loPI   PO417836   4.489   0.114   5.788  0.1981 -0.2981  0.2142
 1136loPI   GL117837   4.681   0.300   6.177  0.2960 -0.3383 -0.2545
 1136loPI   GL217838   4.675   0.045   6.383 -0.0304 -0.0308 -0.1330
 1136loPI   C1A17839   4.856   0.510   6.600 -0.0710 -0.0119 -0.4119
 1136loPI   C2A17840   4.878   0.658   7.007 -0.2550 -0.1064 -0.1473
 1136loPI   C3A17841   4.908   0.536   7.398  0.0288 -0.3332 -0.1198
 1136loPI   C4A17842   4.841   0.542   7.788  0.0807  0.3315 -0.3573
 1136loPI   C5A17843   4.958   0.562   8.209 -0.0855 -0.1473 -0.0703
 1136loPI   C6A17844   4.744   0.557   8.568 -0.1004  0.1783  0.1375
 1136loPI   C1B17845   4.795   0.005   6.771  0.1114  0.1039  0.0306
 1136loPI   C2B17846   4.819   0.045   7.194 -0.3143 -0.2581  0.2343
 1136loPI   C3B17847   4.781  -0.023   7.648 -0.2891  0.0715 -0.0909
 1136loPI   C4B17848   4.712  -0.022   8.087  0.0938 -0.0546  0.0442
 1137loPI    C117849  17.559   0.293   5.699  0.1492  0.2266 -0.0780
 1137loPI    C217850  17.586   0.354   5.305 -0.1615  0.0180 -0.1349
 1137loPI    C317851  17.243   0.429   5.496  0.0542  0.3365  0.1402
 1137loPI   PO417852  17.722   0.318   5.793 -0.5037 -0.3170  0.0346
 1137loPI   GL117853  17.632   0.266   6.225 -0.4543  0.0682  0.1520
 1137loPI   GL217854  17.900   0.305   6.395  0.0610 -0.1052  0.2516
 1137loPI   C1A17855  17.424   0.213   6.580 -0.1267  0.1102  0.0406
 1137loPI   C2A17856  17.348   0.244   7.047 -0.3190  0.1318  0.0977
 1137loPI   C3A17857  17.490   0.248   7.449 -0.0062  0.5890  0.2810
 1137loPI   C4A17858  17.433   0.231   7.801 -0.0030 -0.4366 -0.0492
 1137loPI   C5A17859  17.516   0.251   8.185 -0.0411 -0.1379  0.0986
 1137loPI   C6A17860  17.274   0.300   8.599  0.1814 -0.1996  0.0039
 1137loPI   C1B17861  17.824   0.333   6.844  0.1020 -0.0994  0.1763
 1137loPI   C2B17862  17.915   0.405   7.290  0.2412 -0.1341 -0.0313
 1137loPI   C3B17863  17.915   0.332   7.737 -0.0147  0.0633 -0.0779
 1137loPI   C4B17864  17.949   0.397   8.224  0.1192 -0.0212  0.2730
 1138loPI    C117865   1.097  15.340   5.340  0.2043  0.0466 -0.1558
 1138loPI    C217866   1.176  15.496   4.980 -0.0009  0.0305 -0.2091
 1138loPI    C317867   1.235  15.106   5.046  0.0348  0.0330 -0.2256
 1138loPI   PO417868   1.199  15.593   5.510 -0.1202  0.4003 -0.0230
 1138loPI   GL117869   1.338  15.626   5.951  0.1723 -0.1776  0.1947
 1138loPI   GL217870   1.072  15.663   6.077  0.1241 -0.1803  0.3222
 1138loPI   C1A17871   1.558  15.691   6.349  0.0346 -0.3219 -0.2309
 1138loPI   C2A17872   1.611  15.740   6.797  0.2288 -0.0865  0.1886
 1138loPI   C3A17873   1.577  15.675   7.204 -0.1865  0.1672 -0.0852
 1138loPI   C4A17874   1.624  15.693   7.610  0.0439 -0.0338 -0.1447
 1138loPI   C5A17875   1.625  15.749   8.038 -0.1287 -0.2065  0.0051
 1138loPI   C6A17876   1.279  15.584   8.307  0.0079  0.1033 -0.2041
 1138loPI   C1B17877   1.081  15.562   6.481 -0.0101  0.2629  0.0208
 1138loPI   C2B17878   1.073  15.461   6.969 -0.1822 -0.1877 -0.0266
 1138loPI   C3B17879   1.160  15.533   7.370  0.0596  0.1605 -0.0958
 1138loPI   C4B17880   1.111  15.570   7.842  0.1075 -0.1997  0.3194
 1139loPI    C117881  15.938   6.042   5.983 -0.0376  0.0301 -0.0820
 1139loPI    C217882  16.149   5.820   5.726  0.0071  0.0370 -0.0515
 1139loPI    C317883  15.856   6.057   5.592 -0.3178 -0.3485 -0.0435
 1139loPI   PO417884  15.827   5.764   6.132  0.1637 -0.2051  0.2280
 1139loPI   GL117885  15.661   5.887   6.456 -0.1464  0.1690 -0.2314
 1139loPI   GL217886  15.900   5.705   6.598  0.0793  0.3825  0.4643
 1139loPI   C1A17887  15.516   5.943   6.861 -0.3552 -0.1477 -0.1314
 1139loPI   C2A17888  15.369   5.750   7.200  0.0422 -0.2178 -0.1090
 1139loPI   C3A17889  15.430   5.666   7.632  0.3810  0.1666 -0.2002
 1139loPI   C4A17890  15.387   5.670   8.019  0.2263  0.0878 -0.0467
 1139loPI   C5A17891  15.313   5.668   8.482 -0.0423  0.2626  0.0368
 1139loPI   C6A17892  14.999   5.725   8.704  0.0072 -0.0203 -0.1197
 1139loPI   C1B17893  15.834   5.457   6.979 -0.1682 -0.2541 -0.1318
 1139loPI   C2B17894  15.793   5.329   7.403  0.1301  0.1908  0.2639
 1139loPI   C3B17895  15.814   5.278   7.831  0.2614 -0.0110 -0.0672
 1139loPI   C4B17896  15.903   5.456   8.248 -0.0236  0.0879  0.0179
 1140loPI    C117897   3.261   9.541   5.522 -0.0097  0.1704  0.1444
 1140loPI    C217898   3.609   9.713   5.424  0.0661  0.0279  0.1596
 1140loPI    C317899   3.521   9.348   5.287 -0.0942  0.0782  0.1263
 1140loPI   PO417900   3.159   9.623   5.843 -0.0892 -0.2281  0.3515
 1140loPI   GL117901   3.019   9.616   6.225  0.2790 -0.0407  0.0944
 1140loPI   GL217902   2.852   9.808   6.408  0.1172 -0.0614 -0.1246
 1140loPI   C1A17903   3.240   9.585   6.645  0.0011  0.1934 -0.1065
 1140loPI   C2A17904   3.218   9.591   7.038  0.1114 -0.2783 -0.0579
 1140loPI   C3A17905   3.175   9.603   7.589  0.0491 -0.0186 -0.0473
 1140loPI   C4A17906   3.268   9.533   8.080  0.0509 -0.1966  0.2114
 1140loPI   C5A17907   3.177   9.413   8.474 -0.1227  0.3234  0.1360
 1140loPI   C6A17908   2.872   9.236   8.681  0.3019 -0.0554 -0.0792
 1140loPI   C1B17909   2.855   9.807   6.790 -0.2007 -0.1448  0.0067
 1140loPI   C2B17910   2.784   9.816   7.267  0.0483 -0.4367 -0.0296
 1140loPI   C3B17911   2.690   9.897   7.665 -0.2353 -0.0801  0.3471
 1140loPI   C4B17912   2.873   9.915   8.014 -0.0066  0.0261 -0.1319
 1141loPI    C117913   4.632   8.393   5.475  0.2556  0.0201  0.0707
 1141loPI    C217914   4.846   8.595   5.204  0.0294  0.0102 -0.1193
 1141loPI    C317915   4.638   8.272   5.093 -0.3721  0.2271 -0.0167
 1141loPI   PO417916   4.736   8.366   5.756  0.0175  0.2261  0.1795
 1141loPI   GL117917   4.603   8.380   6.128  0.1465  0.0040 -0.1471
 1141loPI   GL217918   4.820   8.233   6.340 -0.0626 -0.1444  0.0462
 1141loPI   C1A17919   4.364   8.526   6.492  0.2003  0.1155 -0.0321
 1141loPI   C2A17920   4.399   8.541   6.933 -0.0425 -0.5081  0.1093
 1141loPI   C3A17921   4.282   8.544   7.367 -0.1196  0.1660  0.0543
 1141loPI   C4A17922   4.357   8.529   7.773 -0.1558  0.0530  0.0071
 1141loPI   C5A17923   4.344   8.333   8.242 -0.2923 -0.1279 -0.1782
 1141loPI   C6A17924   4.404   8.506   8.654  0.0560  0.2423  0.0151
 1141loPI   C1B17925   4.813   8.304   6.735 -0.0142 -0.1406 -0.1153
 1141loPI   C2B17926   4.823   8.222   7.180  0.0499  0.1199 -0.1467
 1141loPI   C3B17927   4.752   8.255   7.581  0.0464 -0.6247 -0.3762
 1141loPI   C4B17928   4.719   8.241   7.979  0.0868  0.0913 -0.2821
 1142loPI    C117929  16.746  15.921   5.828  0.1580 -0.1012  0.0061
 1142loPI    C217930  17.066  15.810   5.615  0.0493 -0.2061 -0.1047
 1142loPI    C317931  16.778  16.028   5.443  0.0963 -0.0465  0.0161
 1142loPI   PO417932  16.913  16.005   6.175 -0.4160 -0.1210  0.5251
 1142loPI   GL117933  17.094  15.703   6.549 -0.0015  0.2123 -0.1622
 1142loPI   GL217934  17.381  15.580   6.557  0.0643  0.1775 -0.2543
 1142loPI   C1A17935  17.011  15.813   6.894 -0.1991 -0.1389  0.1736
 1142loPI   C2A17936  17.108  15.877   7.384 -0.0964  0.2010 -0.1630
 1142loPI   C3A17937  17.097  15.840   7.853 -0.0576  0.0309  0.3517
 1142loPI   C4A17938  17.154  15.666   8.173 -0.1379  0.0358 -0.2524
 1142loPI   C5A17939  17.053  15.438   8.481  0.2395  0.0721  0.1833
 1142loPI   C6A17940  16.894  15.179   8.745  0.1547  0.1695 -0.1722
 1142loPI   C1B17941  17.441  15.564   7.030  0.1246  0.0635 -0.0725
 1142loPI   C2B17942  17.472  15.569   7.462  0.0008  0.0329  0.2942
 1142loPI   C3B17943  17.519  15.421   7.877  0.0508  0.3183 -0.1251
 1142loPI   C4B17944  17.490  15.260   8.328 -0.3724  0.2832 -0.4649
 1143loPI    C117945   7.614  10.571   5.478  0.0354  0.1460  0.0087
 1143loPI    C217946   7.346  10.718   5.221  0.0059 -0.0340 -0.0653
 1143loPI    C317947   7.712  10.621   5.093  0.0897  0.1578  0.0239
 1143loPI   PO417948   7.452  10.664   5.725 -0.1591 -0.0097 -0.1422
 1143loPI   GL117949   7.446  10.660   6.224  0.0799  0.3043 -0.3017
 1143loPI   GL217950   7.156  10.510   6.359 -0.0505  0.1268 -0.2285
 1143loPI   C1A17951   7.570  10.595   6.631 -0.1953  0.0768 -0.0593
 1143loPI   C2A17952   7.668  10.648   7.012 -0.2608  0.0105 -0.0653
 1143loPI   C3A17953   7.639  10.648   7.464 -0.0956 -0.2670 -0.1079
 1143loPI   C4A17954   7.622  10.499   7.914  0.1769  0.3749  0.1573
 1143loPI   C5A17955   7.368  10.581   8.216 -0.0200 -0.0218  0.2914
 1143loPI   C6A17956   6.941  10.430   8.432  0.3175  0.1230  0.1535
 1143loPI   C1B17957   7.079  10.401   6.832 -0.3467 -0.1983 -0.0395
 1143loPI   C2B17958   7.228  10.440   7.255 -0.0067  0.1061  0.0250
 1143loPI   C3B17959   7.172  10.358   7.704 -0.0552  0.3394  0.3151
 1143loPI   C4B17960   7.116  10.201   8.049 -0.0016 -0.0450 -0.1394
 1144loPI    C117961  11.300  12.909   5.724 -0.0137  0.0512  0.1491
 1144loPI    C217962  11.451  13.276   5.676  0.1700 -0.0336  0.0675
 1144loPI    C317963  11.328  13.068   5.358  0.0626 -0.0415  0.1140
 1144loPI   PO417964  11.517  12.806   5.898  0.3056  0.0613 -0.2461
 1144loPI   GL117965  11.661  12.649   6.294  0.1977  0.0434 -0.2233
 1144loPI   GL217966  11.468  12.389   6.468 -0.2841  0.2371 -0.0587
 1144loPI   C1A17967  11.761  12.638   6.767 -0.0330 -0.1677  0.1782
 1144loPI   C2A17968  11.700  12.523   7.245  0.0421  0.0859 -0.1208
 1144loPI   C3A17969  11.715  12.553   7.686 -0.0915  0.0152 -0.1077
 1144loPI   C4A17970  11.800  12.617   8.118 -0.3364  0.0830  0.0715
 1144loPI   C5A17971  11.491  12.704   8.489  0.0417 -0.4338 -0.0732
 1144loPI   C6A17972  11.236  12.411   8.761  0.0920  0.0205 -0.0681
 1144loPI   C1B17973  11.260  12.412   6.908  0.0619  0.3737  0.1083
 1144loPI   C2B17974  11.212  12.314   7.374  0.0263 -0.0772  0.3292
 1144loPI   C3B17975  11.153  12.243   7.796  0.0720 -0.0988 -0.0705
 1144loPI   C4B17976  11.319  12.276   8.220  0.2588 -0.0768 -0.1225
 1145loPI    C117977   6.964   5.515   5.629 -0.0779 -0.0454  0.1655
 1145loPI    C217978   6.702   5.709   5.397  0.0484  0.1302  0.1681
 1145loPI    C317979   6.765   5.318   5.343  0.0128  0.1517 -0.0369
 1145loPI   PO417980   6.990   5.678   5.831 -0.0384  0.0054  0.1415
 1145loPI   GL117981   7.012   5.619   6.170 -0.3591 -0.0338  0.0634
 1145loPI   GL217982   6.698   5.651   6.290  0.0416  0.0362  0.0744
 1145loPI   C1A17983   7.167   5.783   6.634  0.4020  0.2207  0.0613
 1145loPI   C2A17984   7.095   5.768   7.042  0.0942 -0.1499 -0.0995
 1145loPI   C3A17985   6.994   5.670   7.462 -0.0044 -0.3480  0.0406
 1145loPI   C4A17986   7.045   5.582   7.861  0.0107  0.4098  0.0301
 1145loPI   C5A17987   7.019   5.327   8.098  0.0235  0.0800  0.1345
 1145loPI   C6A17988   6.835   5.113   8.448  0.0717 -0.1751 -0.0296
 1145loPI   C1B17989   6.706   5.570   6.703 -0.0169  0.1373 -0.3554
 1145loPI   C2B17990   6.561   5.494   7.206  0.0558  0.1201 -0.0881
 1145loPI   C3B17991   6.527   5.556   7.677 -0.2079  0.2898 -0.0681
 1145loPI   C4B17992   6.555   5.561   8.188 -0.1074 -0.1553  0.0184
 1146loPI    C117993   0.503   0.708   5.503  0.0613 -0.0695  0.0125
 1146loPI    C217994   0.752   0.753   5.192  0.1202  0.0419  0.0750
 1146loPI    C317995   0.357   0.728   5.131  0.1183  0.2350  0.0042
 1146loPI   PO417996   0.634   0.899   5.811 -0.1102  0.0155  0.1099
 1146loPI   GL117997   0.710   0.780   6.266 -0.0150 -0.1253 -0.0790
 1146loPI   GL217998   0.722   0.979   6.471 -0.0750 -0.2748 -0.0014
 1146loPI   C1A17999   0.679   0.516   6.618  0.0374  0.4989 -0.2652
 1146loPI   C2A18000   0.676   0.493   7.096 -0.1505  0.2318  0.0802
 1146loPI   C3A18001   0.728   0.570   7.574  0.1359  0.1546 -0.3542
 1146loPI   C4A18002   0.767   0.471   7.967  0.0568 -0.3535 -0.3592
 1146loPI   C5A18003   0.786   0.426   8.389 -0.1054 -0.4406 -0.2928
 1146loPI   C6A18004   1.078   0.268   8.653  0.1592  0.1331  0.1835
 1146loPI   C1B18005   0.768   1.085   6.830 -0.1804 -0.2946 -0.1381
 1146loPI   C2B18006   0.880   1.027   7.321  0.0013  0.1464 -0.1527
 1146loPI   C3B18007   0.848   1.028   7.734  0.0935 -0.2085  0.0613
 1146loPI   C4B18008   0.950   0.914   8.169  0.1660 -0.0278  0.0365
 1147loPI    C118009   5.401   5.830   5.718  0.0920 -0.1540  0.0199
 1147loPI    C218010   5.325   5.598   5.402 -0.0485 -0.2317  0.1097
 1147loPI    C318011   5.577   5.907   5.367 -0.3050 -0.0477 -0.1614
 1147loPI   PO418012   5.290   5.639   5.960 -0.5343  0.1677 -0.0529
 1147loPI   GL118013   5.193   5.248   6.197  0.2902  0.0685 -0.0319
 1147loPI   GL218014   5.434   5.490   6.438 -0.1230 -0.0930  0.0496
 1147loPI   C1A18015   5.119   5.076   6.589  0.0611  0.1849  0.0007
 1147loPI   C2A18016   5.097   5.103   7.060 -0.1469 -0.1314  0.0907
 1147loPI   C3A18017   5.200   5.035   7.386 -0.0855 -0.1767 -0.2884
 1147loPI   C4A18018   5.200   4.987   7.833 -0.4429 -0.1233  0.0796
 1147loPI   C5A18019   4.970   5.014   8.277  0.3102  0.0548  0.0955
 1147loPI   C6A18020   5.035   4.932   8.698 -0.0550  0.0411 -0.1268
 1147loPI   C1B18021   5.291   5.492   6.785  0.1490  0.2561  0.3884
 1147loPI   C2B18022   5.331   5.509   7.236  0.1092 -0.0265 -0.0926
 1147loPI   C3B18023   5.292   5.505   7.642  0.3775  0.1703 -0.3196
 1147loPI   C4B18024   5.104   5.476   8.057 -0.0179 -0.0451 -0.1310
 1148loPI    C118025  12.448   4.179   5.765  0.1391 -0.0883  0.1265
 1148loPI    C218026  12.722   3.926   5.622  0.1194  0.0107 -0.0891
 1148loPI    C318027  12.451   4.088   5.376  0.2035  0.3301  0.0240
 1148loPI   PO418028  12.358   4.017   5.983 -0.3505  0.0795  0.4511
 1148loPI   GL118029  12.153   4.093   6.280  0.1667 -0.0956 -0.2596
 1148loPI   GL218030  12.325   3.904   6.439  0.1677  0.1604  0.4102
 1148loPI   C1A18031  11.860   4.033   6.596 -0.0136 -0.2014  0.1194
 1148loPI   C2A18032  11.940   4.146   6.962  0.0157  0.0489 -0.1175
 1148loPI   C3A18033  11.890   4.078   7.406 -0.1118  0.0888 -0.1113
 1148loPI   C4A18034  11.857   4.007   7.860  0.2449  0.0641 -0.0600
 1148loPI   C5A18035  11.751   4.085   8.226 -0.0439 -0.0834  0.0361
 1148loPI   C6A18036  11.709   4.401   8.561 -0.2611 -0.1016 -0.1185
 1148loPI   C1B18037  12.317   3.768   6.789  0.1147 -0.1154 -0.1268
 1148loPI   C2B18038  12.295   3.789   7.256 -0.0734  0.1643 -0.1528
 1148loPI   C3B18039  12.208   3.709   7.624  0.3747  0.3560 -0.0827
 1148loPI   C4B18040  12.227   3.597   8.054 -0.0185 -0.2475 -0.0125
 1149loPI    C118041   7.605   6.637   5.569  0.0521 -0.0495  0.2328
 1149loPI    C218042   7.905   6.460   5.373 -0.1751 -0.0255 -0.1466
 1149loPI    C318043   7.887   6.859   5.392 -0.1409 -0.0281 -0.0549
 1149loPI   PO418044   7.591   6.436   5.818 -0.4105 -0.3618  0.0885
 1149loPI   GL118045   7.608   6.526   6.289 -0.3994 -0.1514  0.2106
 1149loPI   GL218046   7.639   6.887   6.219  0.2206  0.1526  0.1357
 1149loPI   C1A18047   7.793   6.552   6.685  0.2089 -0.1855 -0.0271
 1149loPI   C2A18048   7.692   6.322   7.097  0.0412 -0.0169  0.0306
 1149loPI   C3A18049   7.642   6.318   7.518 -0.1145 -0.1050 -0.0911
 1149loPI   C4A18050   7.755   6.378   7.942 -0.0205 -0.1792 -0.2758
 1149loPI   C5A18051   7.523   6.546   8.357  0.0541  0.3808 -0.0018
 1149loPI   C6A18052   7.650   6.900   8.648 -0.1242  0.1720 -0.2043
 1149loPI   C1B18053   7.790   7.045   6.583  0.2100  0.2761 -0.1892
 1149loPI   C2B18054   7.918   6.877   7.053 -0.0952  0.2272  0.0823
 1149loPI   C3B18055   7.809   6.845   7.443 -0.0876  0.4109  0.0188
 1149loPI   C4B18056   7.898   6.860   7.899 -0.0398  0.0996  0.1329
 1150loPI    C118057   7.539   1.777   5.676  0.0623 -0.2425  0.2291
 1150loPI    C218058   7.383   1.425   5.569  0.0251 -0.1576 -0.0018
 1150loPI    C318059   7.643   1.610   5.328 -0.0111  0.0078  0.0846
 1150loPI   PO418060   7.589   1.707   5.944 -0.0550  0.0359  0.2195
 1150loPI   GL118061   7.911   1.774   6.198 -0.1947 -0.1523 -0.1611
 1150loPI   GL218062   8.204   1.589   6.311  0.1547 -0.0009  0.0933
 1150loPI   C1A18063   7.772   1.699   6.719  0.1553 -0.0771  0.0677
 1150loPI   C2A18064   7.831   1.666   7.064  0.2723  0.0944  0.1892
 1150loPI   C3A18065   7.839   1.693   7.524 -0.1028  0.3458  0.1639
 1150loPI   C4A18066   7.813   1.562   7.993 -0.0517 -0.0809 -0.2678
 1150loPI   C5A18067   7.890   1.576   8.465 -0.4236  0.0981 -0.1159
 1150loPI   C6A18068   7.993   1.567   8.933 -0.0169 -0.1797 -0.0948
 1150loPI   C1B18069   8.257   1.842   6.716 -0.1082  0.0435 -0.0008
 1150loPI   C2B18070   8.294   1.868   7.182  0.1437  0.0330 -0.2067
 1150loPI   C3B18071   8.275   1.817   7.637 -0.3331  0.1237  0.1485
 1150loPI   C4B18072   8.266   1.737   8.046 -0.3429  0.0319  0.1662
 1151loPI    C118073  11.362   9.066   5.617  0.0951  0.0204 -0.1375
 1151loPI    C218074  11.517   8.698   5.587 -0.1272 -0.0699 -0.1973
 1151loPI    C318075  11.584   8.967   5.299  0.1480 -0.0190 -0.0886
 1151loPI   PO418076  11.399   9.103   5.883  0.0984  0.1242 -0.1118
 1151loPI   GL118077  11.673   9.262   6.184 -0.1707  0.1680  0.1395
 1151loPI   GL218078  11.961   9.168   6.228  0.1252 -0.1990  0.0520
 1151loPI   C1A18079  11.483   9.130   6.585  0.0510 -0.6043 -0.1879
 1151loPI   C2A18080  11.543   9.060   7.006 -0.1440  0.2098  0.2856
 1151loPI   C3A18081  11.536   9.159   7.529 -0.0876 -0.0374  0.2769
 1151loPI   C4A18082  11.521   9.056   7.983 -0.0834  0.3456  0.1945
 1151loPI   C5A18083  11.306   9.026   8.343  0.2630  0.3020 -0.1747
 1151loPI   C6A18084  11.466   8.798   8.710  0.2925  0.1074  0.1321
 1151loPI   C1B18085  12.031   9.307   6.605 -0.0081  0.2156  0.1190
 1151loPI   C2B18086  12.056   9.371   7.059 -0.1418 -0.0568 -0.0077
 1151loPI   C3B18087  12.102   9.247   7.473 -0.1593  0.0509 -0.1623
 1151loPI   C4B18088  12.014   9.214   7.832 -0.3060 -0.5953  0.0418
 1152loPI    C118089  15.187  16.480   5.741 -0.1120  0.0878 -0.0542
 1152loPI    C218090  14.791  16.418   5.735 -0.1170  0.1154 -0.0211
 1152loPI    C318091  15.015  16.314   5.420 -0.1782  0.2848 -0.1222
 1152loPI   PO418092  15.175  16.428   6.088  0.0727  0.2970 -0.0268
 1152loPI   GL118093  15.200  16.202   6.506 -0.0296  0.0997 -0.1031
 1152loPI   GL218094  15.456  16.145   6.390  0.1371  0.0025 -0.2488
 1152loPI   C1A18095  15.206  16.261   6.968 -0.1089  0.1153 -0.0725
 1152loPI   C2A18096  15.263  16.176   7.356  0.0040 -0.0474 -0.1969
 1152loPI   C3A18097  15.303  16.050   7.871 -0.0032 -0.0362 -0.0413
 1152loPI   C4A18098  15.183  15.923   8.270  0.0643  0.4512  0.3762
 1152loPI   C5A18099  14.901  16.076   8.576 -0.1009  0.0056  0.2825
 1152loPI   C6A18100  14.797  16.438   8.880  0.0755  0.1527 -0.2422
 1152loPI   C1B18101  15.594  15.984   6.833 -0.1780  0.1265  0.0227
 1152loPI   C2B18102  15.713  15.823   7.244  0.1052 -0.0780 -0.0515
 1152loPI   C3B18103  15.685  15.748   7.697  0.1082 -0.3331 -0.1614
 1152loPI   C4B18104  15.703  15.816   8.139  0.2132 -0.0766 -0.1483
 1153loPI    C118105   2.849  16.315   5.390  0.1205  0.1496  0.1069
 1153loPI    C218106   3.152  16.146   5.192 -0.0292  0.1703 -0.1441
 1153loPI    C318107   2.788  16.156   5.028 -0.2530 -0.1836  0.3086
 1153loPI   PO418108   3.015  16.476   5.610  0.1783 -0.2435 -0.2618
 1153loPI   GL118109   3.208  16.469   5.988  0.1812  0.1957  0.1597
 1153loPI   GL218110   3.104  16.153   6.127 -0.3729 -0.1282 -0.0144
 1153loPI   C1A18111   3.206  16.547   6.401 -0.0175  0.1724  0.2672
 1153loPI   C2A18112   3.178  16.691   6.854 -0.0761  0.2082 -0.1623
 1153loPI   C3A18113   3.288  16.690   7.333 -0.0900  0.4473  0.1713
 1153loPI   C4A18114   3.180  16.576   7.761 -0.0047 -0.2354  0.1202
 1153loPI   C5A18115   3.110  16.708   8.163 -0.1507 -0.0378 -0.2843
 1153loPI   C6A18116   2.978  16.690   8.671 -0.1496  0.4158  0.0590
 1153loPI   C1B18117   3.012  16.113   6.549  0.0419 -0.2851  0.1717
 1153loPI   C2B18118   3.128  16.193   7.011 -0.1309 -0.0086  0.1217
 1153loPI   C3B18119   3.085  16.111   7.410 -0.0053  0.2109 -0.1712
 1153loPI   C4B18120   3.066  16.115   7.933 -0.0376  0.3079 -0.0425
 1154loPI    C118121  11.737  15.005   5.779 -0.1344  0.0988 -0.0293
 1154loPI    C218122  11.721  15.213   5.438 -0.2087 -0.1354 -0.1710
 1154loPI    C318123  11.795  14.820   5.429  0.1604 -0.0778  0.1090
 1154loPI   PO418124  11.528  15.124   5.895  0.2102 -0.0111  0.0045
 1154loPI   GL118125  11.388  15.256   6.310 -0.0463 -0.0459 -0.1849
 1154loPI   GL218126  11.167  15.327   6.382  0.3131  0.3397 -0.1315
 1154loPI   C1A18127  11.515  14.940   6.655  0.0955 -0.0328 -0.0162
 1154loPI   C2A18128  11.495  14.957   7.052 -0.2067 -0.1865 -0.1810
 1154loPI   C3A18129  11.522  14.876   7.519  0.1153  0.1118 -0.2656
 1154loPI   C4A18130  11.643  14.877   7.935  0.1795  0.1606 -0.0899
 1154loPI   C5A18131  11.435  14.790   8.331 -0.0432 -0.0254 -0.2925
 1154loPI   C6A18132  11.172  14.890   8.734 -0.3078  0.0593  0.0844
 1154loPI   C1B18133  11.161  15.274   6.854 -0.0458 -0.0541  0.1512
 1154loPI   C2B18134  11.148  15.195   7.281  0.1828  0.2101  0.1435
 1154loPI   C3B18135  11.146  15.181   7.679 -0.0560 -0.1669  0.0412
 1154loPI   C4B18136  11.266  15.271   8.131 -0.3977  0.2830  0.1452
 1155loPI    C118137  17.138   2.020   5.782  0.1786 -0.1383  0.0485
 1155loPI    C218138  17.526   1.957   5.856  0.2206  0.0214 -0.0316
 1155loPI    C318139  17.396   1.979   5.479  0.1633  0.1463 -0.0049
 1155loPI   PO418140  17.041   1.884   5.952 -0.1099 -0.0346 -0.0837
 1155loPI   GL118141  17.252   1.889   6.313  0.1354  0.1624 -0.0216
 1155loPI   GL218142  17.241   1.540   6.248 -0.0666  0.3001 -0.0565
 1155loPI   C1A18143  17.390   2.078   6.727 -0.0785 -0.0508  0.0224
 1155loPI   C2A18144  17.302   2.208   7.111 -0.0172 -0.0738  0.1960
 1155loPI   C3A18145  17.446   2.137   7.460  0.0888  0.0208  0.1796
 1155loPI   C4A18146  17.390   2.057   7.930  0.2629  0.1520  0.0439
 1155loPI   C5A18147  17.510   2.092   8.414  0.2075  0.0913 -0.1420
 1155loPI   C6A18148  17.971   2.078   8.585 -0.1924  0.1212 -0.2050
 1155loPI   C1B18149  17.311   1.570   6.683 -0.3475  0.2979 -0.1886
 1155loPI   C2B18150  17.244   1.477   7.088  0.1684  0.0589  0.1054
 1155loPI   C3B18151  17.343   1.507   7.492  0.2003 -0.1291 -0.0571
 1155loPI   C4B18152  17.270   1.562   7.917 -0.2321  0.1084  0.0045
 1156loPI    C118153  15.113   4.342   5.603  0.1840  0.2058  0.0547
 1156loPI    C218154  14.867   4.487   5.322 -0.1478 -0.0969  0.1817
 1156loPI    C318155  15.185   4.270   5.216 -0.0343  0.1420  0.0244
 1156loPI   PO418156  14.993   4.274   5.766 -0.0541  0.0528 -0.1848
 1156loPI   GL118157  14.946   4.183   6.237  0.0123  0.0089 -0.1048
 1156loPI   GL218158  14.728   4.448   6.369 -0.0392 -0.2051  0.0660
 1156loPI   C1A18159  15.098   4.243   6.669  0.0990 -0.1037  0.0615
 1156loPI   C2A18160  15.014   4.136   7.040  0.0826  0.2167  0.0905
 1156loPI   C3A18161  15.089   4.137   7.477 -0.1339  0.2889  0.0204
 1156loPI   C4A18162  14.963   4.206   7.873  0.1322  0.0462 -0.0345
 1156loPI   C5A18163  15.053   4.217   8.392 -0.3213  0.1627  0.2130
 1156loPI   C6A18164  15.223   4.036   8.718  0.1410 -0.0264  0.1127
 1156loPI   C1B18165  14.638   4.447   6.774  0.2045 -0.3871  0.2670
 1156loPI   C2B18166  14.666   4.512   7.155 -0.2354  0.1207  0.1873
 1156loPI   C3B18167  14.659   4.502   7.526 -0.2229 -0.1449  0.1144
 1156loPI   C4B18168  14.638   4.610   8.002 -0.0048  0.0264  0.0724
 1157loPI    C118169   6.532   0.379   5.740 -0.1820  0.0230 -0.0058
 1157loPI    C218170   6.569   0.733   5.557 -0.2077  0.0647  0.0691
 1157loPI    C318171   6.312   0.461   5.416 -0.1248  0.0422 -0.0398
 1157loPI   PO418172   6.497   0.451   5.963  0.2490 -0.1266 -0.0473
 1157loPI   GL118173   6.564   0.371   6.249  0.0360 -0.0374  0.1840
 1157loPI   GL218174   6.243   0.314   6.385  0.0178  0.2048 -0.2341
 1157loPI   C1A18175   6.668   0.271   6.674  0.0414  0.1422  0.1119
 1157loPI   C2A18176   6.601   0.164   7.144 -0.0813  0.0261 -0.1127
 1157loPI   C3A18177   6.679   0.308   7.557  0.0461 -0.1792  0.0369
 1157loPI   C4A18178   6.454   0.230   7.998  0.0251  0.1696 -0.0905
 1157loPI   C5A18179   6.643   0.271   8.387  0.1776  0.3210 -0.0513
 1157loPI   C6A18180   6.657   0.319   8.791  0.2255 -0.0263  0.0166
 1157loPI   C1B18181   6.140   0.131   6.798  0.0205  0.1734  0.3239
 1157loPI   C2B18182   6.116   0.053   7.227 -0.0977 -0.1267 -0.1542
 1157loPI   C3B18183   6.105   0.039   7.679 -0.0576  0.0210 -0.0355
 1157loPI   C4B18184   6.115  -0.028   8.171 -0.1064  0.0225 -0.0333
 1158loPI    C118185  16.154  17.442   5.638 -0.1073  0.1494 -0.0728
 1158loPI    C218186  16.098  17.687   5.327 -0.0442  0.0219 -0.1859
 1158loPI    C318187  16.086  17.291   5.274  0.0248 -0.0008 -0.0364
 1158loPI   PO418188  16.053  17.519   5.929 -0.1332  0.0391  0.3434
 1158loPI   GL118189  15.955  17.410   6.413 -0.0054 -0.2433  0.2885
 1158loPI   GL218190  15.942  17.692   6.392 -0.3111  0.0288  0.0210
 1158loPI   C1A18191  15.957  17.410   6.881  0.2482  0.0120  0.3371
 1158loPI   C2A18192  15.889  17.376   7.266  0.1740  0.0677 -0.1507
 1158loPI   C3A18193  15.989  17.358   7.667 -0.0588 -0.1376  0.0035
 1158loPI   C4A18194  16.004  17.410   8.089 -0.2328 -0.1154  0.2967
 1158loPI   C5A18195  16.280  17.277   8.413  0.1514 -0.3712 -0.1121
 1158loPI   C6A18196  16.226  17.542   8.766  0.0105 -0.1954  0.0382
 1158loPI   C1B18197  16.012  17.936   6.744 -0.1010  0.0147  0.0604
 1158loPI   C2B18198  16.049  17.957   7.140  0.1951 -0.1659 -0.1692
 1158loPI   C3B18199  16.001  17.905   7.565  0.2357 -0.2050  0.1673
 1158loPI   C4B18200  16.136  17.874   8.005 -0.1674  0.0296 -0.0096
 1159loPI    C118201   1.411   6.749   5.752 -0.2376  0.1409 -0.1110
 1159loPI    C218202   1.122   6.511   5.612  0.0352 -0.0107 -0.4302
 1159loPI    C318203   1.402   6.654   5.364  0.1811  0.2120 -0.1436
 1159loPI   PO418204   1.324   6.927   5.897  0.2573  0.3628  0.2202
 1159loPI   GL118205   1.216   6.997   6.248  0.1871  0.0741  0.2713
 1159loPI   GL218206   0.834   6.794   6.450 -0.0382  0.1772 -0.2078
 1159loPI   C1A18207   1.361   6.985   6.697  0.0120 -0.1354 -0.2799
 1159loPI   C2A18208   1.293   6.967   7.212 -0.0555 -0.3021 -0.0545
 1159loPI   C3A18209   1.367   7.004   7.591 -0.1306 -0.2103 -0.1478
 1159loPI   C4A18210   1.288   6.972   8.062  0.0234 -0.4596  0.0765
 1159loPI   C5A18211   1.181   7.288   8.322 -0.2426 -0.0511 -0.3032
 1159loPI   C6A18212   1.141   7.519   8.669 -0.1220 -0.4512  0.0823
 1159loPI   C1B18213   0.842   6.792   6.873 -0.0211  0.2242  0.3826
 1159loPI   C2B18214   0.803   6.843   7.382 -0.1493 -0.0398 -0.1143
 1159loPI   C3B18215   0.754   6.850   7.854  0.1978 -0.2093  0.1550
 1159loPI   C4B18216   0.564   6.832   8.275 -0.0527  0.1686 -0.0475
 1160loPI    C118217   7.417  15.287   5.491 -0.2480  0.1387  0.0621
 1160loPI    C218218   7.664  15.400   5.197 -0.1316  0.1069  0.1472
 1160loPI    C318219   7.334  15.192   5.111 -0.1058  0.1106  0.0373
 1160loPI   PO418220   7.508  15.446   5.685  0.1616  0.0933 -0.2547
 1160loPI   GL118221   7.557  15.404   6.142 -0.1333  0.0553 -0.0902
 1160loPI   GL218222   7.866  15.429   6.096 -0.0046 -0.1444 -0.1627
 1160loPI   C1A18223   7.481  15.324   6.594  0.1425  0.1131 -0.0605
 1160loPI   C2A18224   7.520  15.311   7.053  0.1633 -0.0085  0.0553
 1160loPI   C3A18225   7.570  15.331   7.484 -0.0097  0.1922 -0.0422
 1160loPI   C4A18226   7.540  15.393   7.982  0.1484 -0.3810 -0.0575
 1160loPI   C5A18227   7.441  15.341   8.387  0.0166  0.2103  0.0990
 1160loPI   C6A18228   7.503  15.386   8.741 -0.0092 -0.0674  0.3247
 1160loPI   C1B18229   7.940  15.556   6.489 -0.2627  0.0602  0.1166
 1160loPI   C2B18230   7.979  15.536   6.907  0.3890 -0.0184 -0.0175
 1160loPI   C3B18231   8.030  15.506   7.359  0.1598  0.0206 -0.0703
 1160loPI   C4B18232   8.122  15.505   7.724  0.1477  0.0750  0.1625
 1161loPI    C118233  16.598   6.208   5.791 -0.1094  0.2516  0.1219
 1161loPI    C218234  16.293   6.265   5.539 -0.0064  0.0721 -0.0461
 1161loPI    C318235  16.608   6.045   5.426  0.0805  0.0618  0.2092
 1161loPI   PO418236  16.482   6.135   6.009  0.2868 -0.0831 -0.3922
 1161loPI   GL118237  16.430   6.246   6.393 -0.1071 -0.0828 -0.2280
 1161loPI   GL218238  16.098   6.235   6.399 -0.0073 -0.2524 -0.0631
 1161loPI   C1A18239  16.494   6.232   6.862  0.2749 -0.2099  0.0446
 1161loPI   C2A18240  16.410   6.085   7.197 -0.1246  0.0288 -0.0102
 1161loPI   C3A18241  16.398   5.976   7.603 -0.2545  0.2738  0.0123
 1161loPI   C4A18242  16.462   6.056   7.981 -0.0238 -0.0663 -0.1017
 1161loPI   C5A18243  16.338   6.165   8.395 -0.1781 -0.2808  0.0811
 1161loPI   C6A18244  16.084   6.285   8.593 -0.2318  0.0585 -0.2441
 1161loPI   C1B18245  15.997   6.104   6.846  0.1590 -0.0171  0.2057
 1161loPI   C2B18246  15.959   5.907   7.244 -0.2189  0.3104  0.0952
 1161loPI   C3B18247  15.940   5.746   7.589 -0.0670  0.0204  0.0779
 1161loPI   C4B18248  15.957   5.898   7.981  0.2097 -0.0968  0.1762
 1162loPI    C118249  10.641   2.199   5.625  0.3582  0.0535 -0.0124
 1162loPI    C218250  10.385   2.159   5.320 -0.0933 -0.0095  0.3643
 1162loPI    C318251  10.757   2.287   5.252 -0.0997 -0.2795 -0.2437
 1162loPI   PO418252  10.563   2.018   5.818  0.3494  0.2798 -0.0175
 1162loPI   GL118253  10.511   1.907   6.178 -0.0251  0.1202  0.1283
 1162loPI   GL218254  10.649   2.238   6.411 -0.1922  0.0924 -0.0297
 1162loPI   C1A18255  10.508   1.766   6.516 -0.1249  0.0151 -0.0614
 1162loPI   C2A18256  10.516   1.697   6.965 -0.2545 -0.0317 -0.1382
 1162loPI   C3A18257  10.610   1.587   7.442 -0.1733  0.1294  0.4131
 1162loPI   C4A18258  10.530   1.645   7.864  0.1564  0.3048 -0.0853
 1162loPI   C5A18259  10.475   1.481   8.381 -0.2943 -0.0534  0.2328
 1162loPI   C6A18260  10.191   1.118   8.415 -0.0340 -0.0077  0.2065
 1162loPI   C1B18261  10.601   2.180   6.873 -0.0007 -0.4192 -0.1941
 1162loPI   C2B18262  10.641   2.091   7.342  0.2402 -0.0804  0.0191
 1162loPI   C3B18263  10.583   2.208   7.765 -0.1447 -0.0087 -0.3236
 1162loPI   C4B18264  10.702   2.089   8.151  0.3275  0.0252  0.0198
 1163loPI    C118265  16.286   8.555   5.682 -0.0282  0.0340  0.1215
 1163loPI    C218266  16.615   8.604   5.458 -0.1021  0.2789  0.0640
 1163loPI    C318267  16.312   8.381   5.322  0.0656 -0.0046  0.1465
 1163loPI   PO418268  16.366   8.559   5.905 -0.3385  0.1441 -0.4662
 1163loPI   GL118269  16.250   8.301   6.236  0.1037  0.0643 -0.0689
 1163loPI   GL218270  16.189   8.497   6.370  0.2116 -0.0034 -0.5348
 1163loPI   C1A18271  16.329   8.107   6.670  0.0102  0.0828  0.5225
 1163loPI   C2A18272  16.439   7.986   7.113 -0.0746 -0.0374  0.2080
 1163loPI   C3A18273  16.361   7.943   7.554 -0.0894  0.0993  0.2765
 1163loPI   C4A18274  16.142   7.871   8.029  0.0635  0.0436 -0.1758
 1163loPI   C5A18275  15.997   7.557   8.298  0.1024 -0.1444  0.0991
 1163loPI   C6A18276  15.831   7.274   8.150 -0.0560  0.3206 -0.0188
 1163loPI   C1B18277  15.993   8.472   6.770 -0.0715 -0.0376 -0.1173
 1163loPI   C2B18278  15.990   8.301   7.096 -0.1956  0.0977 -0.1955
 1163loPI   C3B18279  15.995   8.238   7.484  0.1742 -0.4030 -0.1246
 1163loPI   C4B18280  16.004   8.318   7.919  0.1729  0.1516  0.1903
 1164loPI    C118281   0.750   5.616   5.476 -0.3336  0.0241  0.2404
 1164loPI    C218282   0.712   5.918   5.216 -0.0635 -0.1377  0.0063
 1164loPI    C318283   0.648   5.542   5.096  0.0821 -0.2158  0.1695
 1164loPI   PO418284   0.976   5.619   5.585 -0.0888 -0.0023  0.0713
 1164loPI   GL118285   0.989   5.616   6.049  0.0307  0.1164  0.1710
 1164loPI   GL218286   1.191   5.418   6.097 -0.0265  0.2052 -0.2920
 1164loPI   C1A18287   1.162   5.986   6.349  0.1834 -0.0149 -0.0291
 1164loPI   C2A18288   1.216   5.963   6.770  0.0018 -0.2191  0.0447
 1164loPI   C3A18289   1.174   5.996   7.162 -0.0483  0.1555  0.1196
 1164loPI   C4A18290   1.140   6.035   7.681  0.0735  0.1002  0.4512
 1164loPI   C5A18291   1.263   5.979   8.155 -0.0556  0.0238  0.1261
 1164loPI   C6A18292   1.133   5.599   8.370 -0.2150  0.3826  0.1251
 1164loPI   C1B18293   1.227   5.476   6.541 -0.2164  0.3986  0.0811
 1164loPI   C2B18294   1.138   5.420   6.970 -0.1745  0.0016  0.0013
 1164loPI   C3B18295   1.190   5.453   7.447 -0.0257  0.0889  0.1886
 1164loPI   C4B18296   1.210   5.557   7.848  0.0505 -0.1531 -0.0391
 1165loPI    C118297   5.024  13.936   5.395  0.2405 -0.0311 -0.0997
 1165loPI    C218298   5.035  14.238   5.133  0.1206 -0.0236 -0.0965
 1165loPI    C318299   4.750  13.958   5.104  0.1860 -0.0948 -0.0537
 1165loPI   PO418300   5.109  14.129   5.656  0.1821 -0.2371 -0.1632
 1165loPI   GL118301   5.197  14.139   6.085 -0.0597  0.0611  0.0077
 1165loPI   GL218302   5.466  14.211   6.304  0.0216  0.0217 -0.2253
 1165loPI   C1A18303   4.965  13.975   6.464  0.0528 -0.2388 -0.2068
 1165loPI   C2A18304   4.940  14.035   6.818  0.3292 -0.3048  0.1085
 1165loPI   C3A18305   5.024  13.960   7.269 -0.2641 -0.0935  0.0190
 1165loPI   C4A18306   5.011  13.952   7.753  0.0595  0.0683  0.0010
 1165loPI   C5A18307   4.978  13.837   8.244  0.3585  0.0360  0.1056
 1165loPI   C6A18308   4.906  13.593   8.633 -0.0546 -0.2495  0.0602
 1165loPI   C1B18309   5.361  14.250   6.755 -0.2950 -0.3381  0.1394
 1165loPI   C2B18310   5.388  14.256   7.153 -0.1717  0.1629 -0.2129
 1165loPI   C3B18311   5.495  14.167   7.567 -0.2040 -0.1338 -0.1021
 1165loPI   C4B18312   5.527  14.034   7.936 -0.1215 -0.0389  0.2665
 1166loPI    C118313   4.910   0.869   5.443  0.1862 -0.2785  0.0842
 1166loPI    C218314   4.577   0.677   5.331  0.0430  0.0026  0.0193
 1166loPI    C318315   4.879   0.721   5.073 -0.1834  0.4240 -0.1839
 1166loPI   PO418316   5.022   0.772   5.686 -0.4785 -0.1395 -0.0573
 1166loPI   GL118317   4.984   0.720   6.090 -0.1776 -0.1700 -0.1240
 1166loPI   GL218318   5.248   0.561   6.299 -0.0110 -0.1779 -0.0629
 1166loPI   C1A18319   5.033   0.976   6.536 -0.0362  0.3885  0.1768
 1166loPI   C2A18320   4.960   1.149   6.965  0.1732 -0.0789  0.1263
 1166loPI   C3A18321   4.943   1.068   7.453  0.1003  0.2388 -0.2972
 1166loPI   C4A18322   4.946   1.068   7.755  0.0067  0.1271  0.2990
 1166loPI   C5A18323   4.985   1.083   8.124  0.0142  0.0803 -0.0808
 1166loPI   C6A18324   5.041   1.388   8.422 -0.0820 -0.1130  0.0948
 1166loPI   C1B18325   5.357   0.721   6.764 -0.0537  0.1865 -0.0337
 1166loPI   C2B18326   5.317   0.756   7.194 -0.0264 -0.2832 -0.0063
 1166loPI   C3B18327   5.355   0.609   7.649  0.1677  0.1228 -0.2165
 1166loPI   C4B18328   5.335   0.783   7.978  0.3471  0.1123  0.0595
 1167loPI    C118329  11.629   1.319   5.527 -0.1174 -0.0376 -0.0856
 1167loPI    C218330  11.863   1.274   5.206 -0.0642  0.0084 -0.0535
 1167loPI    C318331  11.757   1.640   5.326 -0.0713 -0.0080 -0.0095
 1167loPI   PO418332  11.776   1.196   5.742 -0.2497 -0.1365  0.0255
 1167loPI   GL118333  11.918   1.400   6.006  0.4160 -0.0135 -0.1244
 1167loPI   GL218334  12.216   1.443   6.136 -0.1460 -0.0630 -0.0444
 1167loPI   C1A18335  11.841   1.550   6.347 -0.1262  0.1813  0.1025
 1167loPI   C2A18336  11.871   1.575   6.816 -0.0613 -0.1924 -0.2037
 1167loPI   C3A18337  11.936   1.730   7.174 -0.0204  0.0814  0.0158
 1167loPI   C4A18338  11.892   1.684   7.665 -0.1143  0.2388  0.2548
 1167loPI   C5A18339  11.981   1.581   8.103 -0.0092  0.1347  0.0767
 1167loPI   C6A18340  12.280   1.339   8.343  0.2572 -0.1102 -0.1036
 1167loPI   C1B18341  12.197   1.287   6.493 -0.4127  0.0343 -0.1374
 1167loPI   C2B18342  12.260   1.303   6.969 -0.1015  0.2125  0.0811
 1167loPI   C3B18343  12.269   1.349   7.353 -0.0915  0.1293  0.1611
 1167loPI   C4B18344  12.255   1.297   7.756  0.0832 -0.2083 -0.0000
 1168loPI    C118345   5.199  11.336   5.399 -0.0492  0.1075 -0.1204
 1168loPI    C218346   5.537  11.548   5.367  0.1664 -0.2440 -0.2194
 1168loPI    C318347   5.419  11.312   5.066 -0.2202 -0.0538 -0.2234
 1168loPI   PO418348   5.189  11.234   5.678  0.1586  0.0402  0.0800
 1168loPI   GL118349   5.151  11.250   6.089 -0.0272 -0.1208 -0.1023
 1168loPI   GL218350   4.956  11.479   6.209 -0.0328  0.0495 -0.1623
 1168loPI   C1A18351   5.229  11.205   6.502 -0.1652  0.2294  0.1652
 1168loPI   C2A18352   5.319  11.262   6.918 -0.0496  0.3984 -0.2504
 1168loPI   C3A18353   5.415  11.284   7.362 -0.2328  0.0985 -0.0780
 1168loPI   C4A18354   5.359  11.205   7.803 -0.1852 -0.0252  0.3170
 1168loPI   C5A18355   5.216  11.156   8.197 -0.1324 -0.1430 -0.3412
 1168loPI   C6A18356   5.141  11.373   8.675  0.0737 -0.0430 -0.0128
 1168loPI   C1B18357   4.913  11.543   6.715 -0.2075  0.0776 -0.1404
 1168loPI   C2B18358   4.983  11.675   7.128 -0.1029 -0.2586  0.2063
 1168loPI   C3B18359   4.916  11.537   7.621 -0.1016 -0.0137  0.1730
 1168loPI   C4B18360   5.019  11.638   7.927  0.1036 -0.0854  0.1269
 1169loPI    C118361   8.177   0.394   5.585  0.0672  0.1475 -0.1821
 1169loPI    C218362   7.940   0.073   5.603  0.0399  0.1807  0.0860
 1169loPI    C318363   8.133   0.160   5.264  0.1801 -0.2127  0.0587
 1169loPI   PO418364   8.308   0.276   5.854 -0.2780  0.0595 -0.5173
 1169loPI   GL118365   8.578   0.351   6.181 -0.1136 -0.0082  0.0233
 1169loPI   GL218366   8.743   0.134   6.341 -0.1840  0.0428 -0.1033
 1169loPI   C1A18367   8.381   0.442   6.529  0.2033 -0.1501  0.2848
 1169loPI   C2A18368   8.406   0.499   6.916  0.1103 -0.1466  0.0027
 1169loPI   C3A18369   8.431   0.524   7.300 -0.2742  0.1360  0.0186
 1169loPI   C4A18370   8.490   0.374   7.721 -0.2440 -0.1194 -0.2325
 1169loPI   C5A18371   8.526   0.301   8.155 -0.1694 -0.0352 -0.0621
 1169loPI   C6A18372   8.503   0.388   8.712  0.1005  0.1515  0.1395
 1169loPI   C1B18373   8.751   0.094   6.725 -0.0217  0.2306  0.2217
 1169loPI   C2B18374   8.805   0.152   7.157  0.1283 -0.3044  0.0533
 1169loPI   C3B18375   8.931   0.078   7.611 -0.2689 -0.4250  0.1253
 1169loPI   C4B18376   8.912   0.081   8.036  0.1650 -0.2166 -0.1953
 1170loPI    C118377   6.619   3.093   5.761 -0.2917  0.3270 -0.0174
 1170loPI    C218378   6.766   3.392   5.539  0.3848  0.0290  0.0025
 1170loPI    C318379   6.711   3.031   5.377 -0.0993  0.0656  0.0683
 1170loPI   PO418380   6.506   3.211   5.990 -0.0223  0.1539 -0.2721
 1170loPI   GL118381   6.477   3.249   6.412 -0.0910  0.0986  0.1079
 1170loPI   GL218382   6.229   3.364   6.447  0.0618  0.1462 -0.0962
 1170loPI   C1A18383   6.603   3.083   6.787  0.1713 -0.3522 -0.1698
 1170loPI   C2A18384   6.707   3.036   7.117 -0.0605  0.1174 -0.3346
 1170loPI   C3A18385   6.714   3.097   7.569  0.1149 -0.2718 -0.0569
 1170loPI   C4A18386   6.743   3.164   8.010  0.0563  0.0865  0.1021
 1170loPI   C5A18387   6.770   3.434   8.339  0.1245 -0.2698 -0.1462
 1170loPI   C6A18388   7.039   3.801   8.317  0.0505 -0.0694  0.1246
 1170loPI   C1B18389   6.275   3.447   6.891 -0.1562  0.2715  0.0906
 1170loPI   C2B18390   6.331   3.370   7.343 -0.0370 -0.2517  0.3125
 1170loPI   C3B18391   6.254   3.542   7.775 -0.1903  0.2436  0.2899
 1170loPI   C4B18392   6.284   3.571   8.217 -0.1824  0.1388 -0.1481
 1171loPI    C118393   8.907   8.533   5.782 -0.0493 -0.1808  0.0192
 1171loPI    C218394   9.089   8.237   5.583 -0.0087 -0.0648 -0.1173
 1171loPI    C318395   8.725   8.359   5.471 -0.0126 -0.0423 -0.0806
 1171loPI   PO418396   8.907   8.543   6.029  0.1086  0.1394  0.0906
 1171loPI   GL118397   8.650   8.722   6.391 -0.0113 -0.2790 -0.3167
 1171loPI   GL218398   8.696   9.017   6.632 -0.3140  0.2238  0.2551
 1171loPI   C1A18399   8.655   8.561   6.827  0.1290  0.2620  0.0995
 1171loPI   C2A18400   8.564   8.553   7.254 -0.0997 -0.0010  0.0465
 1171loPI   C3A18401   8.626   8.585   7.669  0.2327 -0.1377 -0.0865
 1171loPI   C4A18402   8.693   8.476   8.139  0.0331  0.1780  0.2897
 1171loPI   C5A18403   8.776   8.570   8.567 -0.2651  0.1565 -0.0244
 1171loPI   C6A18404   8.664   8.288   8.884 -0.0196 -0.2496 -0.0447
 1171loPI   C1B18405   8.678   9.023   7.007 -0.0550  0.0613 -0.2858
 1171loPI   C2B18406   8.718   9.040   7.454  0.1130 -0.0828 -0.0300
 1171loPI   C3B18407   8.725   9.001   7.898  0.0786  0.3556  0.1580
 1171loPI   C4B18408   8.799   9.080   8.354 -0.0417  0.0279  0.0605
 1172loPI    C118409   9.159  13.518   5.529  0.2308 -0.0990 -0.1552
 1172loPI    C218410   9.021  13.197   5.724 -0.3944  0.3243  0.1307
 1172loPI    C318411   9.017  13.205   5.324 -0.0761 -0.1389  0.1106
 1172loPI   PO418412   9.148  13.740   5.720 -0.2273 -0.0804 -0.0842
 1172loPI   GL118413   9.321  13.847   6.110  0.1813 -0.1204  0.1195
 1172loPI   GL218414   9.630  13.889   6.171  0.2541  0.0481  0.1486
 1172loPI   C1A18415   9.090  13.971   6.464 -0.0695  0.2359 -0.0421
 1172loPI   C2A18416   9.037  13.985   6.874  0.2513 -0.1434 -0.1180
 1172loPI   C3A18417   9.026  14.066   7.328 -0.0709 -0.2423 -0.0833
 1172loPI   C4A18418   9.069  13.908   7.809  0.1193 -0.0994  0.0968
 1172loPI   C5A18419   9.192  13.865   8.178  0.0196  0.3599 -0.2089
 1172loPI   C6A18420   9.260  13.651   8.604  0.2065  0.2437  0.1555
 1172loPI   C1B18421   9.583  13.649   6.584 -0.1854  0.1210 -0.0338
 1172loPI   C2B18422   9.491  13.509   6.954 -0.0606  0.0707  0.1345
 1172loPI   C3B18423   9.423  13.655   7.300  0.1208  0.1683  0.0387
 1172loPI   C4B18424   9.537  13.636   7.672 -0.3675  0.2207  0.1347
 1173loPI    C118425  14.801  11.276   5.467 -0.0338  0.0390 -0.1561
 1173loPI    C218426  14.413  11.369   5.432 -0.0047  0.2111 -0.0323
 1173loPI    C318427  14.576  11.098   5.188 -0.1662  0.2537 -0.1896
 1173loPI   PO418428  14.864  11.411   5.713 -0.1045 -0.0862 -0.1829
 1173loPI   GL118429  14.818  11.397   6.130 -0.0204  0.3537 -0.0655
 1173loPI   GL218430  15.038  11.679   6.205 -0.2320 -0.1335 -0.1193
 1173loPI   C1A18431  14.805  11.276   6.444 -0.0811 -0.3585  0.1364
 1173loPI   C2A18432  14.693  11.218   6.851 -0.4815  0.3160 -0.1487
 1173loPI   C3A18433  14.733  11.224   7.345  0.3425 -0.1136  0.1459
 1173loPI   C4A18434  14.684  11.279   7.808 -0.1461 -0.2020 -0.0007
 1173loPI   C5A18435  14.592  11.258   8.230  0.0475  0.0582 -0.0800
 1173loPI   C6A18436  14.346  10.956   8.376 -0.4233  0.1598  0.1055
 1173loPI   C1B18437  14.997  11.718   6.645 -0.3655  0.0800 -0.2104
 1173loPI   C2B18438  14.796  11.675   7.050 -0.0303 -0.0027  0.1438
 1173loPI   C3B18439  14.869  11.713   7.559  0.2002 -0.0373  0.0597
 1173loPI   C4B18440  14.860  11.721   7.922  0.1144 -0.0677 -0.3305
 1174loPI    C118441  13.994   0.494   5.952 -0.1350  0.0391  0.1455
 1174loPI    C218442  13.765   0.170   6.008  0.0386 -0.0873  0.1341
 1174loPI    C318443  13.704   0.406   5.690 -0.1709 -0.0366  0.2103
 1174loPI   PO418444  13.998   0.627   6.147 -0.0530 -0.1323 -0.1009
 1174loPI   GL118445  13.773   0.421   6.445 -0.0353  0.1673  0.1863
 1174loPI   GL218446  13.497   0.471   6.463  0.0741  0.2162  0.0562
 1174loPI   C1A18447  13.729   0.463   6.979 -0.2540  0.1206  0.0229
 1174loPI   C2A18448  13.812   0.444   7.392 -0.0761 -0.3112 -0.4283
 1174loPI   C3A18449  13.921   0.487   7.799  0.4986  0.0166  0.2790
 1174loPI   C4A18450  14.019   0.465   8.163 -0.1975 -0.0625  0.1531
 1174loPI   C5A18451  14.091   0.351   8.616  0.1813  0.3095  0.2474
 1174loPI   C6A18452  13.892   0.500   8.891 -0.5505  0.0424  0.2173
 1174loPI   C1B18453  13.326   0.175   6.760  0.2307  0.0945 -0.1400
 1174loPI   C2B18454  13.314   0.224   7.257 -0.3085  0.0114 -0.1658
 1174loPI   C3B18455  13.435   0.284   7.681 -0.3355  0.2382  0.0586
 1174loPI   C4B18456  13.452   0.398   8.070  0.1487 -0.1482  0.3606
 1175loPI    C118457   7.538   0.382   5.410  0.1620 -0.1945  0.0034
 1175loPI    C218458   7.656   0.167   5.094 -0.0670 -0.1042 -0.1463
 1175loPI    C318459   7.763   0.551   5.127 -0.0724 -0.1039 -0.1317
 1175loPI   PO418460   7.484   0.261   5.680  0.0272  0.3260 -0.5046
 1175loPI   GL118461   7.589   0.078   6.043  0.1436 -0.1433  0.1738
 1175loPI   GL218462   7.954   0.071   6.203  0.1665 -0.2030  0.2212
 1175loPI   C1A18463   7.473   0.006   6.459  0.1765 -0.2234  0.1623
 1175loPI   C2A18464   7.534   0.031   6.981 -0.2080 -0.0679  0.2088
 1175loPI   C3A18465   7.528   0.086   7.347 -0.0608  0.2074  0.0547
 1175loPI   C4A18466   7.540   0.136   7.779  0.2511 -0.0269 -0.1855
 1175loPI   C5A18467   7.326   0.019   8.097  0.0470  0.0810 -0.2495
 1175loPI   C6A18468   6.904  -0.145   8.306 -0.2512  0.0433 -0.1781
 1175loPI   C1B18469   7.932   0.225   6.642 -0.1089 -0.2849 -0.0432
 1175loPI   C2B18470   8.021   0.211   7.078 -0.2343  0.0019 -0.1496
 1175loPI   C3B18471   7.982   0.299   7.454  0.0500  0.1906 -0.3276
 1175loPI   C4B18472   8.030   0.345   7.915 -0.1148 -0.0933  0.2667
 1176loPI    C118473   2.841   8.581   5.511 -0.1612 -0.3530 -0.1080
 1176loPI    C218474   3.167   8.498   5.294 -0.0858  0.0096 -0.1399
 1176loPI    C318475   2.837   8.638   5.115 -0.0558  0.2173 -0.0355
 1176loPI   PO418476   2.877   8.724   5.689  0.1129  0.1591  0.1016
 1176loPI   GL118477   3.000   8.727   6.030  0.0923  0.2669  0.1173
 1176loPI   GL218478   2.916   8.481   6.221 -0.1698  0.0931 -0.0999
 1176loPI   C1A18479   3.072   9.036   6.394 -0.0283  0.0186 -0.0492
 1176loPI   C2A18480   3.164   9.070   6.756 -0.0741 -0.0076  0.0378
 1176loPI   C3A18481   3.095   8.962   7.187 -0.0540 -0.0639 -0.0868
 1176loPI   C4A18482   3.088   9.001   7.586  0.0289  0.1602 -0.3336
 1176loPI   C5A18483   3.087   9.155   7.854 -0.0383 -0.1389  0.3010
 1176loPI   C6A18484   3.050   8.964   8.268 -0.1319  0.3473  0.1127
 1176loPI   C1B18485   3.000   8.589   6.586 -0.1811  0.0012  0.1558
 1176loPI   C2B18486   2.948   8.523   6.999  0.1349 -0.0510 -0.1303
 1176loPI   C3B18487   2.989   8.521   7.402  0.2272  0.0902 -0.0548
 1176loPI   C4B18488   2.994   8.537   7.784 -0.1783  0.1973  0.2074
 1177loPI    C118489   8.354   8.259   5.724 -0.2158  0.0242 -0.1489
 1177loPI    C218490   8.423   8.418   6.085 -0.1280 -0.0264 -0.1431
 1177loPI    C318491   8.393   8.656   5.764 -0.5090  0.0462 -0.0587
 1177loPI   PO418492   8.121   8.072   5.803  0.0744 -0.2426  0.1574
 1177loPI   GL118493   7.956   8.069   6.250 -0.0911 -0.0784  0.1324
 1177loPI   GL218494   7.761   8.281   6.379  0.0393 -0.0178 -0.0764
 1177loPI   C1A18495   7.957   7.961   6.676 -0.0839  0.2513 -0.0396
 1177loPI   C2A18496   8.000   7.885   7.101  0.0206  0.0972  0.1082
 1177loPI   C3A18497   8.044   7.866   7.526 -0.1711 -0.0400 -0.0355
 1177loPI   C4A18498   8.109   7.890   7.942 -0.0344  0.4980  0.2142
 1177loPI   C5A18499   8.279   7.857   8.290 -0.1527  0.0967 -0.0156
 1177loPI   C6A18500   8.304   7.889   8.724 -0.1857  0.1787  0.0210
 1177loPI   C1B18501   7.563   8.281   6.753 -0.2770 -0.0539 -0.1486
 1177loPI   C2B18502   7.599   8.205   7.237 -0.3272  0.2040  0.1224
 1177loPI   C3B18503   7.677   8.164   7.613 -0.1968  0.2083 -0.0380
 1177loPI   C4B18504   7.674   8.124   8.019  0.0496  0.1294 -0.1598
 1178loPI    C118505  14.303   3.571   5.922 -0.0392 -0.1411  0.0355
 1178loPI    C218506  14.087   3.373   5.649  0.1055 -0.3038  0.0371
 1178loPI    C318507  14.258   3.722   5.555 -0.0665 -0.2277  0.0029
 1178loPI   PO418508  14.198   3.587   6.125  0.0214  0.0344  0.2000
 1178loPI   GL118509  14.025   3.737   6.544  0.0183  0.0897  0.1371
 1178loPI   GL218510  13.824   3.998   6.373 -0.2929  0.0659  0.1747
 1178loPI   C1A18511  14.082   3.835   6.972  0.0298  0.4275 -0.1711
 1178loPI   C2A18512  14.115   3.795   7.384  0.1125  0.1309  0.1545
 1178loPI   C3A18513  14.095   3.850   7.837  0.0556  0.0174 -0.1465
 1178loPI   C4A18514  14.061   3.901   8.332  0.0488  0.4035  0.1373
 1178loPI   C5A18515  14.220   4.074   8.784 -0.0628  0.0686  0.3440
 1178loPI   C6A18516  14.342   4.395   9.056 -0.1345  0.0781 -0.3097
 1178loPI   C1B18517  13.751   4.191   6.785 -0.2722 -0.1715  0.2129
 1178loPI   C2B18518  13.694   4.187   7.251 -0.0284 -0.0405  0.0803
 1178loPI   C3B18519  13.682   4.204   7.674 -0.0285 -0.2041  0.0987
 1178loPI   C4B18520  13.754   4.165   8.043 -0.1450 -0.0961 -0.0487
 1179loPI    C118521  12.742  12.986   5.888  0.1044 -0.2681  0.0617
 1179loPI    C218522  12.799  12.686   5.630  0.0616 -0.0053 -0.2600
 1179loPI    C318523  12.428  12.796   5.729  0.0758  0.0093 -0.2231
 1179loPI   PO418524  12.845  12.937   6.102  0.0146 -0.0264  0.2824
 1179loPI   GL118525  12.899  12.826   6.603  0.0415 -0.2802  0.0989
 1179loPI   GL218526  12.630  13.068   6.516  0.1954 -0.0311 -0.3157
 1179loPI   C1A18527  12.771  12.837   7.101  0.1018 -0.0117  0.2554
 1179loPI   C2A18528  12.794  12.789   7.562  0.0322  0.0918  0.2427
 1179loPI   C3A18529  12.900  12.876   7.965 -0.0817 -0.1107 -0.3201
 1179loPI   C4A18530  13.190  13.159   8.079  0.2235 -0.1619  0.0996
 1179loPI   C5A18531  13.615  13.297   8.076  0.0194  0.1143 -0.3495
 1179loPI   C6A18532  13.892  13.524   8.485 -0.1726  0.0086  0.0629
 1179loPI   C1B18533  12.300  13.142   6.700  0.0934 -0.1149 -0.1495
 1179loPI   C2B18534  12.249  13.164   7.156  0.1375  0.1380 -0.3760
 1179loPI   C3B18535  12.500  13.139   7.461  0.0188 -0.1325 -0.0378
 1179loPI   C4B18536  12.726  13.357   7.840 -0.0372 -0.0280 -0.0562
 1180loPI    C118537  10.000   5.622   5.551  0.0180  0.0238 -0.3360
 1180loPI    C218538  10.313   5.851   5.645 -0.0835  0.0825 -0.1338
 1180loPI    C318539  10.048   5.977   5.373 -0.1373  0.2049 -0.0260
 1180loPI   PO418540   9.926   5.546   5.819  0.1092 -0.2308  0.1798
 1180loPI   GL118541  10.052   5.650   6.161  0.1073 -0.1498 -0.2100
 1180loPI   GL218542  10.334   5.379   6.203  0.2233  0.2301  0.0764
 1180loPI   C1A18543   9.911   5.648   6.618  0.0726  0.2019  0.0823
 1180loPI   C2A18544   9.963   5.729   7.083  0.0305  0.0187  0.0338
 1180loPI   C3A18545   9.936   5.636   7.493  0.2369  0.0387  0.0357
 1180loPI   C4A18546   9.829   5.669   7.935  0.0794 -0.1167  0.3698
 1180loPI   C5A18547   9.691   5.562   8.304 -0.1848 -0.0485  0.0522
 1180loPI   C6A18548   9.500   5.643   8.705  0.0771 -0.1526  0.0865
 1180loPI   C1B18549  10.268   5.291   6.615  0.1877 -0.1106 -0.1794
 1180loPI   C2B18550  10.311   5.311   7.073  0.0389 -0.1060  0.1994
 1180loPI   C3B18551  10.299   5.369   7.469 -0.3199  0.1471  0.0559
 1180loPI   C4B18552  10.237   5.368   7.885 -0.1709  0.0443  0.0900
 1181loPI    C118553  12.518  13.586   6.068 -0.0771  0.2342 -0.1788
 1181loPI    C218554  12.748  13.504   5.751 -0.0028 -0.1859 -0.0221
 1181loPI    C318555  12.365  13.387   5.757 -0.0377 -0.0718 -0.0066
 1181loPI   PO418556  12.539  13.809   6.160 -0.0771 -0.1146 -0.2331
 1181loPI   GL118557  12.570  13.830   6.575  0.1327 -0.2050 -0.0306
 1181loPI   GL218558  12.609  13.520   6.578  0.3458 -0.3165  0.0118
 1181loPI   C1A18559  12.373  13.796   6.952  0.3340  0.1746 -0.0063
 1181loPI   C2A18560  12.341  13.609   7.355 -0.1974 -0.1622  0.0456
 1181loPI   C3A18561  12.289  13.692   7.818 -0.1111  0.2072 -0.1169
 1181loPI   C4A18562  12.628  13.766   8.104 -0.1404  0.3529  0.0215
 1181loPI   C5A18563  13.101  13.656   8.179  0.0956 -0.0930  0.2212
 1181loPI   C6A18564  13.552  13.796   8.182 -0.3303 -0.2306  0.0580
 1181loPI   C1B18565  12.688  13.345   6.939  0.1740 -0.1458 -0.2911
 1181loPI   C2B18566  12.861  13.454   7.352 -0.0839 -0.1275  0.0166
 1181loPI   C3B18567  13.161  13.430   7.557  0.2777 -0.2575 -0.1502
 1181loPI   C4B18568  13.522  13.378   7.492  0.4013 -0.1096  0.0026
 1182loPI    C118569   7.029   1.820   5.766 -0.1395 -0.3567  0.2121
 1182loPI    C218570   6.917   1.507   5.543  0.2311 -0.2362 -0.1562
 1182loPI    C318571   7.129   1.804   5.379  0.1749  0.0485  0.2697
 1182loPI   PO418572   7.063   1.743   5.991  0.1571  0.0818  0.0256
 1182loPI   GL118573   7.377   1.656   6.361 -0.0307  0.2018  0.0577
 1182loPI   GL218574   7.314   1.517   6.487  0.0037  0.1713 -0.1187
 1182loPI   C1A18575   7.405   2.042   6.694  0.0109  0.4338  0.2220
 1182loPI   C2A18576   7.440   1.966   7.105 -0.0309 -0.0777  0.1635
 1182loPI   C3A18577   7.359   1.987   7.576  0.0812 -0.0353 -0.0259
 1182loPI   C4A18578   7.415   1.880   8.016 -0.0374  0.1931  0.0004
 1182loPI   C5A18579   7.118   1.830   8.303 -0.0186 -0.0674  0.2062
 1182loPI   C6A18580   6.762   1.900   8.382  0.0259 -0.1316 -0.2750
 1182loPI   C1B18581   7.387   1.453   6.965 -0.0907  0.2003 -0.1107
 1182loPI   C2B18582   7.325   1.385   7.464 -0.0095 -0.2509 -0.0163
 1182loPI   C3B18583   7.338   1.402   7.913 -0.2301  0.2234  0.0181
 1182loPI   C4B18584   7.419   1.470   8.316  0.0017  0.1175  0.2726
 1183loPI    C118585   6.519   7.349   5.417 -0.0092  0.2243  0.1871
 1183loPI    C218586   6.903   7.437   5.483  0.0743  0.1012 -0.1175
 1183loPI    C318587   6.713   7.596   5.170 -0.1287  0.1725  0.0401
 1183loPI   PO418588   6.368   7.293   5.675  0.1252  0.0335 -0.1653
 1183loPI   GL118589   6.315   7.266   6.149 -0.2241 -0.0123 -0.2364
 1183loPI   GL218590   6.069   7.455   6.381 -0.1351 -0.0110 -0.1722
 1183loPI   C1A18591   6.522   7.393   6.573 -0.4851  0.0205 -0.3332
 1183loPI   C2A18592   6.501   7.440   7.046 -0.0716 -0.0780  0.0166
 1183loPI   C3A18593   6.584   7.367   7.516  0.1740 -0.1385 -0.0086
 1183loPI   C4A18594   6.534   7.410   7.925 -0.2897 -0.0841 -0.0981
 1183loPI   C5A18595   6.694   7.199   8.332  0.1798  0.1061 -0.0486
 1183loPI   C6A18596   6.649   7.233   8.780  0.1298  0.3590  0.3459
 1183loPI   C1B18597   6.033   7.317   6.708 -0.0865 -0.4826  0.1016
 1183loPI   C2B18598   6.015   7.287   7.111  0.0750  0.0212  0.0153
 1183loPI   C3B18599   5.907   7.256   7.527 -0.2147  0.1356  0.0820
 1183loPI   C4B18600   5.935   7.216   7.876  0.0528 -0.0215  0.0448
 1184loPI    C118601  16.358  11.279   5.405  0.0751 -0.1479 -0.0783
 1184loPI    C218602  16.732  11.138   5.415  0.1621  0.0804 -0.0659
 1184loPI    C318603  16.624  11.397   5.130 -0.0542 -0.1685 -0.2134
 1184loPI   PO418604  16.315  11.224   5.695  0.0804  0.1498 -0.1922
 1184loPI   GL118605  16.434  10.948   6.083 -0.0152  0.0884 -0.0600
 1184loPI   GL218606  16.562  10.813   6.279  0.0134  0.1112 -0.1645
 1184loPI   C1A18607  16.440  11.252   6.421 -0.2449  0.0815 -0.2099
 1184loPI   C2A18608  16.507  11.383   6.758  0.1697  0.1036  0.0060
 1184loPI   C3A18609  16.611  11.436   7.157  0.0492  0.1207 -0.1370
 1184loPI   C4A18610  16.529  11.385   7.469  0.0045 -0.0139 -0.1744
 1184loPI   C5A18611  16.513  11.395   7.917  0.2979  0.2228  0.0292
 1184loPI   C6A18612  16.357  11.275   8.354 -0.1857 -0.1613  0.4196
 1184loPI   C1B18613  16.522  10.863   6.710  0.4029 -0.1192 -0.2216
 1184loPI   C2B18614  16.482  10.897   7.187 -0.4596  0.0281 -0.0318
 1184loPI   C3B18615  16.433  10.909   7.621 -0.2387 -0.1281  0.1462
 1184loPI   C4B18616  16.522  10.912   7.997  0.2649  0.1721  0.1024
 1185loPI    C118617   4.634  10.140   5.532  0.0725 -0.1377 -0.0907
 1185loPI    C218618   4.725  10.194   5.146  0.1049  0.1305 -0.0479
 1185loPI    C318619   4.713   9.825   5.300  0.1821  0.0286 -0.2825
 1185loPI   PO418620   4.521  10.368   5.686 -0.1566 -0.1338 -0.0095
 1185loPI   GL118621   4.490  10.246   6.049  0.1338  0.0585  0.2119
 1185loPI   GL218622   4.780  10.395   6.098 -0.0379 -0.2418  0.3129
 1185loPI   C1A18623   4.232  10.390   6.344 -0.2184 -0.4320 -0.0579
 1185loPI   C2A18624   4.225  10.421   6.784  0.1395 -0.0754 -0.2282
 1185loPI   C3A18625   4.179  10.404   7.297 -0.2406  0.1239  0.1138
 1185loPI   C4A18626   4.336  10.444   7.696  0.1483  0.1056  0.1514
 1185loPI   C5A18627   4.204  10.439   8.070  0.0503 -0.2058  0.3254
 1185loPI   C6A18628   3.902  10.466   8.256  0.0951 -0.2621 -0.1402
 1185loPI   C1B18629   4.807  10.522   6.565  0.3186  0.0029 -0.0683
 1185loPI   C2B18630   4.703  10.601   7.029 -0.0139 -0.2827  0.2077
 1185loPI   C3B18631   4.748  10.707   7.507  0.2671  0.3560  0.1029
 1185loPI   C4B18632   4.723  10.587   7.907 -0.2962  0.0184  0.0219
 1186loPI    C118633  17.257  11.955   5.429 -0.0180 -0.0049  0.0582
 1186loPI    C218634  17.369  11.614   5.608  0.3312 -0.0171 -0.1727
 1186loPI    C318635  17.598  11.774   5.321 -0.0029  0.2320 -0.3078
 1186loPI   PO418636  17.105  12.119   5.609  0.0643 -0.1539  0.2205
 1186loPI   GL118637  17.084  12.323   6.115 -0.0747 -0.2157 -0.2721
 1186loPI   GL218638  16.832  12.283   6.339 -0.0031  0.0182 -0.0612
 1186loPI   C1A18639  17.379  12.165   6.399  0.2327  0.3226  0.0113
 1186loPI   C2A18640  17.278  12.058   6.818 -0.0177  0.3222 -0.2884
 1186loPI   C3A18641  17.182  12.083   7.264  0.0404 -0.1152  0.2348
 1186loPI   C4A18642  17.144  12.011   7.647  0.0054  0.0416  0.0515
 1186loPI   C5A18643  16.979  12.344   7.966 -0.2222 -0.2417 -0.2761
 1186loPI   C6A18644  16.668  12.552   8.257 -0.1291  0.1485 -0.2804
 1186loPI   C1B18645  16.895  12.332   6.638  0.2052 -0.1696 -0.1169
 1186loPI   C2B18646  16.760  12.470   7.073 -0.1009 -0.0582 -0.1738
 1186loPI   C3B18647  16.783  12.295   7.460 -0.0463 -0.1107 -0.0440
 1186loPI   C4B18648  16.627  11.900   7.500  0.0636  0.0025 -0.0117
 1187loPI    C118649  10.818  10.317   5.547  0.0270  0.1755  0.0124
 1187loPI    C218650  10.985  10.650   5.402  0.1129  0.0320 -0.2232
 1187loPI    C318651  10.820  10.384   5.153  0.1600 -0.1633 -0.0477
 1187loPI   PO418652  10.931  10.298   5.788  0.3725  0.1043 -0.1530
 1187loPI   GL118653  10.792  10.307   6.203 -0.0245  0.2026 -0.2239
 1187loPI   GL218654  10.528  10.141   6.044  0.2766 -0.0300 -0.0516
 1187loPI   C1A18655  10.826  10.278   6.612  0.1287 -0.1536  0.0610
 1187loPI   C2A18656  10.841  10.248   7.039 -0.2168  0.0950  0.3128
 1187loPI   C3A18657  10.894  10.211   7.536 -0.0162 -0.0324  0.2502
 1187loPI   C4A18658  10.968  10.231   7.993  0.0015 -0.0408 -0.0885
 1187loPI   C5A18659  10.742  10.263   8.266  0.0208 -0.3524 -0.2406
 1187loPI   C6A18660  10.407  10.350   8.346 -0.1532  0.2193  0.2446
 1187loPI   C1B18661  10.375  10.017   6.481 -0.1249 -0.0543 -0.0972
 1187loPI   C2B18662  10.337  10.035   6.902  0.2060 -0.3144  0.1323
 1187loPI   C3B18663  10.366  10.096   7.357 -0.0050  0.0201 -0.0236
 1187loPI   C4B18664  10.291  10.115   7.745  0.0155  0.0069  0.0446
 1188loPI    C118665   8.280  11.067   5.619 -0.0500 -0.1605  0.0490
 1188loPI    C218666   8.415  10.698   5.548  0.0486 -0.0799 -0.1927
 1188loPI    C318667   8.046  10.801   5.434 -0.0661 -0.1728  0.0869
 1188loPI   PO418668   8.331  11.035   5.917 -0.1195 -0.2148 -0.0322
 1188loPI   GL118669   8.154  10.776   6.342 -0.3815  0.0973  0.1925
 1188loPI   GL218670   7.821  10.962   6.389 -0.0760  0.1356 -0.4590
 1188loPI   C1A18671   8.109  10.805   6.780 -0.0918  0.3938 -0.2812
 1188loPI   C2A18672   8.194  10.757   7.237  0.3256  0.0574 -0.1607
 1188loPI   C3A18673   8.053  10.745   7.663 -0.0434 -0.0836 -0.0880
 1188loPI   C4A18674   7.928  10.850   8.140 -0.0152  0.0217  0.1543
 1188loPI   C5A18675   7.715  10.893   8.544  0.2610  0.2971  0.1786
 1188loPI   C6A18676   7.394  10.717   8.684 -0.1214 -0.1453  0.2380
 1188loPI   C1B18677   7.732  11.141   6.788 -0.4496  0.0324  0.0116
 1188loPI   C2B18678   7.743  11.168   7.269 -0.2596  0.1079  0.2867
 1188loPI   C3B18679   7.665  11.098   7.732  0.2556  0.0870  0.0050
 1188loPI   C4B18680   7.412  11.059   8.198  0.1436 -0.0858  0.0147
 1189loPI    C118681   7.971  11.292   5.301  0.3560 -0.1149 -0.2003
 1189loPI    C218682   7.663  11.470   5.118  0.1119  0.0193  0.3213
 1189loPI    C318683   7.773  11.100   5.011  0.1319  0.1800 -0.2474
 1189loPI   PO418684   7.893  11.386   5.626 -0.0180 -0.0201  0.0565
 1189loPI   GL118685   7.807  11.479   6.042 -0.0734  0.0768 -0.0435
 1189loPI   GL218686   8.108  11.415   6.170  0.1797 -0.1407 -0.2929
 1189loPI   C1A18687   7.644  11.542   6.493 -0.1892 -0.0207 -0.0009
 1189loPI   C2A18688   7.860  11.636   6.818  0.0434  0.2111  0.1142
 1189loPI   C3A18689   7.889  11.667   7.230  0.0749  0.1208  0.0532
 1189loPI   C4A18690   7.789  11.608   7.615  0.1443  0.1406  0.0739
 1189loPI   C5A18691   7.693  11.574   7.977  0.0651 -0.1398  0.0078
 1189loPI   C6A18692   7.848  11.339   8.272 -0.3184  0.2438 -0.2151
 1189loPI   C1B18693   8.185  11.281   6.577 -0.2010  0.2654 -0.3153
 1189loPI   C2B18694   8.239  11.322   6.980 -0.0373 -0.2348  0.0687
 1189loPI   C3B18695   8.199  11.310   7.427 -0.0497  0.0105  0.3178
 1189loPI   C4B18696   8.131  11.252   7.845 -0.3754  0.1533 -0.4147
 1190loPI    C118697   2.358   5.056   5.682  0.0621  0.2173  0.1573
 1190loPI    C218698   2.119   5.080   5.363  0.0110  0.1335  0.1888
 1190loPI    C318699   2.506   5.174   5.330  0.0679 -0.1432  0.0345
 1190loPI   PO418700   2.177   5.147   5.913 -0.0692 -0.1180 -0.1828
 1190loPI   GL118701   1.982   5.281   6.345  0.1357 -0.0683  0.1183
 1190loPI   GL218702   1.591   5.191   6.334 -0.2216 -0.2313  0.1472
 1190loPI   C1A18703   2.011   5.254   6.779  0.0127 -0.2311  0.0223
 1190loPI   C2A18704   1.974   5.343   7.151  0.0666  0.3538 -0.1212
 1190loPI   C3A18705   2.041   5.250   7.560 -0.2877  0.2258 -0.0091
 1190loPI   C4A18706   1.977   5.261   7.987 -0.0259 -0.4280  0.1240
 1190loPI   C5A18707   2.129   5.455   8.359  0.0968  0.0187 -0.0471
 1190loPI   C6A18708   2.309   5.751   8.538 -0.0156 -0.0182  0.1469
 1190loPI   C1B18709   1.542   5.119   6.775  0.2720 -0.2178  0.0208
 1190loPI   C2B18710   1.472   5.131   7.200  0.1452 -0.0622 -0.1988
 1190loPI   C3B18711   1.549   5.093   7.779 -0.0858  0.0009  0.2856
 1190loPI   C4B18712   1.503   4.998   8.297  0.0619 -0.3643 -0.0053
 1191loPI    C118713  13.667   7.148   5.593  0.2303  0.2534  0.1204
 1191loPI    C218714  13.521   7.008   5.248  0.1641 -0.3776  0.3898
 1191loPI    C318715  13.916   7.012   5.311  0.1975  0.0444  0.1904
 1191loPI   PO418716  13.619   7.118   5.788 -0.1652 -0.2043 -0.0680
 1191loPI   GL118717  13.724   7.365   6.078 -0.5091 -0.0392 -0.0199
 1191loPI   GL218718  13.939   7.223   6.167 -0.0008  0.2475 -0.1775
 1191loPI   C1A18719  13.455   7.501   6.361  0.1215 -0.0056  0.3536
 1191loPI   C2A18720  13.488   7.466   6.772 -0.0012 -0.0200  0.3479
 1191loPI   C3A18721  13.469   7.468   7.203 -0.0090 -0.0236 -0.2496
 1191loPI   C4A18722  13.528   7.441   7.611  0.0568  0.0959 -0.0149
 1191loPI   C5A18723  13.419   7.356   8.070  0.2358 -0.0146  0.3211
 1191loPI   C6A18724  13.413   7.637   8.376  0.0254 -0.0866  0.1633
 1191loPI   C1B18725  13.865   7.191   6.521  0.3234  0.1251  0.0027
 1191loPI   C2B18726  13.871   7.165   6.946 -0.2962  0.1297 -0.0201
 1191loPI   C3B18727  13.912   7.139   7.411 -0.2170 -0.0875 -0.0629
 1191loPI   C4B18728  13.956   7.163   7.877  0.0694 -0.2559  0.1231
 1192loPI    C118729   3.999  15.200   5.661  0.1438  0.1120  0.0021
 1192loPI    C218730   3.739  15.501   5.704 -0.0915 -0.0833 -0.0282
 1192loPI    C318731   3.843  15.377   5.338 -0.1280 -0.1507 -0.0158
 1192loPI   PO418732   3.921  15.016   5.785 -0.1481 -0.3623 -0.0666
 1192loPI   GL118733   3.693  15.072   6.159 -0.2148  0.1338  0.4519
 1192loPI   GL218734   3.861  15.342   6.225  0.0305  0.0693  0.1470
 1192loPI   C1A18735   3.728  15.055   6.638  0.0183  0.0161  0.1616
 1192loPI   C2A18736   3.735  15.053   7.128  0.0673 -0.2531  0.1630
 1192loPI   C3A18737   3.767  15.019   7.598 -0.2707  0.2316  0.3535
 1192loPI   C4A18738   3.903  14.975   8.032 -0.0769  0.3443  0.1457
 1192loPI   C5A18739   3.998  15.238   8.250 -0.0463 -0.0052 -0.0563
 1192loPI   C6A18740   4.054  15.611   8.538 -0.0690  0.4051 -0.0760
 1192loPI   C1B18741   3.869  15.575   6.603  0.2780  0.1945 -0.0307
 1192loPI   C2B18742   3.849  15.551   6.989 -0.0460 -0.0219 -0.2188
 1192loPI   C3B18743   3.899  15.452   7.420  0.0748 -0.2619  0.1341
 1192loPI   C4B18744   3.900  15.493   7.836 -0.2015  0.0713  0.0581
 1193loPI    C118745  13.894  16.363   5.959 -0.0750  0.0229  0.0494
 1193loPI    C218746  13.545  16.425   5.773 -0.1033  0.0423  0.1085
 1193loPI    C318747  13.813  16.173   5.616 -0.1856 -0.0506  0.1154
 1193loPI   PO418748  13.839  16.341   6.158 -0.1478  0.1730  0.3219
 1193loPI   GL118749  13.681  16.271   6.635 -0.1911  0.1921  0.0028
 1193loPI   GL218750  13.461  15.978   6.771  0.1559 -0.0992 -0.0392
 1193loPI   C1A18751  13.878  16.321   7.005 -0.0675  0.1054  0.1547
 1193loPI   C2A18752  13.824  16.084   7.385  0.3196  0.0177  0.2606
 1193loPI   C3A18753  13.557  16.173   7.600 -0.3216 -0.1562 -0.0605
 1193loPI   C4A18754  13.682  16.368   7.912  0.0581 -0.2562 -0.0715
 1193loPI   C5A18755  13.561  16.640   8.207  0.0724  0.2585 -0.0938
 1193loPI   C6A18756  13.752  16.939   8.425  0.4719 -0.0572 -0.1655
 1193loPI   C1B18757  13.419  15.900   7.205  0.0084 -0.0837 -0.3591
 1193loPI   C2B18758  13.450  15.675   7.573  0.2782 -0.1424 -0.0755
 1193loPI   C3B18759  13.676  15.849   7.939  0.2405  0.1338 -0.1917
 1193loPI   C4B18760  13.959  15.907   8.259 -0.0708  0.1705  0.2537
 1194loPI    C118761  10.481  15.788   5.684 -0.0480 -0.0657 -0.1826
 1194loPI    C218762  10.191  15.983   5.490 -0.0474 -0.0296 -0.1475
 1194loPI    C318763  10.570  16.014   5.366 -0.0613 -0.0951 -0.2073
 1194loPI   PO418764  10.395  15.831   5.935  0.2426 -0.0761 -0.0311
 1194loPI   GL118765  10.465  16.109   6.279 -0.0017 -0.0641 -0.0849
 1194loPI   GL218766  10.449  16.463   6.220  0.2351  0.2208  0.0245
 1194loPI   C1A18767  10.266  15.934   6.640  0.3694  0.0130 -0.0713
 1194loPI   C2A18768  10.416  15.920   7.091  0.0399  0.0287 -0.0337
 1194loPI   C3A18769  10.368  15.918   7.473 -0.3544 -0.2011 -0.4332
 1194loPI   C4A18770  10.289  15.831   7.853  0.1627 -0.0296 -0.2693
 1194loPI   C5A18771  10.323  15.959   8.315 -0.1238 -0.0770  0.0523
 1194loPI   C6A18772  10.576  15.945   8.591 -0.1032  0.2712  0.0860
 1194loPI   C1B18773  10.386  16.426   6.652 -0.2223  0.1683 -0.1395
 1194loPI   C2B18774  10.430  16.397   7.094  0.0737 -0.0440 -0.2690
 1194loPI   C3B18775  10.389  16.407   7.560  0.0977 -0.1229 -0.0897
 1194loPI   C4B18776  10.477  16.399   7.937  0.2651 -0.0126 -0.0047
 1195loPI    C118777  11.331   8.189   5.536 -0.0009 -0.1006 -0.0561
 1195loPI    C218778  11.676   8.201   5.334  0.0907 -0.2035  0.0922
 1195loPI    C318779  11.449   7.871   5.325 -0.1652 -0.0252 -0.2655
 1195loPI   PO418780  11.372   8.248   5.783  0.0142 -0.0931  0.2732
 1195loPI   GL118781  11.457   8.525   6.044  0.1213  0.2016 -0.1647
 1195loPI   GL218782  11.710   8.745   6.130 -0.2534 -0.4432 -0.0837
 1195loPI   C1A18783  11.350   8.578   6.482  0.1651 -0.0958  0.2609
 1195loPI   C2A18784  11.415   8.615   6.923 -0.0645  0.3274  0.1417
 1195loPI   C3A18785  11.512   8.673   7.337  0.0062 -0.1701 -0.1854
 1195loPI   C4A18786  11.344   8.497   7.709 -0.0795 -0.0402 -0.0445
 1195loPI   C5A18787  11.297   8.549   8.135  0.0215 -0.2728  0.1670
 1195loPI   C6A18788  10.904   8.667   8.470 -0.1339  0.0197  0.2660
 1195loPI   C1B18789  11.819   8.771   6.557  0.1587 -0.0855 -0.2572
 1195loPI   C2B18790  11.976   8.819   6.895 -0.1082  0.0140  0.1181
 1195loPI   C3B18791  11.985   8.712   7.340 -0.0759 -0.2949  0.0485
 1195loPI   C4B18792  11.915   8.687   7.732  0.1746  0.1988 -0.2257
 1196loPI    C118793   3.909  13.338   5.267 -0.0504 -0.3041  0.0706
 1196loPI    C218794   4.130  13.248   4.945 -0.0683 -0.1639  0.0185
 1196loPI    C318795   3.743  13.145   4.958 -0.0845 -0.1103 -0.0337
 1196loPI   PO418796   4.038  13.295   5.439 -0.1312 -0.0815  0.0267
 1196loPI   GL118797   3.938  13.376   5.905 -0.1900 -0.6029  0.3075
 1196loPI   GL218798   4.097  13.618   6.091  0.2079  0.1546  0.3128
 1196loPI   C1A18799   3.953  13.229   6.316 -0.0815  0.0125  0.2989
 1196loPI   C2A18800   3.857  13.201   6.725  0.1895 -0.1795  0.0270
 1196loPI   C3A18801   3.875  13.174   7.140  0.3062  0.0804 -0.1924
 1196loPI   C4A18802   3.887  13.094   7.573 -0.1655 -0.0396 -0.0935
 1196loPI   C5A18803   3.712  12.981   7.980 -0.0228  0.0061  0.0709
 1196loPI   C6A18804   3.863  12.635   8.178 -0.2423  0.2195 -0.2698
 1196loPI   C1B18805   3.910  13.722   6.509  0.2772  0.3408  0.2447
 1196loPI   C2B18806   3.992  13.635   6.934 -0.2725 -0.2176  0.4724
 1196loPI   C3B18807   3.917  13.693   7.388 -0.3614 -0.0378  0.0328
 1196loPI   C4B18808   3.988  13.623   7.765  0.2412 -0.3890  0.2558
 1197loPI    C118809  17.195  13.980   5.552 -0.2345 -0.0081  0.0160
 1197loPI    C218810  17.153  14.276   5.286 -0.2738 -0.0478 -0.0222
 1197loPI    C318811  17.215  13.901   5.161  0.0378 -0.0162  0.0298
 1197loPI   PO418812  17.307  14.089   5.826 -0.1225  0.2080  0.1171
 1197loPI   GL118813  17.619  14.007   6.109  0.0709  0.1975  0.0340
 1197loPI   GL218814  17.834  14.022   5.905 -0.0434  0.0070  0.1029
 1197loPI   C1A18815  17.681  14.089   6.539 -0.2470 -0.1477 -0.0690
 1197loPI   C2A18816  17.615  14.078   7.044 -0.1591  0.0002  0.2015
 1197loPI   C3A18817  17.653  14.050   7.503  0.0338  0.0678  0.0318
 1197loPI   C4A18818  17.694  14.077   7.954  0.2271 -0.1018  0.3087
 1197loPI   C5A18819  17.429  14.175   8.208  0.1354  0.1605  0.0509
 1197loPI   C6A18820  17.305  14.415   8.518  0.0501 -0.0899 -0.2410
 1197loPI   C1B18821  18.125  14.197   6.299  0.1263  0.0901 -0.0338
 1197loPI   C2B18822  18.053  14.331   6.729 -0.1517  0.1097 -0.1434
 1197loPI   C3B18823  18.026  14.353   7.157 -0.1690  0.0091  0.0201
 1197loPI   C4B18824  18.108  14.260   7.560  0.0641  0.2203  0.2095
 1198loPI    C118825   6.026   4.993   5.592 -0.1697  0.0078 -0.0907
 1198loPI    C218826   6.342   4.915   5.360 -0.0887  0.2489 -0.0648
 1198loPI    C318827   5.987   4.995   5.194 -0.1713 -0.1525 -0.0918
 1198loPI   PO418828   6.215   5.050   5.912  0.1657 -0.2459  0.2824
 1198loPI   GL118829   6.216   5.254   6.207 -0.2898 -0.0076 -0.1426
 1198loPI   GL218830   5.945   5.457   6.283  0.0583 -0.3120  0.1731
 1198loPI   C1A18831   6.293   5.308   6.615 -0.0977 -0.2273  0.0576
 1198loPI   C2A18832   6.162   5.304   6.987 -0.0694 -0.3055 -0.0297
 1198loPI   C3A18833   6.102   5.307   7.386 -0.1046 -0.0893 -0.1016
 1198loPI   C4A18834   6.124   5.364   7.862 -0.0060 -0.0261  0.0408
 1198loPI   C5A18835   6.035   5.566   8.262 -0.0974  0.2156  0.0630
 1198loPI   C6A18836   6.157   5.593   8.620 -0.2498 -0.2833 -0.0020
 1198loPI   C1B18837   5.741   5.189   6.672  0.0169 -0.1426  0.0195
 1198loPI   C2B18838   5.600   5.106   7.096  0.1134 -0.0986 -0.2151
 1198loPI   C3B18839   5.654   5.189   7.492 -0.1322 -0.2546  0.2088
 1198loPI   C4B18840   5.647   5.207   7.950  0.1544  0.2112 -0.1277
 1199loPI    C118841   6.735  16.562   5.487 -0.0465 -0.1301  0.0617
 1199loPI    C218842   6.981  16.250   5.441 -0.1607 -0.1878 -0.1703
 1199loPI    C318843   6.720  16.343   5.153  0.0905  0.3154 -0.2455
 1199loPI   PO418844   6.619  16.572   5.769 -0.0552 -0.0688  0.1274
 1199loPI   GL118845   6.692  16.617   6.196 -0.1936 -0.1834 -0.2467
 1199loPI   GL218846   7.055  16.631   6.185 -0.4547 -0.2144 -0.0536
 1199loPI   C1A18847   6.756  16.555   6.602 -0.3054 -0.3994 -0.2980
 1199loPI   C2A18848   6.824  16.566   7.073  0.1742  0.1773 -0.0327
 1199loPI   C3A18849   6.779  16.526   7.493  0.0995 -0.1731  0.4107
 1199loPI   C4A18850   6.801  16.626   7.937 -0.1488 -0.2686  0.0609
 1199loPI   C5A18851   6.596  16.646   8.306  0.1258 -0.1318 -0.0176
 1199loPI   C6A18852   6.239  16.683   8.605  0.0469  0.1127 -0.2771
 1199loPI   C1B18853   7.350  16.734   6.568 -0.0735 -0.0048 -0.1645
 1199loPI   C2B18854   7.304  16.737   6.970  0.0736 -0.0297  0.0964
 1199loPI   C3B18855   7.289  16.725   7.372  0.2868 -0.2176  0.1268
 1199loPI   C4B18856   7.352  16.718   7.823 -0.0909  0.0367 -0.0057
 1200loPI    C118857   8.323   6.652   5.433 -0.2000  0.1176  0.0431
 1200loPI    C218858   8.412   6.377   5.157  0.0565  0.1256  0.1157
 1200loPI    C318859   8.348   6.756   5.047 -0.0882  0.0797  0.0397
 1200loPI   PO418860   8.511   6.639   5.629 -0.0023 -0.0607  0.0442
 1200loPI   GL118861   8.566   6.741   6.085  0.1943  0.3848  0.0885
 1200loPI   GL218862   8.496   6.482   6.262  0.0317  0.1318 -0.0569
 1200loPI   C1A18863   8.686   6.864   6.508 -0.3268 -0.1075  0.2349
 1200loPI   C2A18864   8.881   6.733   6.962  0.0529  0.0456  0.1052
 1200loPI   C3A18865   8.715   6.759   7.397 -0.0916  0.3348 -0.0578
 1200loPI   C4A18866   8.762   6.622   7.882  0.0743 -0.1371  0.3362
 1200loPI   C5A18867   8.727   6.559   8.260 -0.0505  0.0870  0.3137
 1200loPI   C6A18868   8.694   6.538   8.746 -0.0709 -0.0151  0.0614
 1200loPI   C1B18869   8.641   6.286   6.552  0.0980  0.1177 -0.2423
 1200loPI   C2B18870   8.660   6.300   7.004 -0.0183 -0.1908 -0.0140
 1200loPI   C3B18871   8.538   6.155   7.346  0.1017 -0.1972  0.2729
 1200loPI   C4B18872   8.513   6.116   7.710  0.0851 -0.2305 -0.0533
 1201loPI    C118873   3.317   8.956   5.499 -0.0600 -0.1119 -0.1376
 1201loPI    C218874   3.009   9.134   5.316  0.0121  0.2119  0.0476
 1201loPI    C318875   3.290   8.948   5.100 -0.1218  0.2288 -0.1435
 1201loPI   PO418876   3.352   9.075   5.660 -0.0282  0.3209 -0.0213
 1201loPI   GL118877   3.467   8.958   6.024 -0.5102 -0.1320  0.2284
 1201loPI   GL218878   3.459   9.289   6.106 -0.0710  0.0772 -0.2969
 1201loPI   C1A18879   3.493   8.769   6.445 -0.3579  0.0016 -0.1680
 1201loPI   C2A18880   3.484   8.696   6.921 -0.0410 -0.0661  0.1697
 1201loPI   C3A18881   3.492   8.688   7.368 -0.0954  0.3055  0.0304
 1201loPI   C4A18882   3.459   8.719   7.870 -0.2278 -0.0329  0.3166
 1201loPI   C5A18883   3.555   9.030   8.232  0.1997  0.0380  0.1022
 1201loPI   C6A18884   3.694   9.451   8.308  0.1974  0.2106  0.2298
 1201loPI   C1B18885   3.629   9.228   6.502 -0.3169 -0.0538  0.1036
 1201loPI   C2B18886   3.607   9.227   6.913  0.5623 -0.3604 -0.0797
 1201loPI   C3B18887   3.512   9.213   7.340 -0.1743 -0.1737 -0.1329
 1201loPI   C4B18888   3.541   9.220   7.722 -0.0994 -0.0835  0.3198
 1202loPI    C118889  17.598   4.261   5.884  0.0596  0.2077 -0.0277
 1202loPI    C218890  17.657   3.867   5.859 -0.0557  0.1759  0.1818
 1202loPI    C318891  17.522   4.069   5.542  0.1327  0.0703  0.0326
 1202loPI   PO418892  17.625   4.261   6.211  0.3914 -0.0833  0.0696
 1202loPI   GL118893  17.809   4.132   6.635  0.2723  0.3014  0.2361
 1202loPI   GL218894  18.068   4.318   6.513 -0.2690 -0.2421  0.1933
 1202loPI   C1A18895  17.761   4.071   7.076  0.0900 -0.1477 -0.1882
 1202loPI   C2A18896  17.822   4.093   7.574 -0.0661 -0.0123  0.1241
 1202loPI   C3A18897  17.844   4.121   7.969 -0.4119 -0.1267  0.2408
 1202loPI   C4A18898  17.738   3.938   8.331 -0.0157  0.0131  0.2482
 1202loPI   C5A18899  17.711   4.026   8.763 -0.0419  0.1312 -0.1565
 1202loPI   C6A18900  17.578   3.723   9.137 -0.0834 -0.2744  0.0979
 1202loPI   C1B18901  18.220   4.183   6.856 -0.0591  0.1755 -0.0114
 1202loPI   C2B18902  18.263   4.127   7.275 -0.1112 -0.0009 -0.2149
 1202loPI   C3B18903  18.252   4.287   7.691  0.1828 -0.0757 -0.2247
 1202loPI   C4B18904  18.317   4.275   8.153  0.1285 -0.2702  0.0335
 1203loPI    C118905   5.325   9.769   5.609  0.0193 -0.2989 -0.1230
 1203loPI    C218906   5.237   9.931   5.253 -0.0434  0.0355  0.0412
 1203loPI    C318907   5.608   9.801   5.328 -0.0071  0.0472 -0.1145
 1203loPI   PO418908   5.068   9.806   5.688  0.0707  0.0230  0.1035
 1203loPI   GL118909   4.991   9.915   6.261  0.0437 -0.1730 -0.2533
 1203loPI   GL218910   5.121   9.648   6.152  0.1589  0.1938 -0.0780
 1203loPI   C1A18911   4.656  10.013   6.486 -0.1186  0.2290  0.0006
 1203loPI   C2A18912   4.573  10.111   6.949  0.1110 -0.1989 -0.4210
 1203loPI   C3A18913   4.589  10.083   7.428  0.0642  0.2372  0.3433
 1203loPI   C4A18914   4.647  10.046   7.822  0.0329 -0.1280 -0.1238
 1203loPI   C5A18915   4.640  10.081   8.219 -0.2017 -0.0660  0.0560
 1203loPI   C6A18916   4.612   9.979   8.748  0.2052  0.0774 -0.0303
 1203loPI   C1B18917   5.110   9.714   6.687  0.1421  0.0072  0.3031
 1203loPI   C2B18918   4.973   9.751   7.078 -0.2220 -0.2219  0.1105
 1203loPI   C3B18919   4.969   9.762   7.464  0.1175 -0.0890 -0.0879
 1203loPI   C4B18920   5.011   9.686   7.881  0.1063 -0.0572  0.2360
 1204loPI    C118921  11.977  15.578   5.650  0.0273  0.1072  0.3000
 1204loPI    C218922  11.630  15.713   5.505  0.0718 -0.0999 -0.0083
 1204loPI    C318923  11.953  15.949   5.502 -0.0108  0.0153  0.0724
 1204loPI   PO418924  11.879  15.454   5.897 -0.0914  0.0290  0.3222
 1204loPI   GL118925  11.855  15.492   6.368 -0.0795  0.0349 -0.1148
 1204loPI   GL218926  11.658  15.732   6.332 -0.2371  0.0825 -0.0999
 1204loPI   C1A18927  11.646  15.443   6.770  0.0778 -0.4287  0.0168
 1204loPI   C2A18928  11.572  15.471   7.234  0.0325  0.1100 -0.0516
 1204loPI   C3A18929  11.624  15.350   7.622 -0.1690  0.0547 -0.0286
 1204loPI   C4A18930  11.799  15.380   8.121 -0.1014  0.3427 -0.0298
 1204loPI   C5A18931  11.788  15.143   8.434 -0.0678 -0.0013 -0.1125
 1204loPI   C6A18932  11.633  15.129   8.861  0.0409  0.1064  0.2450
 1204loPI   C1B18933  11.735  15.954   6.678  0.1185  0.0186 -0.0553
 1204loPI   C2B18934  11.752  15.932   7.139  0.0969 -0.2997 -0.0120
 1204loPI   C3B18935  11.728  15.954   7.580 -0.1673  0.1667  0.1158
 1204loPI   C4B18936  11.812  16.031   8.006  0.0254  0.0602 -0.2115
 1205loPI    C118937  17.345  12.482   5.237 -0.0154  0.0760 -0.0737
 1205loPI    C218938  17.234  12.176   5.004  0.0821  0.0215 -0.0489
 1205loPI    C318939  17.308  12.534   4.842  0.1110 -0.0061 -0.0970
 1205loPI   PO418940  17.594  12.307   5.456  0.1631  0.2853  0.0803
 1205loPI   GL118941  17.849  12.474   5.826  0.2048 -0.0743 -0.0141
 1205loPI   GL218942  17.771  12.776   5.898  0.4081  0.0738  0.0204
 1205loPI   C1A18943  17.875  12.221   6.206  0.1740  0.0722 -0.0357
 1205loPI   C2A18944  17.782  12.358   6.607  0.0145 -0.0862  0.0459
 1205loPI   C3A18945  17.708  12.248   7.019 -0.0583  0.4318 -0.0088
 1205loPI   C4A18946  17.674  12.204   7.467 -0.0479  0.0586 -0.2940
 1205loPI   C5A18947  17.611  12.237   7.848  0.3269 -0.1361  0.2494
 1205loPI   C6A18948  17.878  12.208   8.232  0.1170 -0.1847 -0.0977
 1205loPI   C1B18949  17.977  12.712   6.258 -0.0365 -0.0134  0.0241
 1205loPI   C2B18950  17.810  12.838   6.648  0.1376 -0.0752  0.0666
 1205loPI   C3B18951  17.807  12.785   7.044  0.0498 -0.1296  0.1830
 1205loPI   C4B18952  17.743  12.788   7.415  0.0355  0.1881 -0.0196
 1206loPI    C118953  14.153  15.901   5.894  0.0292  0.4002  0.0790
 1206loPI    C218954  14.406  16.147   5.705  0.6930 -0.2661  0.0550
 1206loPI    C318955  14.237  15.843   5.507 -0.0284  0.0778  0.1119
 1206loPI   PO418956  14.283  15.905   6.146  0.1435  0.1859  0.0030
 1206loPI   GL118957  14.378  16.064   6.526  0.1083  0.2348 -0.3361
 1206loPI   GL218958  14.172  16.307   6.552  0.0264  0.0681  0.1832
 1206loPI   C1A18959  14.348  16.143   6.986 -0.2839 -0.6175  0.1086
 1206loPI   C2A18960  14.347  16.182   7.405 -0.1511  0.0583 -0.3086
 1206loPI   C3A18961  14.105  16.090   7.813  0.0630  0.1121 -0.0554
 1206loPI   C4A18962  14.317  16.285   8.068 -0.0228 -0.0991  0.0148
 1206loPI   C5A18963  14.646  16.456   8.314 -0.1550  0.0564  0.0488
 1206loPI   C6A18964  15.048  16.683   8.493 -0.0777  0.0571  0.1518
 1206loPI   C1B18965  14.252  16.640   6.777  0.0336 -0.0013 -0.1975
 1206loPI   C2B18966  14.217  16.640   7.222  0.2440  0.0165 -0.1835
 1206loPI   C3B18967  14.138  16.623   7.634 -0.0118  0.2200  0.0142
 1206loPI   C4B18968  14.119  16.812   8.020 -0.0177 -0.2208 -0.1607
 1207loPI    C118969  17.351   8.982   5.670  0.1165  0.3166 -0.1826
 1207loPI    C218970  17.007   8.965   5.466  0.0203 -0.0504  0.0027
 1207loPI    C318971  17.351   9.031   5.273 -0.0975 -0.1564 -0.2478
 1207loPI   PO418972  17.247   9.043   5.909  0.0253 -0.0045 -0.1020
 1207loPI   GL118973  17.097   8.908   6.294  0.0327  0.0412 -0.2447
 1207loPI   GL218974  17.324   9.213   6.383  0.0186  0.2104 -0.2316
 1207loPI   C1A18975  17.067   8.713   6.623 -0.1804  0.1480  0.0406
 1207loPI   C2A18976  16.983   8.722   7.055  0.1756 -0.0113 -0.3713
 1207loPI   C3A18977  16.963   8.625   7.486  0.1892  0.0527  0.1120
 1207loPI   C4A18978  16.933   8.688   7.982 -0.1385 -0.1054  0.0184
 1207loPI   C5A18979  16.727   8.525   8.364 -0.1022 -0.0283  0.0088
 1207loPI   C6A18980  16.889   8.136   8.597  0.1178 -0.3929 -0.1331
 1207loPI   C1B18981  17.110   9.184   6.753  0.1354  0.1117 -0.0079
 1207loPI   C2B18982  17.130   9.161   7.216 -0.0046 -0.0368 -0.2020
 1207loPI   C3B18983  17.048   9.058   7.651 -0.1127 -0.3341  0.0842
 1207loPI   C4B18984  17.131   9.183   8.053 -0.1241  0.2082 -0.1950
 1208loPI    C118985  12.606   0.024   6.013 -0.0956  0.0468 -0.0787
 1208loPI    C218986  12.591  -0.315   6.224  0.0222  0.0885 -0.0018
 1208loPI    C318987  12.757  -0.313   5.860  0.0938  0.0803  0.0306
 1208loPI   PO418988  12.387   0.123   6.061 -0.2594 -0.1728  0.0090
 1208loPI   GL118989  12.185   0.002   6.374  0.2364  0.1049  0.0829
 1208loPI   GL218990  11.893   0.235   6.355  0.1390 -0.1482 -0.1466
 1208loPI   C1A18991  12.353  -0.131   6.777 -0.2693  0.0632 -0.2012
 1208loPI   C2A18992  12.386  -0.082   7.224  0.1864  0.0574  0.1251
 1208loPI   C3A18993  12.432  -0.002   7.625 -0.0914 -0.0954 -0.1456
 1208loPI   C4A18994  12.510  -0.012   8.027  0.0523 -0.0576  0.1688
 1208loPI   C5A18995  12.708  -0.021   8.462  0.0237 -0.3021 -0.0624
 1208loPI   C6A18996  12.760  -0.288   8.784  0.1867  0.0875 -0.0726
 1208loPI   C1B18997  12.018   0.276   6.828 -0.0057  0.2580 -0.1447
 1208loPI   C2B18998  12.052   0.304   7.307 -0.1245 -0.2383  0.1144
 1208loPI   C3B18999  12.060   0.310   7.620 -0.1998  0.0719  0.1318
 1208loPI   C4B19000  12.149   0.402   8.089  0.2643 -0.0918 -0.0081
 1209loPI    C119001   8.246   3.397   5.596 -0.0951  0.1326  0.0130
 1209loPI    C219002   7.849   3.427   5.562 -0.1158 -0.1539 -0.0175
 1209loPI    C319003   8.086   3.590   5.284 -0.2099  0.0479  0.0190
 1209loPI   PO419004   8.254   3.433   5.874 -0.3706 -0.1552  0.4761
 1209loPI   GL119005   8.204   3.251   6.291 -0.0720 -0.2804 -0.0044
 1209loPI   GL219006   7.885   3.436   6.270  0.0161 -0.1060  0.0932
 1209loPI   C1A19007   8.078   3.266   6.845  0.1521 -0.2042 -0.0921
 1209loPI   C2A19008   8.055   3.245   7.253 -0.0380  0.0671 -0.1049
 1209loPI   C3A19009   8.085   3.183   7.736  0.0641  0.1900  0.1507
 1209loPI   C4A19010   8.014   3.270   8.184 -0.0516  0.0252 -0.1132
 1209loPI   C5A19011   7.687   3.426   8.503 -0.0803 -0.1226 -0.0692
 1209loPI   C6A19012   7.518   3.800   8.296  0.1733 -0.0521 -0.2190
 1209loPI   C1B19013   7.642   3.470   6.589  0.1677 -0.1455 -0.1157
 1209loPI   C2B19014   7.527   3.545   7.028 -0.2711 -0.2794  0.0904
 1209loPI   C3B19015   7.536   3.509   7.445  0.2508 -0.2717 -0.0656
 1209loPI   C4B19016   7.616   3.526   7.827  0.1276  0.0144  0.0989
 1210loPI    C119017  16.866  15.334   5.611 -0.1214 -0.0861 -0.1029
 1210loPI    C219018  16.635  15.220   5.306 -0.1572  0.1165 -0.1524
 1210loPI    C319019  16.856  15.553   5.277  0.0520 -0.0123 -0.0614
 1210loPI   PO419020  16.698  15.319   5.796 -0.1879 -0.2509  0.0501
 1210loPI   GL119021  16.524  15.044   6.218  0.2288  0.0089  0.2349
 1210loPI   GL219022  16.729  14.786   6.300 -0.0184  0.1287  0.0359
 1210loPI   C1A19023  16.488  15.236   6.595 -0.0433 -0.2229 -0.1300
 1210loPI   C2A19024  16.360  15.173   7.012  0.1956 -0.2680  0.0679
 1210loPI   C3A19025  16.563  15.108   7.441  0.0174  0.2004  0.2305
 1210loPI   C4A19026  16.523  15.055   7.862 -0.1578  0.0373 -0.3426
 1210loPI   C5A19027  16.681  14.975   8.291 -0.0712  0.1965  0.1061
 1210loPI   C6A19028  16.487  14.805   8.665  0.0400  0.0197  0.0252
 1210loPI   C1B19029  16.826  14.846   6.840  0.1466  0.0208 -0.0286
 1210loPI   C2B19030  16.906  14.765   7.225  0.2416 -0.3590 -0.1677
 1210loPI   C3B19031  16.913  14.786   7.658 -0.1857 -0.1173 -0.0277
 1210loPI   C4B19032  17.008  14.540   8.082 -0.0874  0.0576  0.4696
 1211loPI    C119033   3.990   0.463   5.690  0.0978  0.0402  0.1823
 1211loPI    C219034   4.045   0.856   5.739  0.0700  0.0587  0.0693
 1211loPI    C319035   3.798   0.723   5.454  0.2486 -0.0453 -0.0386
 1211loPI   PO419036   4.036   0.424   5.958  0.0646  0.3124 -0.1032
 1211loPI   GL119037   4.090   0.602   6.302  0.0915 -0.0964 -0.0436
 1211loPI   GL219038   3.794   0.725   6.311 -0.2577  0.0779  0.1490
 1211loPI   C1A19039   4.347   0.434   6.550 -0.3238 -0.1057 -0.0202
 1211loPI   C2A19040   4.469   0.332   6.932  0.2467 -0.3198  0.2956
 1211loPI   C3A19041   4.478   0.352   7.429  0.4359  0.0734  0.2959
 1211loPI   C4A19042   4.359   0.371   7.826  0.0036  0.1948 -0.0245
 1211loPI   C5A19043   4.344   0.325   8.265 -0.1181  0.0618  0.1106
 1211loPI   C6A19044   4.551   0.135   8.695 -0.2353  0.2167  0.3513
 1211loPI   C1B19045   3.931   0.731   6.743 -0.2555 -0.1767  0.0857
 1211loPI   C2B19046   3.889   0.653   7.157  0.1344 -0.0760  0.1870
 1211loPI   C3B19047   3.869   0.746   7.641  0.0186  0.2569 -0.0321
 1211loPI   C4B19048   3.895   0.692   8.105  0.1269 -0.0037  0.3092
 1212loPI    C119049  12.620  10.228   5.608  0.0149 -0.1997 -0.0245
 1212loPI    C219050  12.794  10.043   5.299 -0.1196 -0.4621  0.0546
 1212loPI    C319051  12.496  10.302   5.235  0.2349 -0.0760 -0.0751
 1212loPI   PO419052  12.668  10.146   5.806 -0.0405  0.0100  0.3368
 1212loPI   GL119053  12.752  10.033   6.279  0.1417  0.0544 -0.0694
 1212loPI   GL219054  13.018  10.260   6.350 -0.4696 -0.1020  0.1504
 1212loPI   C1A19055  12.745  10.062   6.722 -0.0243  0.0608  0.0951
 1212loPI   C2A19056  12.551  10.001   7.120  0.0698 -0.2027 -0.0129
 1212loPI   C3A19057  12.600   9.948   7.521 -0.1525 -0.1821 -0.2084
 1212loPI   C4A19058  12.562   9.881   7.857  0.0458 -0.2134 -0.1694
 1212loPI   C5A19059  12.892   9.668   8.200  0.1554  0.2032  0.0231
 1212loPI   C6A19060  12.991   9.298   8.199 -0.0333 -0.2322 -0.3103
 1212loPI   C1B19061  13.176  10.376   6.784  0.0923 -0.2286  0.0497
 1212loPI   C2B19062  12.986  10.212   7.152 -0.1112 -0.0726  0.0537
 1212loPI   C3B19063  13.065  10.128   7.554 -0.1235 -0.2836 -0.0639
 1212loPI   C4B19064  12.988  10.140   8.057  0.3746 -0.1374 -0.0059
 1213loPI    C119065   6.926  11.784   5.478 -0.1017  0.0613 -0.1432
 1213loPI    C219066   6.870  11.404   5.369 -0.4019  0.0815 -0.0667
 1213loPI    C319067   6.602  11.683   5.267 -0.1027  0.3035 -0.2615
 1213loPI   PO419068   7.048  11.786   5.723 -0.2895 -0.4242 -0.0127
 1213loPI   GL119069   6.996  11.850   6.132  0.0583 -0.1280  0.2601
 1213loPI   GL219070   7.146  11.584   6.260 -0.0208 -0.2107  0.2970
 1213loPI   C1A19071   7.322  11.953   6.566 -0.1200  0.0493  0.0481
 1213loPI   C2A19072   7.500  11.917   7.031 -0.0144 -0.0577 -0.3847
 1213loPI   C3A19073   7.516  11.967   7.384  0.0378  0.4073  0.0313
 1213loPI   C4A19074   7.354  11.891   7.729 -0.2075  0.0723 -0.1196
 1213loPI   C5A19075   7.234  11.940   8.160  0.1936 -0.0759 -0.0338
 1213loPI   C6A19076   7.291  12.138   8.592  0.0446 -0.0842 -0.1249
 1213loPI   C1B19077   7.187  11.450   6.658  0.0433 -0.0332 -0.0215
 1213loPI   C2B19078   7.318  11.347   6.981 -0.1811 -0.3333  0.2480
 1213loPI   C3B19079   7.340  11.440   7.435 -0.0045 -0.0527  0.2488
 1213loPI   C4B19080   7.223  11.430   7.858  0.0457 -0.2309 -0.0675
 1214loPI    C119081  17.247   3.086   5.786 -0.1834 -0.0089  0.0718
 1214loPI    C219082  17.387   3.407   5.979  0.2689 -0.2146  0.1002
 1214loPI    C319083  17.471   3.354   5.592 -0.0626 -0.1482  0.0162
 1214loPI   PO419084  17.334   2.885   5.942 -0.2366  0.0048  0.2386
 1214loPI   GL119085  17.266   2.870   6.353  0.1242 -0.3649  0.2939
 1214loPI   GL219086  17.497   3.125   6.351  0.4182  0.0894  0.1761
 1214loPI   C1A19087  17.115   2.974   6.782  0.0919 -0.2291  0.1668
 1214loPI   C2A19088  17.139   2.994   7.234  0.1015  0.1117  0.4052
 1214loPI   C3A19089  17.173   2.901   7.621  0.3249 -0.1750  0.0253
 1214loPI   C4A19090  17.019   2.873   8.009 -0.1303  0.0699 -0.0038
 1214loPI   C5A19091  17.005   2.840   8.480  0.0813 -0.0110  0.5175
 1214loPI   C6A19092  16.672   2.683   8.720 -0.2415  0.0166  0.1331
 1214loPI   C1B19093  17.657   3.034   6.669  0.1059  0.1027 -0.0871
 1214loPI   C2B19094  17.617   3.102   7.083  0.0525  0.0953  0.1658
 1214loPI   C3B19095  17.617   3.029   7.529  0.1130  0.0592 -0.0500
 1214loPI   C4B19096  17.545   3.060   7.927  0.0922 -0.2087  0.0049
 1215loPI    C119097   3.819  14.212   5.490  0.1279 -0.1072  0.1488
 1215loPI    C219098   3.791  14.539   5.262  0.3091 -0.2114 -0.0266
 1215loPI    C319099   3.803  14.178   5.092  0.1832 -0.3063  0.1627
 1215loPI   PO419100   3.760  14.305   5.748  0.1432 -0.0529  0.2155
 1215loPI   GL119101   3.637  14.602   6.005 -0.1786 -0.6032  0.2546
 1215loPI   GL219102   4.023  14.597   6.091  0.0321 -0.0229  0.1026
 1215loPI   C1A19103   3.600  14.530   6.383  0.0305 -0.1806 -0.3072
 1215loPI   C2A19104   3.581  14.587   6.806 -0.1333 -0.0402  0.1802
 1215loPI   C3A19105   3.613  14.542   7.227  0.2954 -0.1600 -0.2603
 1215loPI   C4A19106   3.684  14.479   7.685  0.0864  0.0893  0.1340
 1215loPI   C5A19107   3.714  14.444   8.116  0.1330  0.0212 -0.0065
 1215loPI   C6A19108   3.806  14.445   8.535 -0.1375  0.3033 -0.0279
 1215loPI   C1B19109   4.077  14.733   6.540  0.1645 -0.2019 -0.0930
 1215loPI   C2B19110   4.028  14.700   6.921  0.0368  0.0287  0.0519
 1215loPI   C3B19111   4.150  14.707   7.344 -0.0347 -0.0539  0.1400
 1215loPI   C4B19112   4.144  14.645   7.759 -0.0217  0.0816 -0.3266
 1216loPI    C119113   4.037   4.428   5.471  0.0926  0.1468 -0.0712
 1216loPI    C219114   3.761   4.149   5.394  0.1339  0.0099  0.2600
 1216loPI    C319115   3.839   4.433   5.124 -0.1551 -0.0941  0.0622
 1216loPI   PO419116   3.974   4.405   5.783  0.1408 -0.1967 -0.0219
 1216loPI   GL119117   3.761   4.393   6.290 -0.0137 -0.2237 -0.2743
 1216loPI   GL219118   3.618   4.604   6.432 -0.0016 -0.0131  0.0717
 1216loPI   C1A19119   4.098   4.243   6.616  0.5203  0.0286  0.1687
 1216loPI   C2A19120   4.126   4.187   7.101  0.1336  0.0172  0.1708
 1216loPI   C3A19121   4.143   4.143   7.589 -0.0038 -0.0031  0.1497
 1216loPI   C4A19122   4.221   4.187   8.049 -0.3107 -0.1410 -0.2741
 1216loPI   C5A19123   4.413   4.059   8.461  0.1498  0.0285  0.0210
 1216loPI   C6A19124   4.701   3.828   8.744 -0.3265  0.2809  0.0021
 1216loPI   C1B19125   3.664   4.490   6.769 -0.1982  0.1466  0.3334
 1216loPI   C2B19126   3.696   4.506   7.237  0.0474 -0.0266 -0.1822
 1216loPI   C3B19127   3.732   4.440   7.693 -0.3360 -0.1320 -0.0158
 1216loPI   C4B19128   3.748   4.281   8.083 -0.0989 -0.1817  0.0143
 1217loPI    C119129   7.022  14.953   5.394 -0.0581  0.0551 -0.1737
 1217loPI    C219130   6.901  15.328   5.327 -0.0556  0.0664 -0.1147
 1217loPI    C319131   6.888  15.059   5.032  0.1137  0.1586 -0.2081
 1217loPI   PO419132   6.891  14.914   5.651 -0.2541 -0.1266  0.2050
 1217loPI   GL119133   6.787  14.782   6.033  0.3278  0.0497 -0.2139
 1217loPI   GL219134   6.620  14.965   6.132 -0.1058 -0.0132  0.0175
 1217loPI   C1A19135   6.963  14.695   6.474  0.2375 -0.2406  0.1376
 1217loPI   C2A19136   6.859  14.647   6.946 -0.1137  0.0005  0.0606
 1217loPI   C3A19137   6.939  14.730   7.401  0.2966  0.3658 -0.0722
 1217loPI   C4A19138   6.956  14.819   7.883 -0.1884 -0.0361 -0.0758
 1217loPI   C5A19139   6.660  14.725   8.260 -0.0004  0.0772 -0.2340
 1217loPI   C6A19140   6.310  14.925   8.501 -0.1421  0.1904  0.1144
 1217loPI   C1B19141   6.523  14.995   6.579 -0.2195  0.0336  0.0531
 1217loPI   C2B19142   6.493  15.056   7.013 -0.3923 -0.0286 -0.1358
 1217loPI   C3B19143   6.481  15.051   7.517  0.0679 -0.2069 -0.1010
 1217loPI   C4B19144   6.500  15.082   7.904 -0.0036  0.2605  0.1141
 1218loPI    C119145   2.382  15.956   5.509 -0.0254  0.1599  0.1226
 1218loPI    C219146   2.294  16.346   5.525 -0.1977  0.1253  0.0333
 1218loPI    C319147   2.334  16.164   5.171 -0.0381  0.0788  0.0745
 1218loPI   PO419148   2.238  15.846   5.670  0.3050  0.0897  0.0700
 1218loPI   GL119149   1.985  15.748   6.044 -0.1518  0.1374  0.0935
 1218loPI   GL219150   1.685  16.032   6.014 -0.4602 -0.1209 -0.2869
 1218loPI   C1A19151   2.055  15.845   6.377  0.2837  0.2333  0.1861
 1218loPI   C2A19152   2.056  15.870   6.735 -0.0818 -0.3567  0.1535
 1218loPI   C3A19153   2.098  15.879   7.191 -0.1135 -0.2417 -0.1002
 1218loPI   C4A19154   2.095  15.805   7.596 -0.1059 -0.0180 -0.0505
 1218loPI   C5A19155   2.166  15.804   8.057  0.2498  0.0550 -0.0395
 1218loPI   C6A19156   2.299  16.041   8.340 -0.1905 -0.1640  0.0622
 1218loPI   C1B19157   1.702  16.193   6.470 -0.4418  0.3041  0.0618
 1218loPI   C2B19158   1.741  16.213   6.941 -0.1300 -0.2315 -0.3917
 1218loPI   C3B19159   1.683  16.217   7.352 -0.2599  0.1242 -0.2006
 1218loPI   C4B19160   1.740  16.162   7.769  0.0612 -0.0676 -0.1480
 1219loPI    C119161  15.692   6.621   5.656  0.2097  0.1656 -0.0427
 1219loPI    C219162  15.457   6.944   5.632  0.0407  0.0384 -0.1234
 1219loPI    C319163  15.641   6.806   5.305  0.1001  0.0431 -0.0922
 1219loPI   PO419164  15.751   6.517   5.885  0.0119 -0.1459 -0.2690
 1219loPI   GL119165  15.718   6.524   6.225 -0.2525  0.3513 -0.1978
 1219loPI   GL219166  15.931   6.671   6.324 -0.0098 -0.2981  0.0887
 1219loPI   C1A19167  15.638   6.399   6.685 -0.0496 -0.1512  0.2222
 1219loPI   C2A19168  15.636   6.358   7.133  0.2543  0.1435 -0.0636
 1219loPI   C3A19169  15.602   6.203   7.610  0.2613 -0.2971 -0.0239
 1219loPI   C4A19170  15.521   6.151   8.118  0.0160  0.1361  0.1584
 1219loPI   C5A19171  15.504   6.405   8.523  0.3235 -0.1062 -0.0405
 1219loPI   C6A19172  15.470   6.206   8.930 -0.0781 -0.0905 -0.0467
 1219loPI   C1B19173  16.100   6.594   6.706  0.0233  0.1267  0.1220
 1219loPI   C2B19174  16.049   6.577   7.116  0.0901 -0.0989  0.1136
 1219loPI   C3B19175  16.053   6.373   7.469  0.1348 -0.2642  0.2295
 1219loPI   C4B19176  16.077   6.380   7.947 -0.3680 -0.1589  0.1445
 1220loPI    C119177  15.873   4.035   5.858 -0.0307 -0.2082 -0.0029
 1220loPI    C219178  15.985   4.065   5.475  0.0134  0.0771  0.0299
 1220loPI    C319179  15.613   4.164   5.583 -0.1090 -0.3411  0.0082
 1220loPI   PO419180  16.041   4.006   5.983 -0.1474 -0.2521 -0.0422
 1220loPI   GL119181  16.112   3.927   6.422  0.0157 -0.1759 -0.0593
 1220loPI   GL219182  16.308   3.782   6.530  0.0060  0.1810  0.1516
 1220loPI   C1A19183  15.933   3.958   6.878 -0.0065 -0.0124 -0.0528
 1220loPI   C2A19184  15.891   3.986   7.376  0.1085  0.2518  0.0096
 1220loPI   C3A19185  15.884   3.987   7.864  0.1371  0.1910 -0.0763
 1220loPI   C4A19186  15.884   4.068   8.307  0.1224  0.1115  0.1385
 1220loPI   C5A19187  15.644   3.838   8.579  0.0309  0.2892 -0.2910
 1220loPI   C6A19188  15.584   3.563   8.876  0.2238 -0.3700  0.2321
 1220loPI   C1B19189  16.317   3.626   6.864  0.0805 -0.1792 -0.2118
 1220loPI   C2B19190  16.278   3.576   7.325  0.0049  0.0221 -0.1910
 1220loPI   C3B19191  16.257   3.649   7.751 -0.2957 -0.2195 -0.1588
 1220loPI   C4B19192  16.195   3.623   8.174  0.0451  0.1531  0.1908
 1221loPI    C119193  15.481   9.132   5.576  0.0721  0.1712  0.1079
 1221loPI    C219194  15.613   8.874   5.301 -0.1005  0.0874  0.1029
 1221loPI    C319195  15.256   9.049   5.256 -0.1049  0.1160  0.2454
 1221loPI   PO419196  15.482   9.073   5.803 -0.2209 -0.0314  0.0351
 1221loPI   GL119197  15.508   9.087   6.194  0.3607 -0.0415  0.0722
 1221loPI   GL219198  15.167   8.986   6.229 -0.2153  0.1955  0.2118
 1221loPI   C1A19199  15.640   9.231   6.588 -0.3080 -0.2798  0.3921
 1221loPI   C2A19200  15.649   9.297   7.073  0.1890  0.3887  0.0072
 1221loPI   C3A19201  15.704   9.191   7.538  0.1243  0.0093 -0.1155
 1221loPI   C4A19202  15.663   9.208   7.938  0.1554 -0.1696 -0.0335
 1221loPI   C5A19203  16.082   9.382   8.192  0.2413  0.1407 -0.3327
 1221loPI   C6A19204  16.368   9.666   8.421 -0.0942  0.0567 -0.1167
 1221loPI   C1B19205  15.210   8.945   6.593  0.0746 -0.1251  0.0899
 1221loPI   C2B19206  15.180   9.085   6.981 -0.1149  0.0545 -0.1074
 1221loPI   C3B19207  15.123   8.978   7.416 -0.4341  0.3395  0.2480
 1221loPI   C4B19208  15.219   8.956   7.783  0.0585  0.0264  0.0036
 1222loPI    C119209   3.879  17.181   5.607 -0.0033 -0.1351  0.1419
 1222loPI    C219210   3.777  16.796   5.561  0.1123 -0.1625  0.1117
 1222loPI    C319211   3.948  16.995   5.259  0.1001 -0.1020  0.1445
 1222loPI   PO419212   3.634  17.309   5.747 -0.1091 -0.1999  0.0187
 1222loPI   GL119213   3.628  17.562   6.104  0.1818 -0.2550 -0.0313
 1222loPI   GL219214   3.687  17.889   6.235  0.3430  0.3431 -0.3092
 1222loPI   C1A19215   3.692  17.362   6.455 -0.2524  0.1667  0.4186
 1222loPI   C2A19216   3.862  17.400   6.911 -0.0042  0.1363 -0.1747
 1222loPI   C3A19217   3.804  17.394   7.289 -0.0189  0.0892 -0.3148
 1222loPI   C4A19218   3.775  17.355   7.732 -0.3549  0.0456 -0.0170
 1222loPI   C5A19219   3.841  17.349   8.157  0.0577 -0.1156 -0.1472
 1222loPI   C6A19220   3.521  17.630   8.395  0.3468  0.2691  0.1363
 1222loPI   C1B19221   3.901  17.914   6.645  0.4397  0.0626  0.0460
 1222loPI   C2B19222   3.934  17.853   7.056 -0.0645 -0.1518 -0.1156
 1222loPI   C3B19223   3.845  17.809   7.498 -0.0721  0.1385 -0.4771
 1222loPI   C4B19224   3.806  17.860   8.010 -0.3132  0.0459 -0.0850
 1223loPI    C119225  12.710   8.368   5.708 -0.0624  0.1685 -0.0805
 1223loPI    C219226  12.547   8.486   5.362 -0.1407 -0.0515 -0.1205
 1223loPI    C319227  12.936   8.395   5.379 -0.1299 -0.0099 -0.1431
 1223loPI   PO419228  12.453   8.314   5.825 -0.0633  0.4078 -0.2754
 1223loPI   GL119229  12.205   8.057   5.987  0.0358 -0.0469  0.2049
 1223loPI   GL219230  12.256   7.715   5.991  0.0261  0.1490 -0.1086
 1223loPI   C1A19231  12.152   8.020   6.435  0.1012  0.4575  0.0265
 1223loPI   C2A19232  12.272   7.998   6.810 -0.2063 -0.3998  0.3279
 1223loPI   C3A19233  12.129   7.826   7.267  0.0046 -0.0897 -0.1382
 1223loPI   C4A19234  12.120   7.897   7.696 -0.0430  0.0864  0.0151
 1223loPI   C5A19235  12.210   7.836   8.092  0.1760  0.6678 -0.0942
 1223loPI   C6A19236  12.471   7.536   8.286 -0.1416 -0.2461 -0.1228
 1223loPI   C1B19237  12.505   7.606   6.396 -0.0655  0.0526 -0.0150
 1223loPI   C2B19238  12.596   7.636   6.644 -0.0012 -0.1448 -0.1982
 1223loPI   C3B19239  12.588   7.580   7.191 -0.0040 -0.2381 -0.1686
 1223loPI   C4B19240  12.461   7.491   7.635 -0.0156  0.0818  0.1475
 1224loPI    C119241  11.861  11.218   5.850  0.0911 -0.0762  0.0551
 1224loPI    C219242  11.604  10.911   5.847 -0.0104  0.0087 -0.0576
 1224loPI    C319243  11.528  11.238   5.629 -0.0186  0.2091  0.2400
 1224loPI   PO419244  12.007  11.134   6.021  0.3465  0.1244  0.0185
 1224loPI   GL119245  11.816  11.003   6.369 -0.1069  0.0237 -0.1320
 1224loPI   GL219246  11.840  11.308   6.546  0.1555  0.0592  0.0713
 1224loPI   C1A19247  11.449  11.016   6.502  0.0009 -0.3388  0.1231
 1224loPI   C2A19248  11.324  10.942   6.908  0.1993  0.0444 -0.1938
 1224loPI   C3A19249  11.361  10.948   7.328 -0.0374 -0.0096  0.4324
 1224loPI   C4A19250  11.462  10.945   7.738 -0.3181  0.1951  0.1294
 1224loPI   C5A19251  11.446  11.087   8.109  0.1314  0.2538  0.0467
 1224loPI   C6A19252  11.382  11.268   8.478 -0.1611  0.0263  0.1743
 1224loPI   C1B19253  11.799  11.111   6.953 -0.1264 -0.2987 -0.0691
 1224loPI   C2B19254  11.846  11.117   7.406 -0.0232 -0.0909 -0.2560
 1224loPI   C3B19255  11.948  11.156   7.845  0.2408 -0.0376  0.1186
 1224loPI   C4B19256  12.223  11.335   8.091 -0.2218 -0.0395 -0.0387
 1225loPI    C119257   1.912  16.610   5.716 -0.0796  0.1679 -0.1774
 1225loPI    C219258   1.628  16.534   5.986 -0.0922  0.3004 -0.1529
 1225loPI    C319259   1.527  16.610   5.607 -0.0724  0.0790 -0.2035
 1225loPI   PO419260   2.069  16.792   5.924 -0.0476 -0.1174  0.1912
 1225loPI   GL119261   1.986  17.019   6.188  0.2457  0.0976 -0.0189
 1225loPI   GL219262   1.830  17.285   6.284  0.1485  0.0576  0.0841
 1225loPI   C1A19263   1.779  16.791   6.525  0.4522 -0.1522 -0.1526
 1225loPI   C2A19264   1.772  16.693   6.857 -0.1344  0.0427 -0.0812
 1225loPI   C3A19265   1.812  16.730   7.272 -0.0590  0.2907 -0.1591
 1225loPI   C4A19266   1.832  16.667   7.733 -0.0972  0.2133 -0.0359
 1225loPI   C5A19267   1.734  16.527   8.135 -0.0946 -0.1497  0.2008
 1225loPI   C6A19268   1.792  16.174   8.342 -0.0392  0.3394  0.1678
 1225loPI   C1B19269   1.801  17.278   6.701 -0.2041 -0.2050  0.0630
 1225loPI   C2B19270   1.900  17.219   7.048  0.1884  0.2607  0.1989
 1225loPI   C3B19271   1.881  17.143   7.561  0.2443 -0.1247 -0.0626
 1225loPI   C4B19272   1.946  17.143   7.979 -0.1308 -0.2523  0.1123
 1226loPI    C119273  10.163   3.664   5.639  0.1824 -0.1054  0.0172
 1226loPI    C219274  10.204   3.537   5.261  0.1928 -0.2580  0.0689
 1226loPI    C319275  10.437   3.831   5.400  0.1285 -0.1401 -0.0696
 1226loPI   PO419276  10.171   3.562   5.835 -0.0371  0.1199  0.1862
 1226loPI   GL119277  10.179   3.545   6.252  0.3356 -0.1781 -0.1553
 1226loPI   GL219278  10.433   3.401   6.340 -0.2502  0.0412  0.1353
 1226loPI   C1A19279  10.073   3.756   6.546 -0.3317 -0.3620 -0.1221
 1226loPI   C2A19280  10.046   3.927   6.964 -0.3044 -0.1070 -0.0606
 1226loPI   C3A19281  10.023   3.949   7.387 -0.0433 -0.0728  0.1404
 1226loPI   C4A19282  10.038   3.906   7.853 -0.0624  0.0509  0.0279
 1226loPI   C5A19283   9.925   3.792   8.321  0.0145 -0.2153  0.3430
 1226loPI   C6A19284   9.920   3.579   8.730 -0.0112  0.0557 -0.0938
 1226loPI   C1B19285  10.456   3.518   6.770  0.0233  0.1042 -0.2509
 1226loPI   C2B19286  10.420   3.608   7.227 -0.0985 -0.1344 -0.1178
 1226loPI   C3B19287  10.397   3.496   7.692 -0.0041  0.0670  0.0066
 1226loPI   C4B19288  10.302   3.515   8.122  0.1765 -0.5663  0.0712
 1227loPI    C119289  15.971   9.631   5.241  0.0062  0.0633  0.0428
 1227loPI    C219290  15.911   9.303   5.462  0.0846  0.0672  0.0699
 1227loPI    C319291  16.238   9.333   5.234 -0.0710 -0.0027 -0.1663
 1227loPI   PO419292  15.935   9.809   5.489  0.2253  0.2740  0.0734
 1227loPI   GL119293  15.817   9.911   5.960  0.2359 -0.0731  0.5134
 1227loPI   GL219294  15.894  10.111   6.160  0.1881 -0.0723 -0.1373
 1227loPI   C1A19295  15.753   9.706   6.354 -0.0232  0.3672 -0.0772
 1227loPI   C2A19296  15.849   9.741   6.858  0.0593 -0.2011 -0.0049
 1227loPI   C3A19297  15.789   9.712   7.342  0.2712  0.1209 -0.0143
 1227loPI   C4A19298  15.794   9.741   7.769 -0.1475  0.1496 -0.0489
 1227loPI   C5A19299  15.716   9.736   8.180 -0.0775 -0.2011  0.1379
 1227loPI   C6A19300  15.753   9.875   8.558 -0.4109 -0.0587  0.0901
 1227loPI   C1B19301  15.954  10.179   6.584  0.0502  0.0299  0.0759
 1227loPI   C2B19302  15.885  10.191   7.086 -0.3526 -0.0667  0.1962
 1227loPI   C3B19303  15.900  10.145   7.530 -0.0349 -0.1634 -0.4128
 1227loPI   C4B19304  15.677  10.237   7.952  0.5187 -0.1252 -0.0732
 1228loPI    C119305  13.946  11.498   5.675  0.0016 -0.0725 -0.0615
 1228loPI    C219306  13.924  11.439   5.280  0.2468  0.1786 -0.1163
 1228loPI    C319307  13.712  11.732   5.450 -0.0750 -0.1059 -0.0165
 1228loPI   PO419308  14.018  11.170   5.719 -0.0859 -0.0669  0.0199
 1228loPI   GL119309  14.087  11.013   6.107 -0.3184  0.1574 -0.0388
 1228loPI   GL219310  14.341  11.171   6.311 -0.0140  0.0298 -0.1109
 1228loPI   C1A19311  14.172  10.633   6.309  0.0429 -0.0488  0.0988
 1228loPI   C2A19312  14.147  10.538   6.741 -0.1876  0.0502 -0.2352
 1228loPI   C3A19313  14.119  10.549   7.188  0.0292  0.1402  0.3410
 1228loPI   C4A19314  14.117  10.448   7.663  0.0774  0.0303 -0.2395
 1228loPI   C5A19315  13.974  10.537   8.087  0.0464  0.1286  0.2080
 1228loPI   C6A19316  13.504  10.650   8.294 -0.1215 -0.0713 -0.2925
 1228loPI   C1B19317  14.241  11.037   6.658  0.4529 -0.1527  0.1862
 1228loPI   C2B19318  14.183  11.064   7.158 -0.0848 -0.0456  0.0674
 1228loPI   C3B19319  14.201  10.933   7.474  0.0868  0.0136 -0.3643
 1228loPI   C4B19320  14.208  11.187   7.744  0.2188  0.3972  0.0307
 1229loPI    C119321   8.177   2.480   5.668  0.1770 -0.0598  0.0257
 1229loPI    C219322   8.110   2.846   5.522 -0.0740 -0.1235 -0.0220
 1229loPI    C319323   8.105   2.529   5.278  0.0421 -0.1705  0.0361
 1229loPI   PO419324   8.104   2.555   5.921  0.1637  0.2685  0.0395
 1229loPI   GL119325   8.166   2.757   6.388 -0.0087 -0.1026  0.4092
 1229loPI   GL219326   8.506   2.907   6.419 -0.0415 -0.0816  0.0349
 1229loPI   C1A19327   7.973   2.692   6.740 -0.3996 -0.1462  0.1813
 1229loPI   C2A19328   7.912   2.713   7.124 -0.2069  0.0521  0.0908
 1229loPI   C3A19329   7.998   2.733   7.525 -0.0577 -0.3141 -0.2065
 1229loPI   C4A19330   8.036   2.628   7.978  0.1674  0.1851 -0.2200
 1229loPI   C5A19331   8.199   2.478   8.363 -0.0216  0.1941 -0.1089
 1229loPI   C6A19332   8.497   2.501   8.468  0.0244 -0.0383  0.1244
 1229loPI   C1B19333   8.478   2.838   6.797 -0.0836 -0.1628  0.2687
 1229loPI   C2B19334   8.428   2.846   7.263  0.0550  0.0146  0.0240
 1229loPI   C3B19335   8.506   2.848   7.649  0.0200  0.0953 -0.0525
 1229loPI   C4B19336   8.541   2.760   8.051 -0.0576  0.0717 -0.0640
 1230loPI    C119337   9.353  11.086   5.260 -0.0581  0.1462 -0.2060
 1230loPI    C219338   9.744  11.043   5.334 -0.0822  0.1378 -0.0812
 1230loPI    C319339   9.562  10.800   5.073 -0.1325 -0.2678  0.3195
 1230loPI   PO419340   9.284  10.991   5.580  0.1491 -0.0055  0.0309
 1230loPI   GL119341   9.293  10.995   6.080 -0.1233  0.0093  0.2631
 1230loPI   GL219342   9.457  11.272   6.262  0.0759  0.1181 -0.3509
 1230loPI   C1A19343   9.059  11.033   6.512 -0.0976 -0.1249 -0.0979
 1230loPI   C2A19344   9.131  11.097   6.937 -0.1468 -0.2353  0.3195
 1230loPI   C3A19345   9.102  11.164   7.296 -0.0650  0.0286 -0.0603
 1230loPI   C4A19346   8.975  11.189   7.729 -0.0640 -0.1642  0.0335
 1230loPI   C5A19347   9.225  11.082   8.127  0.0629 -0.2157 -0.1812
 1230loPI   C6A19348   9.332  11.222   8.580  0.2392  0.0493 -0.1972
 1230loPI   C1B19349   9.553  11.160   6.649  0.2021  0.0451 -0.1655
 1230loPI   C2B19350   9.563  11.356   7.034  0.1103 -0.1249  0.2201
 1230loPI   C3B19351   9.590  11.330   7.500  0.0931  0.0780  0.2211
 1230loPI   C4B19352   9.582  11.351   7.838  0.1361 -0.0979  0.3794
 1231loPI    C119353   3.272  15.393   5.402 -0.1203 -0.0779 -0.0258
 1231loPI    C219354   3.418  15.701   5.192 -0.0752 -0.0061  0.1098
 1231loPI    C319355   3.179  15.434   5.015  0.0901 -0.0350 -0.0732
 1231loPI   PO419356   3.250  15.463   5.579  0.1208 -0.1678 -0.2643
 1231loPI   GL119357   3.185  15.404   5.996 -0.3208  0.1083  0.1252
 1231loPI   GL219358   3.463  15.636   6.124  0.1944 -0.1887  0.0492
 1231loPI   C1A19359   3.253  15.285   6.399  0.4232 -0.4037 -0.1391
 1231loPI   C2A19360   3.327  15.321   6.836 -0.3575 -0.4013  0.1331
 1231loPI   C3A19361   3.366  15.341   7.287  0.1540 -0.0762  0.1115
 1231loPI   C4A19362   3.393  15.409   7.747 -0.0584 -0.1380 -0.0435
 1231loPI   C5A19363   3.444  15.373   8.298 -0.0554  0.1514  0.1171
 1231loPI   C6A19364   3.706  15.358   8.687  0.1500  0.0596 -0.0756
 1231loPI   C1B19365   3.379  15.756   6.451 -0.3281  0.0464  0.1371
 1231loPI   C2B19366   3.413  15.776   6.877  0.0964 -0.2114  0.1123
 1231loPI   C3B19367   3.556  15.888   7.259 -0.1625 -0.1335  0.0425
 1231loPI   C4B19368   3.456  15.890   7.774 -0.2160 -0.3645 -0.0525
 1232loPI    C119369   7.915  13.665   5.274  0.3960  0.0002 -0.1484
 1232loPI    C219370   7.740  13.953   5.058  0.0828  0.0159  0.1181
 1232loPI    C319371   7.802  13.591   4.898  0.2135  0.1424 -0.1227
 1232loPI   PO419372   7.777  13.608   5.500  0.2927 -0.0884  0.1132
 1232loPI   GL119373   7.738  13.571   6.038  0.0059  0.1324  0.2013
 1232loPI   GL219374   7.831  13.797   6.231  0.1375 -0.1018 -0.1037
 1232loPI   C1A19375   7.660  13.432   6.495 -0.0197 -0.1721  0.1232
 1232loPI   C2A19376   7.630  13.487   6.937 -0.0271  0.0938 -0.0648
 1232loPI   C3A19377   7.715  13.554   7.328  0.2896 -0.2151 -0.1897
 1232loPI   C4A19378   7.645  13.503   7.649 -0.0118  0.0174 -0.0491
 1232loPI   C5A19379   7.742  13.648   8.110  0.2627  0.3488  0.3809
 1232loPI   C6A19380   7.917  13.774   8.668 -0.1420 -0.0620 -0.0108
 1232loPI   C1B19381   7.802  13.926   6.601 -0.5188 -0.0055 -0.0646
 1232loPI   C2B19382   7.733  14.001   7.018 -0.2137  0.0549 -0.0096
 1232loPI   C3B19383   7.731  14.046   7.472 -0.0768 -0.2525  0.2146
 1232loPI   C4B19384   7.609  14.090   7.941  0.0967  0.0053  0.0108
 1233loPI    C119385   7.866  16.679   5.652 -0.0514  0.2598  0.2451
 1233loPI    C219386   7.881  16.280   5.626 -0.0177  0.2707  0.0854
 1233loPI    C319387   8.065  16.505   5.352 -0.0991  0.3963  0.1330
 1233loPI   PO419388   7.915  16.756   5.900  0.0615 -0.0838  0.0832
 1233loPI   GL119389   7.722  16.730   6.264 -0.0650  0.1206  0.2347
 1233loPI   GL219390   7.671  16.423   6.499 -0.0236 -0.0906 -0.1049
 1233loPI   C1A19391   7.828  16.910   6.607  0.0162  0.2406  0.0461
 1233loPI   C2A19392   7.829  16.876   6.978 -0.1380 -0.0726 -0.2870
 1233loPI   C3A19393   7.793  16.855   7.428 -0.3399 -0.1459 -0.0652
 1233loPI   C4A19394   7.818  16.878   7.882 -0.0538 -0.1063 -0.1092
 1233loPI   C5A19395   7.844  16.845   8.373 -0.1097  0.1235  0.2620
 1233loPI   C6A19396   7.783  16.868   8.780 -0.2913 -0.0847 -0.0512
 1233loPI   C1B19397   7.631  16.269   6.955  0.3140 -0.3389  0.2712
 1233loPI   C2B19398   7.709  16.375   7.313  0.3383 -0.1076  0.1021
 1233loPI   C3B19399   7.797  16.358   7.714 -0.0216 -0.4099 -0.1849
 1233loPI   C4B19400   7.663  16.498   8.117  0.2562  0.3323  0.3273
 1234loPI    C119401   3.879   1.826   5.655 -0.2316 -0.1829 -0.0671
 1234loPI    C219402   3.882   2.092   5.356  0.2149 -0.0703  0.0301
 1234loPI    C319403   3.738   1.724   5.294  0.0470  0.0379 -0.2429
 1234loPI   PO419404   3.818   1.967   5.887 -0.0005 -0.1027 -0.1643
 1234loPI   GL119405   3.789   2.143   6.237 -0.0191 -0.2136  0.0429
 1234loPI   GL219406   3.467   2.076   6.295 -0.0733  0.1814 -0.0522
 1234loPI   C1A19407   3.754   2.060   6.726 -0.3186 -0.2707 -0.0972
 1234loPI   C2A19408   3.734   2.024   7.154 -0.0077  0.0401  0.1258
 1234loPI   C3A19409   3.802   2.039   7.609 -0.2541 -0.2214  0.3155
 1234loPI   C4A19410   3.843   2.103   8.063 -0.2479  0.2661 -0.0856
 1234loPI   C5A19411   3.759   2.106   8.455  0.0250  0.1338 -0.0571
 1234loPI   C6A19412   3.652   2.196   8.801  0.1574 -0.0011  0.1017
 1234loPI   C1B19413   3.287   1.915   6.614  0.0321  0.3062 -0.1431
 1234loPI   C2B19414   3.300   1.866   7.015 -0.0803 -0.1446  0.2792
 1234loPI   C3B19415   3.317   1.812   7.468  0.1247  0.2224  0.3028
 1234loPI   C4B19416   3.384   1.847   7.911  0.0507  0.2459  0.0956
 1235loPI    C119417   5.467  10.681   5.648 -0.0156  0.3464  0.1669
 1235loPI    C219418   5.588  11.003   5.444  0.0312  0.1619 -0.1018
 1235loPI    C319419   5.244  10.822   5.347  0.1555 -0.0495 -0.1552
 1235loPI   PO419420   5.426  10.838   5.896  0.1085 -0.2692  0.0454
 1235loPI   GL119421   5.238  10.672   6.281 -0.0513  0.1073 -0.5560
 1235loPI   GL219422   5.233  10.324   6.373 -0.0576 -0.1618  0.2672
 1235loPI   C1A19423   5.189  10.766   6.713  0.0683 -0.2904  0.1489
 1235loPI   C2A19424   5.173  10.771   7.025 -0.4331 -0.6096  0.1218
 1235loPI   C3A19425   5.318  10.819   7.444  0.1052  0.0458 -0.0175
 1235loPI   C4A19426   5.244  10.748   7.912  0.0401  0.0452 -0.0369
 1235loPI   C5A19427   5.081  10.684   8.377  0.1692 -0.0376  0.2826
 1235loPI   C6A19428   5.105  10.884   8.763  0.3082  0.1095  0.3965
 1235loPI   C1B19429   5.122  10.220   6.768 -0.2088  0.1343 -0.2356
 1235loPI   C2B19430   4.992  10.225   7.148  0.2811 -0.2783 -0.1145
 1235loPI   C3B19431   5.061  10.288   7.589  0.0185 -0.1529 -0.2739
 1235loPI   C4B19432   5.093  10.190   7.977  0.0031  0.0942  0.1321
 1236loPI    C119433  14.827   7.491   5.574 -0.0213 -0.1472 -0.0355
 1236loPI    C219434  14.740   7.847   5.414  0.0159 -0.0844  0.0825
 1236loPI    C319435  14.683   7.513   5.201  0.0622 -0.0024 -0.0601
 1236loPI   PO419436  14.642   7.532   5.791 -0.3209 -0.1607 -0.0238
 1236loPI   GL119437  14.308   7.634   6.070 -0.0975  0.0561 -0.0886
 1236loPI   GL219438  14.049   7.753   5.982  0.0113 -0.0109  0.3778
 1236loPI   C1A19439  14.344   7.827   6.507 -0.1569 -0.2360  0.0701
 1236loPI   C2A19440  14.451   7.805   7.020 -0.0898 -0.1427  0.2255
 1236loPI   C3A19441  14.444   7.803   7.439  0.1078 -0.0260  0.2935
 1236loPI   C4A19442  14.478   7.836   7.909  0.0104  0.1679 -0.2569
 1236loPI   C5A19443  14.423   7.813   8.296  0.1826 -0.0592 -0.2055
 1236loPI   C6A19444  14.069   8.071   8.661 -0.0989  0.1939 -0.0083
 1236loPI   C1B19445  13.894   7.717   6.354 -0.0434 -0.0943 -0.1575
 1236loPI   C2B19446  13.985   7.604   6.754 -0.1962 -0.2020 -0.1649
 1236loPI   C3B19447  13.971   7.717   7.247  0.1399  0.0061 -0.0601
 1236loPI   C4B19448  13.987   7.598   7.648  0.3511 -0.1874  0.2257
 1237loPI    C119449  14.593  10.621   5.443 -0.0861 -0.1022  0.1464
 1237loPI    C219450  14.849  10.656   5.138 -0.1924  0.0131  0.0696
 1237loPI    C319451  14.466  10.565   5.068 -0.1999 -0.0378  0.1747
 1237loPI   PO419452  14.786  10.737   5.609 -0.0565 -0.1885 -0.1682
 1237loPI   GL119453  14.927  10.945   5.986 -0.0286  0.2237 -0.2067
 1237loPI   GL219454  14.672  10.752   6.133 -0.0320  0.1066 -0.1052
 1237loPI   C1A19455  15.131  10.788   6.284  0.0815  0.0063  0.3058
 1237loPI   C2A19456  15.125  10.895   6.633  0.2274  0.1498  0.0188
 1237loPI   C3A19457  15.151  10.792   6.984  0.1206 -0.2970 -0.0496
 1237loPI   C4A19458  15.102  10.931   7.384 -0.1005 -0.2122  0.0275
 1237loPI   C5A19459  15.010  10.862   7.803 -0.0300 -0.0257  0.0619
 1237loPI   C6A19460  14.875  10.738   8.214 -0.2930  0.1247  0.1969
 1237loPI   C1B19461  14.665  10.744   6.559 -0.0673 -0.3470 -0.1066
 1237loPI   C2B19462  14.549  10.718   6.959 -0.2667 -0.0900 -0.0677
 1237loPI   C3B19463  14.611  10.675   7.458  0.1004  0.0164  0.1005
 1237loPI   C4B19464  14.556  10.822   7.824  0.1178  0.0671  0.1048
 1238loPI    C119465  17.140  14.811   5.952  0.1654 -0.1463 -0.1271
 1238loPI    C219466  17.281  14.969   5.613  0.1767 -0.4551 -0.2696
 1238loPI    C319467  17.290  14.573   5.668 -0.1499 -0.4368 -0.0568
 1238loPI   PO419468  17.048  15.059   6.065 -0.1187  0.1059  0.0659
 1238loPI   GL119469  17.009  15.234   6.425  0.0349  0.2572  0.0216
 1238loPI   GL219470  17.236  15.032   6.551  0.0997  0.3792 -0.1272
 1238loPI   C1A19471  16.895  15.304   6.891  0.0310 -0.1228  0.0767
 1238loPI   C2A19472  17.032  15.369   7.281 -0.4527  0.0524  0.1593
 1238loPI   C3A19473  17.082  15.307   7.712  0.1378  0.0085 -0.2744
 1238loPI   C4A19474  17.070  15.125   8.100 -0.1896  0.2159 -0.3072
 1238loPI   C5A19475  17.163  14.873   8.454 -0.0246  0.0647  0.2649
 1238loPI   C6A19476  17.049  14.710   8.818  0.1783 -0.0288  0.0888
 1238loPI   C1B19477  17.322  15.064   6.955 -0.2245  0.0442  0.1492
 1238loPI   C2B19478  17.357  14.938   7.380  0.0069  0.1575  0.4502
 1238loPI   C3B19479  17.393  14.876   7.837  0.1873  0.3882 -0.1302
 1238loPI   C4B19480  17.597  14.724   8.236 -0.1059  0.0504  0.1621
 1239loPI    C119481   3.435   8.075   5.466 -0.0702 -0.1914  0.2385
 1239loPI    C219482   3.493   7.746   5.246  0.0255 -0.0130 -0.0084
 1239loPI    C319483   3.457   8.101   5.067  0.2577  0.1571  0.2739
 1239loPI   PO419484   3.388   7.945   5.706 -0.0858 -0.1348 -0.1924
 1239loPI   GL119485   3.480   8.094   6.101  0.3022 -0.2033  0.3254
 1239loPI   GL219486   3.409   8.328   6.385  0.1728  0.0931  0.0804
 1239loPI   C1A19487   3.739   7.962   6.379  0.3979  0.3412 -0.4373
 1239loPI   C2A19488   3.801   7.905   6.853 -0.0818  0.0186  0.0612
 1239loPI   C3A19489   3.833   7.861   7.283 -0.2321  0.2845 -0.0096
 1239loPI   C4A19490   3.881   7.885   7.721  0.3833  0.1393  0.1012
 1239loPI   C5A19491   3.792   7.868   8.093 -0.1260  0.2145 -0.0854
 1239loPI   C6A19492   3.550   8.045   8.506 -0.0403  0.0135 -0.1270
 1239loPI   C1B19493   3.435   8.247   6.802  0.1427 -0.3528  0.1750
 1239loPI   C2B19494   3.308   8.244   7.212 -0.1153  0.3372  0.1630
 1239loPI   C3B19495   3.362   8.220   7.624 -0.0869  0.1940 -0.2028
 1239loPI   C4B19496   3.448   8.186   8.053 -0.1975 -0.1628  0.0347
 1240loPI    C119497   0.361   6.719   5.600  0.1548 -0.0357 -0.0262
 1240loPI    C219498   0.283   6.350   5.464 -0.0766 -0.0028  0.0122
 1240loPI    C319499   0.646   6.511   5.410 -0.0770 -0.1028 -0.3087
 1240loPI   PO419500   0.337   6.715   5.817 -0.2826  0.1571 -0.0341
 1240loPI   GL119501   0.346   6.772   6.238  0.0444 -0.2013 -0.0841
 1240loPI   GL219502   0.246   7.014   6.313  0.1344  0.1104  0.1197
 1240loPI   C1A19503   0.441   6.584   6.624 -0.0072  0.0583  0.0424
 1240loPI   C2A19504   0.337   6.687   7.078  0.0912 -0.2945 -0.0134
 1240loPI   C3A19505   0.378   6.532   7.451  0.1136 -0.0348 -0.0454
 1240loPI   C4A19506   0.303   6.620   7.823 -0.3609  0.2853  0.3171
 1240loPI   C5A19507   0.065   6.718   8.231 -0.0086  0.0105 -0.0399
 1240loPI   C6A19508   0.095   7.109   8.467  0.0929  0.0135 -0.1397
 1240loPI   C1B19509   0.432   7.115   6.703 -0.0783  0.0850  0.0951
 1240loPI   C2B19510   0.460   7.164   7.123  0.2027  0.0641  0.1758
 1240loPI   C3B19511   0.359   7.095   7.569 -0.2038  0.1912  0.2259
 1240loPI   C4B19512   0.340   7.149   7.952  0.2438 -0.0973  0.1539
 1241loPI    C119513   2.684  10.517   5.673 -0.0983 -0.0415 -0.1355
 1241loPI    C219514   2.752  10.660   5.305 -0.0228  0.1645 -0.0434
 1241loPI    C319515   2.951  10.338   5.435 -0.1579  0.0010 -0.2349
 1241loPI   PO419516   2.722  10.712   5.878 -0.1431 -0.0730  0.0370
 1241loPI   GL119517   2.685  10.776   6.303  0.1875 -0.0413 -0.3496
 1241loPI   GL219518   2.998  10.854   6.339  0.0060 -0.0196  0.0560
 1241loPI   C1A19519   2.535  10.665   6.737 -0.1059  0.0105 -0.2899
 1241loPI   C2A19520   2.391  10.798   7.181 -0.0091  0.1456 -0.0779
 1241loPI   C3A19521   2.428  10.708   7.566  0.1957  0.2114 -0.1209
 1241loPI   C4A19522   2.585  10.800   7.993 -0.1521 -0.2817 -0.1258
 1241loPI   C5A19523   2.494  10.790   8.433  0.2848  0.1012  0.0521
 1241loPI   C6A19524   2.339  10.453   8.703  0.1842  0.0552 -0.1491
 1241loPI   C1B19525   2.985  10.866   6.752 -0.0899  0.1060 -0.2156
 1241loPI   C2B19526   2.945  10.839   7.158  0.0399  0.1845 -0.4151
 1241loPI   C3B19527   2.993  10.911   7.612 -0.2385 -0.0356 -0.0532
 1241loPI   C4B19528   3.118  10.981   8.056  0.0791  0.0267  0.1405
 1242loPI    C119529   9.497   6.482   5.596 -0.2645 -0.0997 -0.3074
 1242loPI    C219530   9.887   6.467   5.509 -0.1589 -0.0598  0.1344
 1242loPI    C319531   9.630   6.629   5.248  0.1182 -0.0770 -0.1566
 1242loPI   PO419532   9.516   6.552   5.859 -0.1127  0.2759  0.0414
 1242loPI   GL119533   9.709   6.315   6.128 -0.0172  0.0007  0.2983
 1242loPI   GL219534  10.014   6.133   5.985 -0.0761  0.0476  0.0206
 1242loPI   C1A19535   9.539   6.507   6.517  0.0151 -0.2011 -0.3593
 1242loPI   C2A19536   9.591   6.496   6.828  0.0206  0.2948  0.1187
 1242loPI   C3A19537   9.681   6.512   7.174  0.0072 -0.1005  0.1276
 1242loPI   C4A19538   9.598   6.498   7.608 -0.3160 -0.4412 -0.0288
 1242loPI   C5A19539   9.718   6.464   8.016  0.1027 -0.0272  0.0325
 1242loPI   C6A19540   9.749   6.062   8.275  0.0391  0.2215 -0.0600
 1242loPI   C1B19541  10.039   6.118   6.515 -0.0537 -0.0891 -0.0357
 1242loPI   C2B19542  10.058   6.197   6.977 -0.1841 -0.0232 -0.1951
 1242loPI   C3B19543  10.048   6.169   7.399  0.0090  0.0459 -0.0979
 1242loPI   C4B19544  10.042   6.120   7.853 -0.1052  0.0788 -0.1044
 1243loPI    C119545   5.057   3.879   5.594 -0.0517 -0.0528  0.1593
 1243loPI    C219546   5.275   4.145   5.389 -0.0692 -0.0597  0.1318
 1243loPI    C319547   5.370   3.756   5.378 -0.1779 -0.0832 -0.0087
 1243loPI   PO419548   5.046   3.857   5.807 -0.0939  0.1463  0.2543
 1243loPI   GL119549   5.232   3.903   6.129 -0.2584 -0.2960 -0.3388
 1243loPI   GL219550   5.397   3.670   6.372  0.1528 -0.0524 -0.0469
 1243loPI   C1A19551   5.011   4.077   6.501  0.1560  0.0982 -0.1779
 1243loPI   C2A19552   5.067   4.002   6.996  0.1653  0.1348  0.0173
 1243loPI   C3A19553   5.021   3.975   7.388  0.0401  0.2585  0.0560
 1243loPI   C4A19554   4.976   3.972   7.871  0.0345 -0.0033  0.2706
 1243loPI   C5A19555   4.838   3.804   8.263  0.1705 -0.0921  0.1112
 1243loPI   C6A19556   4.547   3.505   8.379  0.1529 -0.1323 -0.2984
 1243loPI   C1B19557   5.437   3.603   6.852 -0.0746 -0.1089 -0.1391
 1243loPI   C2B19558   5.441   3.678   7.301  0.3874 -0.0051 -0.1251
 1243loPI   C3B19559   5.371   3.679   7.786  0.1912 -0.1729  0.1886
 1243loPI   C4B19560   5.342   3.653   8.195 -0.1856  0.1927 -0.0667
 1244loPI    C119561   9.156   6.087   5.606 -0.0272 -0.0399  0.1491
 1244loPI    C219562   8.923   5.798   5.458 -0.0481  0.0378  0.0289
 1244loPI    C319563   8.783   6.170   5.491  0.0125  0.0556  0.0885
 1244loPI   PO419564   9.186   6.078   5.809 -0.2165 -0.0558 -0.1113
 1244loPI   GL119565   9.194   6.299   6.109 -0.0504  0.2565 -0.0961
 1244loPI   GL219566   9.076   6.460   6.243 -0.1493  0.4301  0.1487
 1244loPI   C1A19567   9.016   5.928   6.434 -0.0406  0.0380 -0.1253
 1244loPI   C2A19568   9.001   5.856   6.864 -0.2483 -0.2385  0.0491
 1244loPI   C3A19569   9.056   5.822   7.257 -0.1090  0.4069  0.2384
 1244loPI   C4A19570   8.891   5.827   7.732 -0.1470 -0.0164 -0.1104
 1244loPI   C5A19571   8.810   5.788   8.209 -0.0211  0.0356 -0.0906
 1244loPI   C6A19572   8.485   5.590   8.452 -0.0837  0.0805 -0.0169
 1244loPI   C1B19573   9.116   6.333   6.700  0.0174  0.1546  0.0795
 1244loPI   C2B19574   9.190   6.333   7.153  0.0234 -0.0043 -0.3686
 1244loPI   C3B19575   8.971   6.303   7.565 -0.1204  0.4192 -0.0523
 1244loPI   C4B19576   9.000   6.211   7.993 -0.1735  0.0263  0.0948
 1245loPI    C119577   4.515   4.149   5.692  0.0302 -0.0957 -0.1329
 1245loPI    C219578   4.536   3.967   5.336 -0.1524 -0.1923 -0.0956
 1245loPI    C319579   4.204   3.937   5.557 -0.0392 -0.1353  0.0850
 1245loPI   PO419580   4.703   4.322   5.700 -0.2980  0.2192  0.2596
 1245loPI   GL119581   4.823   4.563   6.051 -0.2055 -0.1070 -0.0155
 1245loPI   GL219582   4.854   4.742   6.297  0.0901 -0.0482 -0.1931
 1245loPI   C1A19583   4.535   4.383   6.418 -0.2461 -0.1705  0.3041
 1245loPI   C2A19584   4.545   4.392   6.864  0.2036 -0.2416 -0.1001
 1245loPI   C3A19585   4.591   4.413   7.356 -0.0523  0.1185  0.0182
 1245loPI   C4A19586   4.592   4.300   7.738  0.0103  0.0470  0.4227
 1245loPI   C5A19587   4.808   4.389   8.226  0.0457  0.5105 -0.0627
 1245loPI   C6A19588   4.772   4.446   8.653  0.3169  0.2854  0.0927
 1245loPI   C1B19589   4.679   4.870   6.627 -0.0120  0.1267 -0.2263
 1245loPI   C2B19590   4.551   4.862   6.983  0.0657  0.0044 -0.0511
 1245loPI   C3B19591   4.718   4.894   7.375  0.0592 -0.0167 -0.0589
 1245loPI   C4B19592   4.658   4.760   7.881  0.0867  0.1815  0.1982
 1246loPI    C119593   0.690  14.259   5.222  0.0068  0.0249 -0.2106
 1246loPI    C219594   0.319  14.264   5.073 -0.1975 -0.0555  0.2773
 1246loPI    C319595   0.568  14.568   5.000 -0.4189  0.0846  0.0944
 1246loPI   PO419596   0.604  14.154   5.461 -0.0195 -0.0635 -0.2073
 1246loPI   GL119597   0.629  13.913   5.859  0.3383  0.0737 -0.0396
 1246loPI   GL219598   0.911  13.856   6.003  0.3141  0.3546  0.0317
 1246loPI   C1A19599   0.390  13.706   6.183  0.0760  0.1252  0.1809
 1246loPI   C2A19600   0.383  13.818   6.688 -0.0984  0.1379  0.2818
 1246loPI   C3A19601   0.384  13.801   7.152  0.0935 -0.1632 -0.1053
 1246loPI   C4A19602   0.431  13.710   7.546  0.3423  0.0959  0.1585
 1246loPI   C5A19603   0.456  13.846   7.959  0.0526 -0.0975  0.0356
 1246loPI   C6A19604   0.723  13.723   8.250  0.0003 -0.2068 -0.1170
 1246loPI   C1B19605   0.872  13.988   6.502 -0.0520 -0.0694 -0.0632
 1246loPI   C2B19606   0.817  13.998   6.908 -0.1004  0.1709 -0.1151
 1246loPI   C3B19607   0.869  14.081   7.333 -0.3897  0.0430 -0.1406
 1246loPI   C4B19608   0.869  14.015   7.759  0.0183 -0.0260  0.2573
 1247loPI    C119609  16.587  17.638   5.493 -0.1860 -0.0779  0.0540
 1247loPI    C219610  16.836  17.867   5.279 -0.5460  0.2922  0.0194
 1247loPI    C319611  16.549  17.658   5.095 -0.2445 -0.1685  0.0547
 1247loPI   PO419612  16.690  17.636   5.809  0.0522  0.1176  0.3547
 1247loPI   GL119613  16.437  17.818   6.168 -0.1028  0.2566  0.0392
 1247loPI   GL219614  16.323  18.052   6.300  0.1669 -0.0681 -0.1914
 1247loPI   C1A19615  16.441  17.623   6.509 -0.2656 -0.0191 -0.2299
 1247loPI   C2A19616  16.400  17.603   6.814 -0.0055  0.1554  0.1373
 1247loPI   C3A19617  16.470  17.560   7.202 -0.0291  0.2009 -0.2359
 1247loPI   C4A19618  16.449  17.572   7.691  0.2532 -0.1949  0.2934
 1247loPI   C5A19619  16.565  17.622   8.145 -0.1720  0.2398 -0.0138
 1247loPI   C6A19620  16.660  17.983   8.416 -0.0287  0.1862 -0.2645
 1247loPI   C1B19621  16.498  18.143   6.681  0.2082 -0.0791 -0.0440
 1247loPI   C2B19622  16.545  18.063   7.075 -0.0165  0.0527  0.1485
 1247loPI   C3B19623  16.550  18.010   7.499 -0.0093  0.1197 -0.1013
 1247loPI   C4B19624  16.600  18.077   7.925  0.0680 -0.5316  0.1106
 1248loPI    C119625   7.111   8.739   5.614 -0.1202  0.0033 -0.2412
 1248loPI    C219626   6.989   8.548   5.284 -0.2469 -0.0739 -0.1508
 1248loPI    C319627   7.139   8.918   5.257 -0.2938 -0.0645 -0.2900
 1248loPI   PO419628   7.271   8.579   5.796 -0.0854  0.0850 -0.2914
 1248loPI   GL119629   7.176   8.357   6.137 -0.1500  0.4983 -0.3958
 1248loPI   GL219630   7.381   8.055   6.207 -0.2286 -0.4127 -0.0732
 1248loPI   C1A19631   7.148   8.585   6.524 -0.0452  0.0518 -0.0557
 1248loPI   C2A19632   7.210   8.571   7.003  0.0292 -0.1845  0.1107
 1248loPI   C3A19633   7.181   8.518   7.436  0.3250 -0.2320  0.0328
 1248loPI   C4A19634   7.151   8.468   7.870  0.0646  0.1857 -0.0114
 1248loPI   C5A19635   7.368   8.475   8.276  0.2543 -0.1521  0.2799
 1248loPI   C6A19636   7.706   8.733   8.429  0.0612  0.1831 -0.0860
 1248loPI   C1B19637   7.410   7.785   6.588 -0.1018  0.0632 -0.0965
 1248loPI   C2B19638   7.500   7.732   6.979  0.1367  0.2147 -0.0164
 1248loPI   C3B19639   7.524   7.687   7.434 -0.1293  0.2110  0.2057
 1248loPI   C4B19640   7.585   7.665   7.821 -0.0741  0.1923  0.0255
 1249loPI    C119641   2.435   5.946   5.553  0.0401  0.0614  0.2323
 1249loPI    C219642   2.179   5.640   5.515  0.0438  0.1048 -0.1972
 1249loPI    C319643   2.468   5.695   5.243  0.0958  0.4426 -0.0795
 1249loPI   PO419644   2.395   5.999   5.811 -0.1905  0.0645  0.1199
 1249loPI   GL119645   2.600   5.860   6.175 -0.1687  0.0466 -0.2762
 1249loPI   GL219646   2.887   5.796   6.343  0.1516 -0.0582  0.0877
 1249loPI   C1A19647   2.547   6.025   6.599  0.0886  0.1632 -0.2821
 1249loPI   C2A19648   2.606   5.955   7.138  0.0970 -0.0014 -0.0131
 1249loPI   C3A19649   2.556   5.957   7.486 -0.1003  0.2510  0.0125
 1249loPI   C4A19650   2.579   6.040   7.809  0.0185  0.1949 -0.3114
 1249loPI   C5A19651   2.663   6.021   8.240 -0.2686  0.0155  0.1571
 1249loPI   C6A19652   2.962   5.795   8.512  0.1212  0.0201 -0.0171
 1249loPI   C1B19653   2.924   5.745   6.809  0.0531  0.1020  0.1846
 1249loPI   C2B19654   2.920   5.580   7.213 -0.2013 -0.0511 -0.0118
 1249loPI   C3B19655   2.961   5.615   7.588  0.2270 -0.2354 -0.1166
 1249loPI   C4B19656   2.972   5.733   7.928  0.2099 -0.1785 -0.3206
 1250loPI    C119657   7.799   8.803   5.463  0.1354 -0.0398  0.1846
 1250loPI    C219658   7.563   8.496   5.360  0.0389  0.0443  0.1533
 1250loPI    C319659   7.939   8.429   5.481  0.0253 -0.0842  0.1252
 1250loPI   PO419660   7.565   8.985   5.624  0.1079  0.1531 -0.0430
 1250loPI   GL119661   7.348   8.991   6.035  0.0470 -0.3245 -0.0937
 1250loPI   GL219662   7.526   8.808   6.240 -0.1046 -0.2611  0.0599
 1250loPI   C1A19663   7.187   9.107   6.400  0.1225 -0.1361  0.2141
 1250loPI   C2A19664   7.280   9.093   6.778  0.0787  0.1730 -0.1659
 1250loPI   C3A19665   7.272   9.052   7.250 -0.1852  0.2390  0.2444
 1250loPI   C4A19666   7.244   8.945   7.716 -0.0628  0.0509  0.3060
 1250loPI   C5A19667   7.348   8.949   8.066 -0.0794  0.0629 -0.2002
 1250loPI   C6A19668   7.337   9.195   8.417 -0.0812 -0.0818  0.0019
 1250loPI   C1B19669   7.670   8.745   6.690 -0.2467 -0.1865  0.1210
 1250loPI   C2B19670   7.691   8.704   7.073  0.0427  0.0133 -0.1108
 1250loPI   C3B19671   7.635   8.682   7.489 -0.5393 -0.0117  0.1763
 1250loPI   C4B19672   7.777   8.692   7.938 -0.0650  0.0121 -0.0646
 1251loPI    C119673   2.931  12.990   5.788 -0.2706  0.2180  0.0118
 1251loPI    C219674   2.962  13.266   5.501 -0.1983  0.1545 -0.0417
 1251loPI    C319675   2.763  13.349   5.837  0.0653  0.3711  0.0643
 1251loPI   PO419676   3.255  12.886   5.735 -0.0602  0.1033 -0.1051
 1251loPI   GL119677   3.413  12.930   6.085 -0.2092  0.0312 -0.2485
 1251loPI   GL219678   3.697  12.956   5.958  0.2123 -0.1912  0.2777
 1251loPI   C1A19679   3.325  12.976   6.491 -0.1110  0.1025 -0.1330
 1251loPI   C2A19680   3.420  12.950   6.946 -0.0476 -0.2497  0.0165
 1251loPI   C3A19681   3.368  12.987   7.438  0.2218 -0.0189 -0.0404
 1251loPI   C4A19682   3.206  12.954   7.882  0.1043  0.1963 -0.1754
 1251loPI   C5A19683   3.044  12.698   8.256  0.1176 -0.1731  0.1117
 1251loPI   C6A19684   2.718  12.699   8.538 -0.1616  0.1532  0.0947
 1251loPI   C1B19685   3.752  12.796   6.411 -0.0321 -0.2198  0.0323
 1251loPI   C2B19686   3.786  12.622   6.832  0.0027  0.2512 -0.0386
 1251loPI   C3B19687   3.801  12.710   7.274 -0.0828  0.1273 -0.0501
 1251loPI   C4B19688   3.820  12.577   7.690  0.0425 -0.0439  0.0158
 1252loPI    C119689   5.659   5.203   5.962  0.0096 -0.0196  0.1992
 1252loPI    C219690   5.584   5.192   5.569 -0.0604 -0.0947  0.2146
 1252loPI    C319691   5.817   5.480   5.719 -0.2569  0.0977  0.1559
 1252loPI   PO419692   5.721   5.001   6.028  0.0701  0.1117 -0.2784
 1252loPI   GL119693   5.863   4.632   6.242  0.1061 -0.0233 -0.2294
 1252loPI   GL219694   6.058   4.758   6.381 -0.0631 -0.1475 -0.2731
 1252loPI   C1A19695   5.677   4.669   6.676  0.2460  0.1612 -0.0819
 1252loPI   C2A19696   5.599   4.636   7.240 -0.0782  0.1212  0.0326
 1252loPI   C3A19697   5.548   4.648   7.710 -0.0069  0.0959  0.2473
 1252loPI   C4A19698   5.480   4.691   8.090 -0.0021 -0.0467 -0.0158
 1252loPI   C5A19699   5.754   4.653   8.429 -0.0841  0.0811  0.2126
 1252loPI   C6A19700   5.817   4.274   8.542  0.0255 -0.0688  0.0216
 1252loPI   C1B19701   6.115   4.872   6.769 -0.0707  0.2058  0.0436
 1252loPI   C2B19702   6.026   4.796   7.118  0.1281  0.0507  0.0708
 1252loPI   C3B19703   5.996   4.837   7.572 -0.4237 -0.0499  0.0079
 1252loPI   C4B19704   6.068   4.826   8.042 -0.0451  0.2227 -0.1041
 1253loPI    C119705   1.082   3.643   5.888 -0.3581  0.0155 -0.3012
 1253loPI    C219706   1.154   3.843   5.549  0.1997  0.2267 -0.0708
 1253loPI    C319707   1.325   3.487   5.611 -0.0001  0.1314 -0.0605
 1253loPI   PO419708   1.110   3.764   6.122  0.1498  0.2768  0.0171
 1253loPI   GL119709   1.018   3.561   6.532  0.0517  0.3029  0.1624
 1253loPI   GL219710   1.335   3.651   6.509 -0.1593  0.0358 -0.0540
 1253loPI   C1A19711   0.903   3.419   6.948 -0.1918  0.1653 -0.0348
 1253loPI   C2A19712   0.869   3.513   7.444 -0.1057  0.1570  0.2235
 1253loPI   C3A19713   0.846   3.424   7.955 -0.1446  0.0171  0.3811
 1253loPI   C4A19714   0.814   3.430   8.504 -0.0720  0.1154  0.2393
 1253loPI   C5A19715   0.634   3.239   8.770  0.1600 -0.1330 -0.1955
 1253loPI   C6A19716   0.445   2.942   9.055  0.0216  0.0611 -0.0795
 1253loPI   C1B19717   1.358   3.570   6.930 -0.0042  0.2540  0.1758
 1253loPI   C2B19718   1.435   3.570   7.324  0.3561 -0.1343  0.3054
 1253loPI   C3B19719   1.361   3.544   7.735 -0.0352  0.0676 -0.0364
 1253loPI   C4B19720   1.337   3.484   8.172 -0.0163  0.1509  0.1117
 1254loPI    C119721   5.869   3.659   5.476 -0.3194 -0.0312 -0.0199
 1254loPI    C219722   5.859   3.460   5.129  0.0356 -0.1434  0.0297
 1254loPI    C319723   6.128   3.751   5.186 -0.0723 -0.0721  0.1833
 1254loPI   PO419724   5.900   3.527   5.638  0.2591  0.0785 -0.2208
 1254loPI   GL119725   5.844   3.650   6.136  0.0536 -0.0459 -0.0960
 1254loPI   GL219726   5.710   3.201   6.230 -0.2728  0.1156 -0.0697
 1254loPI   C1A19727   5.826   3.784   6.542 -0.1190 -0.1218 -0.1493
 1254loPI   C2A19728   5.873   3.766   7.033 -0.2368 -0.1879 -0.1472
 1254loPI   C3A19729   5.938   3.800   7.471  0.0936 -0.0778 -0.0319
 1254loPI   C4A19730   5.772   3.926   7.893  0.2178  0.0789 -0.1411
 1254loPI   C5A19731   5.808   3.790   8.274 -0.0993  0.1305 -0.1973
 1254loPI   C6A19732   5.736   3.486   8.509  0.0655  0.2267  0.1038
 1254loPI   C1B19733   5.773   3.215   6.762  0.0625 -0.0389 -0.0163
 1254loPI   C2B19734   5.777   3.290   7.138 -0.1444  0.2668  0.0141
 1254loPI   C3B19735   5.864   3.275   7.497  0.3490 -0.4172 -0.0177
 1254loPI   C4B19736   5.766   3.356   7.927 -0.1452  0.1189 -0.4648
 1255loPI    C119737  11.558   2.219   5.866  0.0401  0.1546 -0.0541
 1255loPI    C219738  11.908   2.343   5.718 -0.0283  0.1700 -0.2058
 1255loPI    C319739  11.673   2.104   5.501 -0.0627  0.0700 -0.0602
 1255loPI   PO419740  11.432   2.381   5.936  0.1257  0.1109  0.0281
 1255loPI   GL119741  11.362   2.469   6.317  0.0955 -0.1252 -0.2528
 1255loPI   GL219742  11.583   2.673   6.543  0.1050 -0.1494  0.1673
 1255loPI   C1A19743  11.045   2.366   6.691 -0.0306 -0.1108  0.0160
 1255loPI   C2A19744  11.012   2.406   7.059  0.2109 -0.1559 -0.3640
 1255loPI   C3A19745  11.122   2.472   7.524 -0.1529 -0.1074 -0.1990
 1255loPI   C4A19746  11.083   2.358   7.911  0.0597 -0.0125 -0.0900
 1255loPI   C5A19747  11.195   2.051   8.157  0.1688 -0.1555 -0.1773
 1255loPI   C6A19748  11.553   1.921   8.334  0.0532 -0.0988 -0.3122
 1255loPI   C1B19749  11.647   2.594   6.873  0.4161 -0.1087  0.0288
 1255loPI   C2B19750  11.643   2.494   7.299 -0.1064  0.0544 -0.4161
 1255loPI   C3B19751  11.571   2.498   7.699  0.2094  0.2368 -0.1053
 1255loPI   C4B19752  11.557   2.373   8.157  0.2075  0.1262  0.0761
 1256loPI    C119753   2.749  16.888   5.469  0.1443  0.0533  0.0172
 1256loPI    C219754   2.559  16.642   5.217  0.0993  0.1424 -0.0363
 1256loPI    C319755   2.665  17.009   5.097 -0.0711  0.2465  0.1260
 1256loPI   PO419756   2.548  16.738   5.749 -0.1491  0.0388  0.0925
 1256loPI   GL119757   2.722  16.604   6.232 -0.0684 -0.1480  0.0571
 1256loPI   GL219758   2.415  16.557   6.236 -0.0951  0.0169 -0.0784
 1256loPI   C1A19759   2.643  16.568   6.704 -0.2410 -0.3353 -0.2680
 1256loPI   C2A19760   2.756  16.489   7.088 -0.3590 -0.0801 -0.1224
 1256loPI   C3A19761   2.690  16.518   7.488 -0.3647 -0.1877 -0.2813
 1256loPI   C4A19762   2.735  16.479   7.932  0.1575 -0.1753  0.3094
 1256loPI   C5A19763   2.697  16.390   8.383 -0.1811 -0.2486 -0.1343
 1256loPI   C6A19764   2.606  16.331   8.778  0.2485 -0.0095 -0.4420
 1256loPI   C1B19765   2.152  16.438   6.591  0.0549 -0.1050  0.0099
 1256loPI   C2B19766   2.271  16.396   7.018  0.0763 -0.0023 -0.2319
 1256loPI   C3B19767   2.170  16.335   7.473 -0.2086 -0.0551 -0.0483
 1256loPI   C4B19768   2.218  16.362   7.914 -0.0004 -0.1726 -0.1722
 1257loPI    C119769   1.475   8.103   5.456 -0.0091  0.1507 -0.1657
 1257loPI    C219770   1.678   7.846   5.226  0.0861 -0.0317  0.1164
 1257loPI    C319771   1.331   7.735   5.392  0.0108  0.1035  0.0509
 1257loPI   PO419772   1.567   8.224   5.642 -0.1624 -0.0509 -0.0188
 1257loPI   GL119773   1.721   8.070   6.136  0.0961  0.0402  0.2149
 1257loPI   GL219774   1.750   8.418   6.257  0.2243 -0.2608 -0.0143
 1257loPI   C1A19775   1.540   8.047   6.498  0.2388  0.1252  0.0857
 1257loPI   C2A19776   1.527   8.080   6.979  0.1414  0.0792 -0.0811
 1257loPI   C3A19777   1.513   8.003   7.366  0.0783  0.1205  0.1686
 1257loPI   C4A19778   1.566   7.880   7.783  0.3044  0.0066  0.0677
 1257loPI   C5A19779   1.559   8.133   8.132  0.1670  0.0380  0.2192
 1257loPI   C6A19780   1.654   8.516   8.294 -0.0433 -0.2975  0.0729
 1257loPI   C1B19781   1.639   8.545   6.636 -0.0726 -0.2832  0.2150
 1257loPI   C2B19782   1.615   8.573   7.021 -0.1437  0.1007 -0.1136
 1257loPI   C3B19783   1.627   8.512   7.466  0.2375  0.0117 -0.0168
 1257loPI   C4B19784   1.600   8.487   7.774  0.0843 -0.0597 -0.3375
 1258loPI    C119785  11.755   5.317   5.439 -0.0455 -0.3573 -0.1229
 1258loPI    C219786  11.917   5.529   5.141 -0.1141  0.0374  0.1130
 1258loPI    C319787  11.601   5.294   5.071 -0.0229 -0.0081 -0.1575
 1258loPI   PO419788  11.718   5.412   5.727  0.1750 -0.0451  0.3221
 1258loPI   GL119789  11.679   5.350   6.199  0.3199 -0.4169 -0.1936
 1258loPI   GL219790  11.928   5.426   6.311  0.1667 -0.3036  0.1222
 1258loPI   C1A19791  11.343   5.613   6.466  0.2513 -0.0875  0.1690
 1258loPI   C2A19792  11.325   5.710   6.892  0.0766 -0.0897 -0.0434
 1258loPI   C3A19793  11.250   5.678   7.338  0.0936  0.1858 -0.3099
 1258loPI   C4A19794  11.246   5.673   7.827  0.1578 -0.2352 -0.2537
 1258loPI   C5A19795  11.438   5.656   8.244  0.0706  0.3263 -0.2662
 1258loPI   C6A19796  11.441   5.327   8.556 -0.1563  0.0526  0.1260
 1258loPI   C1B19797  11.696   5.405   6.759  0.1032  0.1334 -0.0743
 1258loPI   C2B19798  11.635   5.396   7.177  0.0654 -0.0808  0.2747
 1258loPI   C3B19799  11.629   5.327   7.617 -0.3076 -0.1334  0.1152
 1258loPI   C4B19800  11.750   5.347   8.037 -0.0042 -0.2133  0.1642
 1259loPI    C119801   0.406   4.932   5.729  0.0454 -0.2255 -0.0185
 1259loPI    C219802   0.484   5.232   5.476 -0.0589  0.0320  0.2475
 1259loPI    C319803   0.259   4.923   5.358 -0.1186  0.1560  0.0324
 1259loPI   PO419804   0.399   5.077   5.981 -0.2045 -0.1606  0.0479
 1259loPI   GL119805   0.691   5.284   6.303  0.1141  0.0076  0.1570
 1259loPI   GL219806   0.430   5.514   6.394  0.0425  0.0713  0.0244
 1259loPI   C1A19807   0.727   5.228   6.726 -0.1648 -0.3506 -0.0625
 1259loPI   C2A19808   0.732   5.296   7.203  0.0503  0.0878 -0.0549
 1259loPI   C3A19809   0.661   5.279   7.666 -0.0848  0.0710  0.0736
 1259loPI   C4A19810   0.731   5.399   8.067  0.1440 -0.0696 -0.2087
 1259loPI   C5A19811   0.614   5.461   8.509 -0.3054 -0.1082 -0.1410
 1259loPI   C6A19812   0.847   5.578   8.804 -0.2049 -0.3914  0.2239
 1259loPI   C1B19813   0.353   5.547   6.855  0.1854  0.0448 -0.1075
 1259loPI   C2B19814   0.293   5.633   7.257 -0.0312  0.1798 -0.0615
 1259loPI   C3B19815   0.320   5.602   7.675 -0.2925 -0.0987  0.3882
 1259loPI   C4B19816   0.294   5.648   8.140 -0.1523 -0.0700 -0.0904
 1260loPI    C119817  12.909  12.440   6.086  0.0399  0.0045 -0.1232
 1260loPI    C219818  12.530  12.547   6.152 -0.0034 -0.2861  0.1219
 1260loPI    C319819  12.616  12.282   5.865  0.0604  0.0792 -0.2041
 1260loPI   PO419820  12.988  12.443   6.350  0.2630 -0.1262  0.1122
 1260loPI   GL119821  12.881  12.347   6.761 -0.0659  0.0406 -0.0805
 1260loPI   GL219822  12.562  12.324   6.803  0.0829  0.2963  0.2866
 1260loPI   C1A19823  12.959  11.917   6.933 -0.2182  0.3451  0.1669
 1260loPI   C2A19824  12.896  11.597   7.261 -0.1547  0.0685 -0.0463
 1260loPI   C3A19825  12.803  11.100   7.333  0.1782 -0.3599 -0.0593
 1260loPI   C4A19826  12.868  11.003   7.692 -0.0613 -0.1251 -0.2497
 1260loPI   C5A19827  13.145  11.030   7.983 -0.0863  0.1721  0.3028
 1260loPI   C6A19828  13.458  11.197   8.344  0.0415 -0.3562 -0.1754
 1260loPI   C1B19829  12.603  12.352   7.212  0.0063  0.1702  0.1714
 1260loPI   C2B19830  12.630  12.323   7.532 -0.1644  0.2150  0.0247
 1260loPI   C3B19831  12.664  12.273   7.944  0.0888  0.1848  0.2072
 1260loPI   C4B19832  12.786  12.222   8.427 -0.0721 -0.2354 -0.4909
 1261loPI    C119833   8.960   2.737   5.734  0.1436  0.2510  0.2044
 1261loPI    C219834   8.658   2.872   5.510  0.0334 -0.2024  0.0716
 1261loPI    C319835   9.030   2.872   5.364  0.0641  0.1226  0.1422
 1261loPI   PO419836   8.890   2.905   6.013 -0.1905 -0.1468  0.1034
 1261loPI   GL119837   8.911   3.147   6.249 -0.2511  0.0480 -0.1401
 1261loPI   GL219838   8.697   3.329   6.236 -0.3431 -0.1937 -0.1535
 1261loPI   C1A19839   8.990   2.978   6.621 -0.0690 -0.1614  0.1266
 1261loPI   C2A19840   8.920   3.017   7.006 -0.1883  0.1794 -0.1839
 1261loPI   C3A19841   8.947   3.059   7.450  0.0925  0.0106 -0.1460
 1261loPI   C4A19842   8.910   3.022   7.798  0.1429 -0.0917 -0.1561
 1261loPI   C5A19843   8.970   3.263   8.169  0.1778 -0.3229 -0.0995
 1261loPI   C6A19844   9.048   3.241   8.650  0.0999  0.2184 -0.1324
 1261loPI   C1B19845   8.580   3.316   6.660 -0.2136  0.0772 -0.0774
 1261loPI   C2B19846   8.516   3.343   7.104  0.0681  0.1003 -0.2467
 1261loPI   C3B19847   8.514   3.389   7.534 -0.2162 -0.3121 -0.1260
 1261loPI   C4B19848   8.466   3.305   7.962 -0.1007 -0.0026  0.1310
 1262loPI    C119849  17.348  15.465   5.412 -0.1610  0.1151 -0.1879
 1262loPI    C219850  17.563  15.196   5.207  0.0951  0.2115 -0.0500
 1262loPI    C319851  17.428  15.526   5.025  0.0489  0.1421 -0.1415
 1262loPI   PO419852  17.517  15.573   5.670  0.1200 -0.0471  0.2311
 1262loPI   GL119853  17.674  15.743   6.130 -0.0277 -0.0726 -0.0371
 1262loPI   GL219854  17.581  15.966   6.336  0.1388 -0.0385 -0.1270
 1262loPI   C1A19855  17.926  15.696   6.508 -0.2617  0.0714  0.3397
 1262loPI   C2A19856  17.939  15.712   6.881  0.0146 -0.0017 -0.0989
 1262loPI   C3A19857  17.935  15.724   7.368 -0.0664 -0.0359  0.3119
 1262loPI   C4A19858  17.953  15.689   7.776  0.2569  0.0294  0.3926
 1262loPI   C5A19859  17.993  15.541   8.228 -0.0912 -0.2173  0.2453
 1262loPI   C6A19860  17.995  15.641   8.564 -0.2573 -0.0117  0.0560
 1262loPI   C1B19861  17.548  16.032   6.778  0.0871 -0.0515  0.2447
 1262loPI   C2B19862  17.587  16.097   7.224  0.1699  0.0743  0.2110
 1262loPI   C3B19863  17.562  16.084   7.612 -0.1240  0.0443 -0.1220
 1262loPI   C4B19864  17.577  16.037   8.057  0.2304 -0.1230  0.4365
 1263loPI    C119865   6.405   1.249   5.495  0.0467 -0.0942 -0.0421
 1263loPI    C219866   6.458   1.539   5.224  0.1779 -0.1490 -0.0762
 1263loPI    C319867   6.137   1.300   5.203 -0.0415  0.1259  0.0746
 1263loPI   PO419868   6.453   1.443   5.719  0.0339 -0.1256 -0.0834
 1263loPI   GL119869   6.332   1.361   6.274  0.0005 -0.0708  0.0862
 1263loPI   GL219870   6.336   1.625   6.517 -0.0290 -0.0203 -0.0108
 1263loPI   C1A19871   6.316   1.162   6.679 -0.1446 -0.0147  0.0343
 1263loPI   C2A19872   6.286   1.117   7.014 -0.0893  0.5056 -0.1535
 1263loPI   C3A19873   6.265   1.074   7.413 -0.3067  0.6504  0.1517
 1263loPI   C4A19874   6.331   1.126   7.857  0.1707 -0.2449 -0.0486
 1263loPI   C5A19875   6.457   1.103   8.326  0.1300  0.1219  0.0414
 1263loPI   C6A19876   6.726   0.797   8.416  0.1318 -0.0392  0.2091
 1263loPI   C1B19877   6.349   1.609   6.966 -0.2825  0.0640 -0.1658
 1263loPI   C2B19878   6.336   1.606   7.417 -0.2571  0.0316  0.0820
 1263loPI   C3B19879   6.421   1.628   7.764 -0.1635 -0.1868 -0.2140
 1263loPI   C4B19880   6.460   1.614   8.120  0.1623  0.0439  0.0495
 1264loPI    C119881   6.546   9.419   5.554  0.0181 -0.1967 -0.0052
 1264loPI    C219882   6.478   9.762   5.749 -0.1552 -0.1257 -0.1860
 1264loPI    C319883   6.571   9.768   5.360  0.2626 -0.2614 -0.0936
 1264loPI   PO419884   6.596   9.276   5.754  0.4662  0.0320  0.0986
 1264loPI   GL119885   6.461   9.117   6.063  0.0323 -0.0486 -0.2254
 1264loPI   GL219886   6.441   9.354   6.276 -0.0874  0.3334 -0.0144
 1264loPI   C1A19887   6.740   8.916   6.461 -0.0515  0.1585 -0.3624
 1264loPI   C2A19888   6.766   8.911   6.944  0.1061  0.4169 -0.2824
 1264loPI   C3A19889   6.831   8.831   7.366 -0.0561  0.2279  0.3541
 1264loPI   C4A19890   6.763   8.825   7.840  0.0742  0.0610  0.4608
 1264loPI   C5A19891   6.905   8.795   8.275  0.1930  0.0531  0.1242
 1264loPI   C6A19892   6.941   9.003   8.650  0.0684  0.1501 -0.0445
 1264loPI   C1B19893   6.392   9.264   6.676 -0.1928  0.2048 -0.3403
 1264loPI   C2B19894   6.367   9.236   7.061  0.0442 -0.0760  0.0614
 1264loPI   C3B19895   6.309   9.241   7.524 -0.2498 -0.0571  0.1246
 1264loPI   C4B19896   6.379   9.196   7.981  0.0667 -0.2034 -0.0684
 1265loPI    C119897   4.594  14.497   5.294 -0.0109 -0.0292  0.1131
 1265loPI    C219898   4.321  14.205   5.277 -0.1149  0.0732  0.0104
 1265loPI    C319899   4.306  14.508   5.017  0.0747  0.0992  0.0287
 1265loPI   PO419900   4.668  14.419   5.549  0.0133 -0.2196 -0.2670
 1265loPI   GL119901   4.543  14.575   5.974  0.1963  0.0182  0.0293
 1265loPI   GL219902   4.740  14.880   6.032  0.3275  0.1435  0.1670
 1265loPI   C1A19903   4.604  14.364   6.420 -0.0918  0.0757  0.0307
 1265loPI   C2A19904   4.430  14.408   6.727 -0.1526  0.1699 -0.4444
 1265loPI   C3A19905   4.427  14.385   7.081  0.2488 -0.0555  0.2366
 1265loPI   C4A19906   4.624  14.253   7.542 -0.0136  0.2204 -0.3227
 1265loPI   C5A19907   4.606  14.380   7.847  0.0452  0.2479 -0.2258
 1265loPI   C6A19908   4.737  14.270   8.198  0.1982  0.2227 -0.0108
 1265loPI   C1B19909   4.676  14.898   6.376  0.3093 -0.4776  0.1093
 1265loPI   C2B19910   4.528  14.850   6.830 -0.1325  0.1591  0.0607
 1265loPI   C3B19911   4.636  14.904   7.284  0.0839  0.0655  0.1906
 1265loPI   C4B19912   4.639  14.810   7.678  0.0686  0.1449  0.0306
 1266loPI    C119913  13.979   5.286   5.552  0.1301 -0.1087  0.0581
 1266loPI    C219914  13.820   5.068   5.257 -0.0086 -0.0849  0.1149
 1266loPI    C319915  14.216   5.119   5.276  0.0023 -0.0993 -0.0583
 1266loPI   PO419916  13.863   5.338   5.785 -0.2038 -0.1275  0.1795
 1266loPI   GL119917  13.944   5.394   6.187  0.1085 -0.3428  0.2239
 1266loPI   GL219918  13.683   5.560   6.269  0.0207 -0.1959 -0.0363
 1266loPI   C1A19919  14.042   5.219   6.615 -0.1083  0.0780  0.2246
 1266loPI   C2A19920  13.940   5.244   6.933 -0.4921  0.1828 -0.2319
 1266loPI   C3A19921  13.995   5.251   7.418 -0.0867  0.0713  0.0162
 1266loPI   C4A19922  13.972   5.195   7.934 -0.2119 -0.2521 -0.0269
 1266loPI   C5A19923  13.909   5.231   8.363  0.3262  0.2556  0.1643
 1266loPI   C6A19924  13.855   5.226   8.808 -0.1635 -0.0597  0.2034
 1266loPI   C1B19925  13.670   5.624   6.707 -0.6184  0.0916 -0.0809
 1266loPI   C2B19926  13.553   5.691   7.170 -0.2404 -0.0876 -0.0681
 1266loPI   C3B19927  13.606   5.522   7.553  0.0274  0.0644 -0.3299
 1266loPI   C4B19928  13.529   5.510   8.003  0.2372 -0.1868  0.0439
 1267loPI    C119929   7.602   5.575   5.370  0.1510  0.1511 -0.1102
 1267loPI    C219930   7.251   5.671   5.204  0.0527 -0.0632 -0.0310
 1267loPI    C319931   7.581   5.878   5.110 -0.1021  0.1694 -0.0706
 1267loPI   PO419932   7.532   5.559   5.632  0.0770  0.0038  0.0649
 1267loPI   GL119933   7.525   5.528   6.151  0.0104 -0.0326  0.1388
 1267loPI   GL219934   7.699   5.221   6.105 -0.2291  0.2010  0.0884
 1267loPI   C1A19935   7.530   5.378   6.541  0.1955 -0.0282  0.1400
 1267loPI   C2A19936   7.539   5.318   6.971  0.3731  0.1126  0.1362
 1267loPI   C3A19937   7.411   5.355   7.391 -0.0879  0.0193 -0.0381
 1267loPI   C4A19938   7.508   5.293   7.781 -0.0073  0.2066 -0.0423
 1267loPI   C5A19939   7.807   5.090   8.081  0.0451 -0.0383 -0.0564
 1267loPI   C6A19940   7.938   4.715   8.298  0.0618 -0.0159 -0.0631
 1267loPI   C1B19941   7.849   5.047   6.544  0.0546  0.0145 -0.1387
 1267loPI   C2B19942   7.940   5.079   6.799 -0.0297  0.0472  0.0547
 1267loPI   C3B19943   7.845   4.970   7.238 -0.3088 -0.1887 -0.1036
 1267loPI   C4B19944   8.015   4.916   7.653  0.1220  0.1808 -0.2137
 1268loPI    C119945   2.354   3.236   6.008  0.1061 -0.2036 -0.0295
 1268loPI    C219946   2.310   2.838   6.004 -0.0699 -0.1840 -0.1372
 1268loPI    C319947   1.988   3.075   6.010  0.0350 -0.0430  0.0105
 1268loPI   PO419948   2.470   3.312   6.107 -0.2160 -0.1173 -0.1388
 1268loPI   GL119949   2.655   3.378   6.455 -0.1124  0.0995 -0.1869
 1268loPI   GL219950   2.539   2.975   6.602 -0.0264  0.0376  0.0225
 1268loPI   C1A19951   2.608   3.614   6.929  0.2040 -0.0203  0.0270
 1268loPI   C2A19952   2.787   3.617   7.277 -0.0593 -0.0233 -0.1100
 1268loPI   C3A19953   2.720   3.610   7.680 -0.0366  0.1085  0.0800
 1268loPI   C4A19954   2.680   3.617   8.085 -0.1176  0.2723 -0.0332
 1268loPI   C5A19955   2.515   3.696   8.505  0.0711  0.1469  0.4015
 1268loPI   C6A19956   2.473   3.783   9.003 -0.2236  0.0861  0.0541
 1268loPI   C1B19957   2.529   3.086   7.018  0.0951 -0.4267  0.4964
 1268loPI   C2B19958   2.623   3.147   7.483 -0.1860  0.0786  0.0712
 1268loPI   C3B19959   2.627   3.097   7.922  0.2445  0.3432  0.0167
 1268loPI   C4B19960   2.475   3.207   8.342  0.1001  0.1264 -0.0599
 1269loPI    C119961   0.301  16.349   5.476  0.2373  0.0660  0.0484
 1269loPI    C219962   0.447  16.067   5.234  0.0366 -0.1168  0.1368
 1269loPI    C319963   0.325  16.416   5.083  0.2244 -0.1010  0.0182
 1269loPI   PO419964   0.398  16.237   5.716 -0.1145  0.0669  0.0038
 1269loPI   GL119965   0.352  16.168   6.169  0.0594 -0.0348  0.0339
 1269loPI   GL219966   0.544  15.842   6.015 -0.0505  0.0204 -0.0467
 1269loPI   C1A19967   0.399  16.192   6.673 -0.0836  0.1009 -0.0395
 1269loPI   C2A19968   0.450  16.241   7.120 -0.0128 -0.2186  0.2657
 1269loPI   C3A19969   0.355  16.244   7.476 -0.6837 -0.1917  0.0215
 1269loPI   C4A19970   0.383  16.158   7.897  0.3547 -0.1799 -0.0605
 1269loPI   C5A19971   0.300  16.143   8.339 -0.1945  0.0754 -0.0930
 1269loPI   C6A19972   0.315  16.144   8.747  0.1057  0.1230  0.1764
 1269loPI   C1B19973   0.700  15.874   6.393  0.0153  0.0117 -0.1088
 1269loPI   C2B19974   0.736  15.837   6.815 -0.1193  0.0070 -0.0091
 1269loPI   C3B19975   0.760  15.815   7.198 -0.4343 -0.1019  0.2621
 1269loPI   C4B19976   0.738  15.809   7.587  0.0850  0.0220 -0.1417
 1270loPI    C119977   5.333   6.890   5.730  0.1370  0.0712  0.1520
 1270loPI    C219978   4.940   6.958   5.761  0.0612 -0.2332 -0.0897
 1270loPI    C319979   5.072   6.616   5.602  0.4266 -0.1555  0.0359
 1270loPI   PO419980   5.470   6.842   5.934  0.0072 -0.0358  0.3115
 1270loPI   GL119981   5.511   6.598   6.315  0.3378  0.3008 -0.0776
 1270loPI   GL219982   5.752   6.246   6.457  0.1147  0.1876  0.3909
 1270loPI   C1A19983   5.394   6.604   6.660 -0.3293  0.0328  0.1537
 1270loPI   C2A19984   5.478   6.554   7.125 -0.2035  0.1601 -0.0167
 1270loPI   C3A19985   5.353   6.528   7.561  0.3478 -0.2817  0.2833
 1270loPI   C4A19986   5.454   6.569   7.983  0.2046 -0.1889  0.2668
 1270loPI   C5A19987   5.472   6.680   8.376 -0.2761 -0.0404 -0.0561
 1270loPI   C6A19988   5.673   6.975   8.605 -0.3711 -0.3193 -0.0177
 1270loPI   C1B19989   5.826   6.313   6.859 -0.4920 -0.2344  0.0307
 1270loPI   C2B19990   5.861   6.316   7.327 -0.3474  0.1255  0.1040
 1270loPI   C3B19991   5.721   6.212   7.780 -0.1627 -0.1355 -0.0621
 1270loPI   C4B19992   5.613   6.190   8.241 -0.3016 -0.3237 -0.2092
 1271loPI    C119993   1.289  14.814   5.472 -0.1545 -0.2285  0.2636
 1271loPI    C219994   1.130  14.540   5.228 -0.0401  0.1477 -0.2488
 1271loPI    C319995   1.504  14.667   5.169 -0.0049  0.2360  0.1374
 1271loPI   PO419996   1.238  14.699   5.687  0.0434 -0.0950 -0.0846
 1271loPI   GL119997   1.155  14.772   6.156  0.3507 -0.0872 -0.3691
 1271loPI   GL219998   0.874  14.534   6.093 -0.3461 -0.1317  0.5949
 1271loPI   C1A19999   1.382  14.756   6.494  0.2862 -0.3432  0.1048
 1271loPI   C2A20000   1.341  14.687   6.910 -0.2628  0.0436  0.1745
 1271loPI   C3A20001   1.373  14.629   7.253 -0.4151 -0.1077 -0.0544
 1271loPI   C4A20002   1.448  14.679   7.704 -0.0420  0.3728 -0.0956
 1271loPI   C5A20003   1.567  14.769   8.169 -0.1569  0.1397  0.0919
 1271loPI   C6A20004   1.637  15.146   8.420 -0.2352 -0.5074  0.1929
 1271loPI   C1B20005   0.845  14.536   6.556  0.1172 -0.2785 -0.0620
 1271loPI   C2B20006   0.797  14.512   6.994  0.0911  0.2045  0.2373
 1271loPI   C3B20007   0.918  14.567   7.391  0.1193 -0.0104  0.2321
 1271loPI   C4B20008   1.006  14.511   7.843 -0.1068  0.2205  0.1876
 1272loPI    C120009  13.846  16.837   5.696  0.2525  0.0638 -0.1010
 1272loPI    C220010  14.154  16.603   5.594  0.2701  0.0625 -0.0454
 1272loPI    C320011  13.826  16.613   5.365  0.1388 -0.2635  0.1217
 1272loPI   PO420012  13.908  16.913   5.945 -0.0125 -0.3107  0.0249
 1272loPI   GL120013  13.974  17.030   6.380  0.0414 -0.2229  0.3046
 1272loPI   GL220014  13.908  16.739   6.400 -0.0650 -0.0034 -0.2230
 1272loPI   C1A20015  14.055  17.143   6.849  0.0236  0.0383 -0.0101
 1272loPI   C2A20016  14.123  17.271   7.250 -0.1119  0.1609 -0.1515
 1272loPI   C3A20017  13.818  17.452   7.492 -0.3731  0.3773  0.0447
 1272loPI   C4A20018  13.824  17.663   7.783 -0.0772  0.2773  0.1745
 1272loPI   C5A20019  13.863  17.647   8.141 -0.4090 -0.2370  0.1941
 1272loPI   C6A20020  13.645  17.896   8.521  0.2216  0.0437  0.2578
 1272loPI   C1B20021  13.657  16.785   6.763  0.2608 -0.0020  0.3561
 1272loPI   C2B20022  13.658  16.883   7.155  0.1307 -0.1457  0.3431
 1272loPI   C3B20023  13.794  16.900   7.508 -0.1599 -0.0313 -0.0821
 1272loPI   C4B20024  13.723  17.142   7.910  0.1502  0.0685 -0.0512
 1273loPI    C120025   3.189  13.707   5.347 -0.0237 -0.1342  0.0634
 1273loPI    C220026   3.586  13.753   5.330 -0.0319  0.0718  0.3528
 1273loPI    C320027   3.408  13.466   5.116  0.2109  0.3224 -0.2059
 1273loPI   PO420028   3.163  13.722   5.643  0.2295  0.2281 -0.1345
 1273loPI   GL120029   3.244  13.555   6.000 -0.4225 -0.2192  0.1660
 1273loPI   GL220030   3.517  13.403   6.149  0.0669 -0.1555  0.0361
 1273loPI   C1A20031   3.029  13.414   6.333  0.2009 -0.0192  0.0566
 1273loPI   C2A20032   3.013  13.383   6.752  0.0514 -0.0910 -0.2925
 1273loPI   C3A20033   3.063  13.274   7.121  0.1664 -0.1110 -0.1779
 1273loPI   C4A20034   2.948  13.276   7.576 -0.1136 -0.4242 -0.0951
 1273loPI   C5A20035   2.763  13.138   7.995  0.3308 -0.0355 -0.1227
 1273loPI   C6A20036   2.578  13.312   8.332  0.0022 -0.0305 -0.0385
 1273loPI   C1B20037   3.472  13.448   6.570  0.2122  0.0669 -0.1579
 1273loPI   C2B20038   3.502  13.567   6.943  0.0890  0.0800  0.0678
 1273loPI   C3B20039   3.365  13.490   7.396 -0.1007  0.0050 -0.1857
 1273loPI   C4B20040   3.471  13.394   7.776  0.0679  0.0763 -0.0416
 1274loPI    C120041  14.839  11.893   5.740  0.3323 -0.2745 -0.0571
 1274loPI    C220042  14.534  11.836   5.487  0.1377  0.1980  0.0588
 1274loPI    C320043  14.905  11.890   5.346  0.0888  0.1090 -0.1062
 1274loPI   PO420044  14.680  11.929   5.948  0.1083 -0.1135 -0.1653
 1274loPI   GL120045  14.585  11.769   6.368 -0.1256 -0.1437 -0.1044
 1274loPI   GL220046  14.405  12.029   6.445 -0.0557  0.2558  0.1748
 1274loPI   C1A20047  14.362  11.548   6.676 -0.1334  0.3717  0.0675
 1274loPI   C2A20048  14.358  11.480   7.122  0.0135  0.1258 -0.1901
 1274loPI   C3A20049  14.381  11.567   7.547  0.2165 -0.1442  0.1381
 1274loPI   C4A20050  14.339  11.619   7.908  0.2700 -0.0569 -0.1127
 1274loPI   C5A20051  14.338  11.639   8.412  0.0648 -0.0922 -0.1987
 1274loPI   C6A20052  14.096  11.965   8.603 -0.0215 -0.0548  0.1464
 1274loPI   C1B20053  14.484  12.063   6.810  0.0962 -0.2290  0.0222
 1274loPI   C2B20054  14.484  11.990   7.241 -0.2699 -0.0715 -0.1004
 1274loPI   C3B20055  14.518  12.047   7.754 -0.1446  0.0110  0.4094
 1274loPI   C4B20056  14.501  12.097   8.187  0.1263  0.0848 -0.2935
 1275loPI    C120057  16.122   4.991   6.013 -0.0149  0.0198 -0.0872
 1275loPI    C220058  16.214   5.380   6.012  0.1640 -0.0215 -0.0499
 1275loPI    C320059  16.180   5.182   5.666 -0.1189  0.0700 -0.0775
 1275loPI   PO420060  16.159   4.919   6.266  0.1940  0.1122 -0.0260
 1275loPI   GL120061  16.058   4.572   6.603 -0.2676  0.0240  0.0202
 1275loPI   GL220062  16.380   4.740   6.679  0.4342 -0.0747 -0.0767
 1275loPI   C1A20063  16.017   4.428   7.077  0.0135  0.0220 -0.0107
 1275loPI   C2A20064  16.009   4.457   7.462  0.3258  0.2489  0.0543
 1275loPI   C3A20065  16.101   4.468   7.847  0.4167  0.4968  0.2080
 1275loPI   C4A20066  16.120   4.557   8.417  0.2672 -0.0568  0.1025
 1275loPI   C5A20067  16.183   4.839   8.753 -0.0701 -0.0010  0.0932
 1275loPI   C6A20068  16.122   5.238   8.717 -0.0333  0.0482  0.3418
 1275loPI   C1B20069  16.444   4.603   7.130 -0.1043 -0.0534 -0.0991
 1275loPI   C2B20070  16.479   4.635   7.583 -0.2324  0.2673 -0.0764
 1275loPI   C3B20071  16.529   4.620   8.056  0.1423 -0.2834 -0.2957
 1275loPI   C4B20072  16.602   4.614   8.490 -0.0877  0.1407  0.3170
 1276loPI    C120073  13.903   9.899   5.372 -0.1934  0.0159 -0.0962
 1276loPI    C220074  13.982  10.291   5.376  0.1377 -0.0488  0.2842
 1276loPI    C320075  13.771  10.133   5.075  0.0395  0.4105  0.1036
 1276loPI   PO420076  13.852   9.856   5.662  0.1219 -0.0107  0.0158
 1276loPI   GL120077  13.833  10.156   6.081 -0.3166  0.1607 -0.0803
 1276loPI   GL220078  14.144  10.081   5.978  0.0895  0.1825 -0.2726
 1276loPI   C1A20079  14.030  10.078   6.500  0.0483  0.0372 -0.2754
 1276loPI   C2A20080  14.139  10.068   6.967  0.0213 -0.1247 -0.1546
 1276loPI   C3A20081  14.046   9.974   7.383  0.2108  0.0480  0.0534
 1276loPI   C4A20082  14.043   9.841   7.820  0.0099  0.0026  0.0394
 1276loPI   C5A20083  14.137   9.905   8.274  0.2619  0.1253  0.1156
 1276loPI   C6A20084  14.175   9.578   8.627 -0.2491  0.3216  0.1976
 1276loPI   C1B20085  14.386   9.805   6.297  0.4020  0.0025 -0.0099
 1276loPI   C2B20086  14.394   9.768   6.665 -0.0482 -0.0797 -0.1177
 1276loPI   C3B20087  14.445   9.721   7.101  0.0921 -0.1376  0.1885
 1276loPI   C4B20088  14.440   9.686   7.518 -0.1053 -0.2017 -0.0231
 1277loPI    C120089  14.782  12.374   5.718 -0.1999 -0.0975 -0.1040
 1277loPI    C220090  14.605  12.706   5.580 -0.1513  0.0598  0.2028
 1277loPI    C320091  14.406  12.358   5.581 -0.1964  0.0809 -0.1369
 1277loPI   PO420092  14.906  12.439   5.927  0.3481  0.1455 -0.0824
 1277loPI   GL120093  15.236  12.674   6.108 -0.0236 -0.3093  0.0175
 1277loPI   GL220094  15.053  12.759   6.364 -0.1221 -0.1575 -0.1665
 1277loPI   C1A20095  15.516  12.461   6.456 -0.0246 -0.1140 -0.2535
 1277loPI   C2A20096  15.461  12.380   6.938 -0.0913  0.1039  0.0679
 1277loPI   C3A20097  15.453  12.383   7.387 -0.0937 -0.0443  0.1361
 1277loPI   C4A20098  15.444  12.405   7.866 -0.2725 -0.0807 -0.1909
 1277loPI   C5A20099  15.530  12.431   8.283 -0.0471  0.1096 -0.3561
 1277loPI   C6A20100  15.387  12.715   8.584 -0.1019  0.0431 -0.1151
 1277loPI   C1B20101  15.084  12.744   6.754  0.0900  0.0714 -0.0327
 1277loPI   C2B20102  15.118  12.679   7.183 -0.1193  0.0548  0.0659
 1277loPI   C3B20103  15.104  12.716   7.675 -0.1889 -0.2230 -0.0801
 1277loPI   C4B20104  15.084  12.773   8.175 -0.0786 -0.1224 -0.0486
 1278loPI    C120105  15.906  17.036   5.889  0.0003  0.0401 -0.0446
 1278loPI    C220106  16.175  16.741   5.856  0.0544  0.0923 -0.0734
 1278loPI    C320107  15.908  16.802   5.564 -0.1168 -0.0843  0.0432
 1278loPI   PO420108  15.884  16.979   6.192 -0.2185 -0.2056  0.1850
 1278loPI   GL120109  15.734  17.023   6.604  0.3000  0.1099 -0.0083
 1278loPI   GL220110  15.468  17.258   6.515 -0.0882  0.1672 -0.3189
 1278loPI   C1A20111  15.902  16.943   7.004 -0.1762 -0.0668  0.1032
 1278loPI   C2A20112  15.901  16.902   7.422 -0.0798 -0.1562 -0.1904
 1278loPI   C3A20113  15.661  16.799   7.756 -0.2399  0.0030 -0.0679
 1278loPI   C4A20114  15.485  16.711   8.172 -0.1580  0.0196  0.0602
 1278loPI   C5A20115  15.456  16.324   8.476 -0.2400 -0.1118  0.0390
 1278loPI   C6A20116  15.705  16.064   8.719 -0.0476 -0.1091  0.4203
 1278loPI   C1B20117  15.481  17.280   6.985  0.1409  0.1495 -0.0764
 1278loPI   C2B20118  15.455  17.263   7.471 -0.1915  0.1911 -0.1967
 1278loPI   C3B20119  15.552  17.244   7.925 -0.1260  0.2560 -0.0635
 1278loPI   C4B20120  15.907  16.973   8.133  0.0309 -0.0868 -0.0191
 1279loPI    C120121  16.239  15.636   5.948 -0.1833 -0.3072 -0.1199
 1279loPI    C220122  15.979  15.751   5.667 -0.2121 -0.0844 -0.0045
 1279loPI    C320123  16.343  15.624   5.562 -0.2939 -0.1991 -0.1537
 1279loPI   PO420124  16.247  15.818   6.090  0.2252 -0.0335 -0.1904
 1279loPI   GL120125  16.477  15.956   6.417  0.4475  0.0626  0.2200
 1279loPI   GL220126  16.582  16.214   6.576 -0.0328  0.1016 -0.3858
 1279loPI   C1A20127  16.502  15.766   6.772 -0.0869 -0.0304  0.2074
 1279loPI   C2A20128  16.585  15.678   7.150 -0.0101 -0.2658 -0.3282
 1279loPI   C3A20129  16.653  15.650   7.581 -0.1068  0.0324  0.0684
 1279loPI   C4A20130  16.681  15.589   8.057  0.1944  0.1600  0.0515
 1279loPI   C5A20131  16.749  15.867   8.385 -0.0478 -0.2897  0.2740
 1279loPI   C6A20132  16.520  16.230   8.423 -0.1267 -0.0951 -0.0137
 1279loPI   C1B20133  16.709  16.296   6.916 -0.3640  0.3534 -0.0364
 1279loPI   C2B20134  16.652  16.162   7.269 -0.2944  0.0593  0.1698
 1279loPI   C3B20135  16.629  16.262   7.589  0.3479  0.1058  0.2143
 1279loPI   C4B20136  16.754  16.199   7.966  0.1981  0.1201  0.0336
 1280loPI    C120137  10.878  15.390   5.719 -0.1911  0.0883 -0.0551
 1280loPI    C220138  11.216  15.394   5.505 -0.0723 -0.1224  0.1249
 1280loPI    C320139  10.882  15.555   5.355  0.0413 -0.1512 -0.1640
 1280loPI   PO420140  10.855  15.517   5.941 -0.1140  0.3827  0.0065
 1280loPI   GL120141  10.713  15.635   6.439  0.0437 -0.0634  0.3051
 1280loPI   GL220142  10.321  15.545   6.333 -0.0614 -0.2126  0.0091
 1280loPI   C1A20143  10.740  15.558   6.898 -0.2663 -0.0007 -0.0280
 1280loPI   C2A20144  10.732  15.559   7.338  0.2244 -0.3895 -0.0138
 1280loPI   C3A20145  10.706  15.609   7.757 -0.1092  0.3605  0.0182
 1280loPI   C4A20146  10.846  15.616   8.223  0.2882  0.0866 -0.2404
 1280loPI   C5A20147  11.079  15.887   8.509 -0.2505 -0.1463  0.3830
 1280loPI   C6A20148  11.413  15.803   8.857  0.0144 -0.3498  0.0131
 1280loPI   C1B20149  10.204  15.402   6.699  0.3062  0.1080 -0.0971
 1280loPI   C2B20150  10.262  15.407   7.073 -0.0941 -0.4193 -0.2552
 1280loPI   C3B20151  10.269  15.396   7.561  0.0683 -0.2313 -0.1774
 1280loPI   C4B20152  10.203  15.319   7.985  0.0241  0.3273  0.2762
 1281loPI    C120153  11.527   4.286   5.722  0.1860 -0.4577 -0.2875
 1281loPI    C220154  11.157   4.220   5.583 -0.1226  0.0245  0.2609
 1281loPI    C320155  11.293   4.013   5.897  0.0195 -0.0472  0.1532
 1281loPI   PO420156  11.531   4.497   5.765 -0.0766 -0.2037 -0.0667
 1281loPI   GL120157  11.406   4.538   6.205 -0.1005  0.1336  0.0856
 1281loPI   GL220158  11.659   4.391   6.252  0.0174 -0.1035  0.0899
 1281loPI   C1A20159  11.137   4.721   6.513  0.2085  0.4336  0.1492
 1281loPI   C2A20160  11.111   4.738   6.971  0.2079  0.0399 -0.4560
 1281loPI   C3A20161  11.088   4.697   7.445  0.0051 -0.2014 -0.1334
 1281loPI   C4A20162  11.114   4.697   7.836  0.1956  0.1804 -0.1569
 1281loPI   C5A20163  11.101   4.718   8.282 -0.0370  0.2998 -0.1009
 1281loPI   C6A20164  11.062   4.954   8.540  0.0794 -0.1667 -0.4690
 1281loPI   C1B20165  11.523   4.429   6.683  0.5214  0.2240 -0.0826
 1281loPI   C2B20166  11.492   4.383   7.126  0.0471  0.2794  0.0111
 1281loPI   C3B20167  11.503   4.389   7.587 -0.2417  0.0556  0.0019
 1281loPI   C4B20168  11.445   4.386   8.045  0.0806  0.0950  0.1824
 1282POPI    C120169   6.492  16.147   5.576 -0.0212  0.0616 -0.0163
 1282POPI    C220170   6.145  15.967   5.487  0.0004 -0.0135  0.0499
 1282POPI    C320171   6.214  16.342   5.364 -0.1671  0.0580  0.1689
 1282POPI   PO420172   6.430  16.086   5.905 -0.0244 -0.0437  0.1718
 1282POPI   GL120173   6.214  15.987   6.290 -0.0741  0.0355  0.1304
 1282POPI   GL220174   6.300  16.258   6.374  0.3200  0.0175  0.1076
 1282POPI   C1A20175   6.246  15.781   6.704  0.2747 -0.1021  0.4521
 1282POPI   D2A20176   6.271  15.853   7.125 -0.0999 -0.5926  0.2713
 1282POPI   C3A20177   6.199  15.870   7.543  0.0084 -0.2057  0.2031
 1282POPI   C4A20178   6.257  15.731   7.999  0.0761 -0.1683  0.2563
 1282POPI   C1B20179   6.357  16.304   6.861  0.1746  0.0528 -0.1627
 1282POPI   C2B20180   6.306  16.406   7.301 -0.0392 -0.1558  0.1192
 1282POPI   C3B20181   6.328  16.365   7.697  0.0408 -0.1968  0.1057
 1282POPI   C4B20182   6.396  16.201   8.157 -0.1890 -0.0875 -0.0521
 1283POPI    C120183  10.212  10.915   5.568 -0.1140  0.2027  0.0512
 1283POPI    C220184  10.542  11.130   5.499  0.1108 -0.0515  0.3081
 1283POPI    C320185  10.483  10.784   5.305 -0.1341  0.1180  0.0724
 1283POPI   PO420186  10.198  10.895   5.846  0.0990  0.0852 -0.1963
 1283POPI   GL120187  10.385  10.900   6.357 -0.2854 -0.0283  0.1362
 1283POPI   GL220188  10.431  10.574   6.305  0.2372  0.0538  0.3260
 1283POPI   C1A20189  10.076  10.837   6.718 -0.3386  0.0330 -0.1622
 1283POPI   D2A20190   9.930  10.959   7.064 -0.2796  0.2173  0.0582
 1283POPI   C3A20191   9.947  10.921   7.431  0.0730 -0.2272  0.2026
 1283POPI   C4A20192  10.189  10.980   7.800  0.2357 -0.3850 -0.0025
 1283POPI   C1B20193  10.403  10.498   6.707  0.0505  0.2723 -0.1639
 1283POPI   C2B20194  10.375  10.570   7.073 -0.3714 -0.2212 -0.0957
 1283POPI   C3B20195  10.390  10.620   7.506  0.1091 -0.2348 -0.0866
 1283POPI   C4B20196  10.455  10.594   7.868 -0.3684 -0.1323 -0.0868
 1284POPI    C120197   6.580  11.518   5.744  0.2002  0.0400  0.3112
 1284POPI    C220198   6.870  11.336   5.951  0.1354 -0.1880  0.2047
 1284POPI    C320199   6.539  11.134   5.851  0.1233 -0.0525 -0.0368
 1284POPI   PO420200   6.559  11.715   5.881 -0.1914  0.1714 -0.4278
 1284POPI   GL120201   6.499  11.715   6.358  0.0923  0.1019  0.1584
 1284POPI   GL220202   6.497  11.471   6.446 -0.0389 -0.0748  0.0161
 1284POPI   C1A20203   6.828  11.800   6.631  0.2952  0.1263 -0.1262
 1284POPI   D2A20204   6.991  11.693   7.049 -0.1801 -0.0114  0.0437
 1284POPI   C3A20205   6.968  11.758   7.481 -0.1100  0.1290 -0.0285
 1284POPI   C4A20206   6.863  11.791   7.853 -0.0668  0.0113 -0.0668
 1284POPI   C1B20207   6.398  11.592   6.892 -0.0016  0.0685  0.2807
 1284POPI   C2B20208   6.420  11.596   7.361 -0.1834 -0.0760 -0.1175
 1284POPI   C3B20209   6.311  11.599   7.773  0.2401  0.1222 -0.2624
 1284POPI   C4B20210   6.416  11.699   8.134 -0.1172  0.3488 -0.2368
 1285POPI    C120211   8.412  15.887   5.683 -0.3152 -0.1051 -0.1151
 1285POPI    C220212   8.160  15.988   5.389 -0.0818  0.2587 -0.1963
 1285POPI    C320213   8.503  15.799   5.303  0.0581  0.5007 -0.1789
 1285POPI   PO420214   8.315  15.930   5.900  0.0351  0.0350  0.1764
 1285POPI   GL120215   8.083  15.985   6.289  0.1546 -0.0782 -0.1058
 1285POPI   GL220216   7.972  16.272   6.109 -0.1987 -0.0073  0.1053
 1285POPI   C1A20217   8.143  16.015   6.744  0.0075 -0.2126  0.4093
 1285POPI   D2A20218   8.021  15.997   7.161  0.3553  0.0281  0.0519
 1285POPI   C3A20219   8.200  16.042   7.601  0.1447 -0.4598  0.0960
 1285POPI   C4A20220   8.088  16.042   8.098 -0.2140  0.0479 -0.1770
 1285POPI   C1B20221   8.204  16.454   6.470 -0.1564  0.2354  0.2796
 1285POPI   C2B20222   8.068  16.491   6.920 -0.0890  0.0573  0.1558
 1285POPI   C3B20223   8.215  16.465   7.361 -0.0009  0.1727 -0.3982
 1285POPI   C4B20224   8.212  16.590   7.709  0.1227 -0.2024  0.0042
 1286POPI    C120225  12.637  16.686   5.700 -0.0684  0.2795 -0.1378
 1286POPI    C220226  12.838  16.910   5.435  0.0532 -0.1005 -0.3762
 1286POPI    C320227  12.677  16.562   5.321 -0.3722 -0.0094 -0.0794
 1286POPI   PO420228  12.763  16.519   5.848  0.0019  0.1778 -0.2038
 1286POPI   GL120229  12.984  16.553   6.227 -0.1319  0.0832 -0.1265
 1286POPI   GL220230  12.713  16.602   6.501 -0.0560  0.2266 -0.3597
 1286POPI   C1A20231  13.221  16.476   6.722 -0.2171  0.0574 -0.0988
 1286POPI   D2A20232  13.388  16.376   7.021  0.0076 -0.1256 -0.0313
 1286POPI   C3A20233  13.232  16.482   7.322 -0.3117  0.0453  0.0366
 1286POPI   C4A20234  13.190  16.510   7.829 -0.0893  0.0920  0.1059
 1286POPI   C1B20235  12.760  16.790   6.885  0.2186  0.0396  0.2354
 1286POPI   C2B20236  12.700  16.789   7.324 -0.1957  0.2133  0.0034
 1286POPI   C3B20237  12.763  16.841   7.726  0.1058 -0.1080 -0.0216
 1286POPI   C4B20238  12.708  16.797   8.145 -0.0095 -0.3832 -0.0110
 1287POPI    C120239  16.618   7.983   5.548 -0.2622  0.0439 -0.2085
 1287POPI    C220240  16.929   8.057   5.308 -0.1061  0.0303 -0.0130
 1287POPI    C320241  16.584   7.928   5.153 -0.0118  0.0337 -0.2305
 1287POPI   PO420242  16.624   8.178   5.758 -0.0564 -0.0096  0.0986
 1287POPI   GL120243  16.737   8.217   6.150 -0.1897 -0.0578 -0.2827
 1287POPI   GL220244  16.802   8.468   6.312  0.0719  0.1562 -0.1985
 1287POPI   C1A20245  16.916   8.163   6.742 -0.1651  0.2863  0.2526
 1287POPI   D2A20246  16.954   8.154   7.183  0.1165 -0.1910  0.1728
 1287POPI   C3A20247  16.839   8.099   7.670 -0.0514  0.2083  0.1765
 1287POPI   C4A20248  16.604   8.070   8.038  0.3839 -0.0239 -0.2747
 1287POPI   C1B20249  16.616   8.516   6.723 -0.0246  0.0084 -0.1911
 1287POPI   C2B20250  16.486   8.484   7.045 -0.0665 -0.5045 -0.2546
 1287POPI   C3B20251  16.538   8.397   7.476 -0.2468  0.1461 -0.1241
 1287POPI   C4B20252  16.440   8.501   7.849  0.0665  0.0717 -0.3140
 1288POPI    C120253  13.163  10.157   5.637 -0.1105  0.1022  0.1059
 1288POPI    C220254  13.550  10.234   5.574 -0.0955  0.0618  0.1487
 1288POPI    C320255  13.277  10.356   5.309 -0.0243 -0.1860 -0.0427
 1288POPI   PO420256  13.232  10.068   5.928 -0.3328 -0.1186 -0.1173
 1288POPI   GL120257  13.437   9.724   6.206 -0.1456 -0.1164  0.2709
 1288POPI   GL220258  13.069   9.630   6.142  0.1081  0.0463  0.0458
 1288POPI   C1A20259  13.422   9.935   6.607 -0.4032  0.1841  0.2603
 1288POPI   D2A20260  13.568   9.933   7.091 -0.0169  0.0781  0.0184
 1288POPI   C3A20261  13.507   9.790   7.480  0.1869  0.2436  0.1295
 1288POPI   C4A20262  13.311   9.826   7.856  0.1468  0.1303 -0.1912
 1288POPI   C1B20263  12.965   9.636   6.549 -0.2960 -0.1021 -0.0307
 1288POPI   C2B20264  13.084   9.742   6.974  0.0254 -0.1639  0.0919
 1288POPI   C3B20265  12.981   9.627   7.384  0.1089  0.0574  0.0596
 1288POPI   C4B20266  12.989   9.468   7.725 -0.0878 -0.1761  0.0929
 1289POPI    C120267   6.026   8.916   5.922 -0.0179  0.0308 -0.0136
 1289POPI    C220268   6.160   9.072   5.579  0.0755 -0.0407 -0.0102
 1289POPI    C320269   6.014   8.700   5.586 -0.2372  0.0784 -0.0376
 1289POPI   PO420270   5.903   9.046   6.079  0.2442  0.2037 -0.2412
 1289POPI   GL120271   5.996   8.963   6.500  0.0827  0.3100  0.1216
 1289POPI   GL220272   6.298   8.815   6.375 -0.0479  0.0823 -0.1479
 1289POPI   C1A20273   5.858   9.053   6.832  0.1392  0.1820 -0.1002
 1289POPI   D2A20274   5.815   9.078   7.245  0.1159  0.1447 -0.0239
 1289POPI   C3A20275   5.851   9.081   7.739 -0.1664  0.1214  0.1326
 1289POPI   C4A20276   5.901   9.166   8.182 -0.1612 -0.0182 -0.1647
 1289POPI   C1B20277   6.302   8.760   6.828 -0.1235 -0.3792  0.1425
 1289POPI   C2B20278   6.265   8.753   7.233 -0.1517  0.3030  0.0539
 1289POPI   C3B20279   6.303   8.719   7.688 -0.0309  0.0449 -0.2070
 1289POPI   C4B20280   6.327   8.705   8.131  0.0855 -0.0070  0.3686
 1290POPI    C120281   1.712  14.100   5.313 -0.3506  0.0796  0.0822
 1290POPI    C220282   1.448  14.147   5.017 -0.0502  0.0206 -0.2009
 1290POPI    C320283   1.624  13.792   5.073 -0.0596  0.0486  0.0115
 1290POPI   PO420284   1.564  14.327   5.503  0.1114 -0.1767  0.0077
 1290POPI   GL120285   1.420  14.404   6.035 -0.3027 -0.2151 -0.1178
 1290POPI   GL220286   1.727  14.343   6.120  0.2131  0.0062 -0.0844
 1290POPI   C1A20287   1.365  14.088   6.353  0.0854  0.2442  0.1053
 1290POPI   D2A20288   1.224  14.264   6.671 -0.1423  0.1827  0.1511
 1290POPI   C3A20289   1.385  14.150   7.093  0.0058  0.0557 -0.0784
 1290POPI   C4A20290   1.345  14.163   7.536  0.1487 -0.0538 -0.1629
 1290POPI   C1B20291   1.768  14.310   6.504 -0.1735 -0.0894 -0.0830
 1290POPI   C2B20292   1.803  14.376   6.946  0.0757  0.0784  0.1642
 1290POPI   C3B20293   1.801  14.314   7.345 -0.2517  0.0277 -0.3458
 1290POPI   C4B20294   1.821  14.317   7.747 -0.0460 -0.0044  0.1495
 1291POPI    C120295  13.055  11.981   5.783  0.0931 -0.1450 -0.0445
 1291POPI    C220296  13.144  12.351   5.660 -0.1945 -0.1039 -0.1385
 1291POPI    C320297  13.300  12.034   5.471 -0.0281 -0.0334 -0.1218
 1291POPI   PO420298  13.117  11.968   6.031  0.0078  0.0777  0.2117
 1291POPI   GL120299  13.074  11.871   6.458  0.0246  0.2499 -0.0879
 1291POPI   GL220300  13.298  12.072   6.468 -0.0426 -0.0086 -0.1609
 1291POPI   C1A20301  13.408  11.761   6.898  0.1719 -0.0793  0.1127
 1291POPI   D2A20302  13.476  11.617   7.293 -0.2933 -0.0767  0.3525
 1291POPI   C3A20303  13.446  11.838   7.680 -0.1797  0.1598  0.2558
 1291POPI   C4A20304  13.432  11.654   8.134 -0.0990  0.0155  0.1104
 1291POPI   C1B20305  13.492  12.220   6.831 -0.3230 -0.0262 -0.0328
 1291POPI   C2B20306  13.566  12.172   7.280 -0.1853 -0.1402 -0.0878
 1291POPI   C3B20307  13.549  12.335   7.660  0.0889  0.0173 -0.0241
 1291POPI   C4B20308  13.181  12.550   7.791 -0.2395  0.0303  0.1106
 1292POPI    C120309   2.321  12.698   5.253  0.0110  0.2926 -0.0151
 1292POPI    C220310   2.134  12.641   4.904 -0.0549 -0.3335  0.1116
 1292POPI    C320311   2.513  12.523   4.949  0.0174 -0.0757  0.1957
 1292POPI   PO420312   2.125  12.565   5.472  0.0636 -0.0449  0.1588
 1292POPI   GL120313   1.795  12.644   5.819 -0.2426 -0.1581  0.3076
 1292POPI   GL220314   1.974  12.462   6.141 -0.0878 -0.2661  0.2371
 1292POPI   C1A20315   1.561  12.726   6.240 -0.1761  0.1505 -0.2067
 1292POPI   D2A20316   1.549  12.703   6.713 -0.1674 -0.1299 -0.1381
 1292POPI   C3A20317   1.574  12.686   7.079  0.0985  0.0574  0.0847
 1292POPI   C4A20318   1.498  12.715   7.530  0.1195 -0.1176 -0.0042
 1292POPI   C1B20319   1.912  12.450   6.439  0.0371  0.1246  0.2895
 1292POPI   C2B20320   1.960  12.476   6.760  0.2893 -0.0505 -0.0127
 1292POPI   C3B20321   1.941  12.343   7.200 -0.2908 -0.1018 -0.1614
 1292POPI   C4B20322   1.932  12.395   7.608  0.3018  0.0213 -0.0882
 1293POPI    C120323   3.561   0.189   5.713 -0.0135  0.4438  0.0072
 1293POPI    C220324   3.406  -0.030   5.416  0.3320  0.2267 -0.0180
 1293POPI    C320325   3.674   0.256   5.335  0.1836  0.3880  0.0552
 1293POPI   PO420326   3.306   0.233   5.879  0.1001  0.1628  0.0708
 1293POPI   GL120327   3.115   0.131   6.202  0.1187  0.0863  0.2294
 1293POPI   GL220328   2.914   0.336   6.218 -0.2285 -0.1492 -0.2596
 1293POPI   C1A20329   3.347  -0.010   6.603  0.1631 -0.3036  0.1270
 1293POPI   D2A20330   3.425   0.029   7.077 -0.1101  0.1010  0.1316
 1293POPI   C3A20331   3.372  -0.041   7.534  0.0350  0.1183 -0.2316
 1293POPI   C4A20332   3.328   0.015   7.880  0.2556 -0.0813  0.0151
 1293POPI   C1B20333   2.926   0.405   6.652  0.1227 -0.1514  0.0548
 1293POPI   C2B20334   2.980   0.322   7.083 -0.1379 -0.1843  0.0391
 1293POPI   C3B20335   3.029   0.316   7.456 -0.0943  0.0815  0.2258
 1293POPI   C4B20336   2.928   0.338   7.897 -0.3341  0.2187 -0.1083
 1294POPI    C120337  16.688  12.755   5.551 -0.2020 -0.0004  0.1482
 1294POPI    C220338  16.674  13.153   5.513 -0.3596 -0.0104  0.0939
 1294POPI    C320339  16.455  12.922   5.271 -0.3480 -0.1265  0.1934
 1294POPI   PO420340  16.856  12.779   5.803  0.1847  0.0636  0.1173
 1294POPI   GL120341  16.661  12.763   6.263  0.0591  0.3865 -0.1403
 1294POPI   GL220342  16.918  12.966   6.396 -0.0770 -0.1855 -0.0904
 1294POPI   C1A20343  16.458  12.809   6.529  0.0358  0.0001 -0.2079
 1294POPI   D2A20344  16.391  12.715   6.873  0.0524  0.1161  0.1034
 1294POPI   C3A20345  16.457  12.740   7.394 -0.1927  0.2675 -0.0142
 1294POPI   C4A20346  16.471  12.739   7.791 -0.0452 -0.1709 -0.0428
 1294POPI   C1B20347  16.932  12.860   6.860  0.0782  0.0448 -0.3102
 1294POPI   C2B20348  16.931  12.916   7.323  0.2087 -0.1581 -0.0301
 1294POPI   C3B20349  16.948  12.898   7.782  0.1982  0.1606 -0.0233
 1294POPI   C4B20350  16.995  12.860   8.174  0.0291  0.5381  0.1278
 1295POPI    C120351   1.735   4.365   5.773 -0.1298  0.0498 -0.1658
 1295POPI    C220352   1.935   4.101   5.548 -0.0904 -0.1754  0.1276
 1295POPI    C320353   1.563   4.208   5.448 -0.0241 -0.1694 -0.1178
 1295POPI   PO420354   1.729   4.339   6.042 -0.0423  0.1825 -0.0127
 1295POPI   GL120355   1.821   4.231   6.473 -0.1134  0.4128  0.0431
 1295POPI   GL220356   2.116   4.120   6.376 -0.2317 -0.0099  0.0399
 1295POPI   C1A20357   1.853   4.296   6.870  0.1840  0.1454  0.0303
 1295POPI   D2A20358   1.870   4.363   7.320 -0.0650 -0.1836 -0.0632
 1295POPI   C3A20359   1.913   4.220   7.723  0.0069 -0.0605 -0.1091
 1295POPI   C4A20360   1.885   4.226   8.267 -0.0587  0.0343  0.0905
 1295POPI   C1B20361   2.243   4.063   6.782 -0.0960  0.0137 -0.2150
 1295POPI   C2B20362   2.297   3.988   7.208 -0.2975 -0.0192 -0.4802
 1295POPI   C3B20363   2.269   3.874   7.654 -0.0915  0.0100 -0.2424
 1295POPI   C4B20364   2.256   3.886   8.076  0.0981  0.2112 -0.3680
 1296POPI    C120365  17.513   7.556   5.457 -0.2674  0.2404  0.1904
 1296POPI    C220366  17.705   7.789   5.194  0.0292 -0.1656  0.0365
 1296POPI    C320367  17.305   7.779   5.198  0.0172  0.1317 -0.1399
 1296POPI   PO420368  17.591   7.587   5.643  0.2888 -0.0877  0.1600
 1296POPI   GL120369  17.653   7.428   6.093 -0.2314  0.0633 -0.2565
 1296POPI   GL220370  17.355   7.618   6.100 -0.0948 -0.3479 -0.0135
 1296POPI   C1A20371  17.818   7.502   6.463 -0.0685 -0.3496  0.2174
 1296POPI   D2A20372  17.741   7.414   6.899 -0.2171 -0.3142  0.1937
 1296POPI   C3A20373  17.696   7.492   7.237  0.2636 -0.0511  0.0545
 1296POPI   C4A20374  17.602   7.463   7.647 -0.0235 -0.1509  0.1440
 1296POPI   C1B20375  17.341   7.666   6.561  0.0628 -0.2816  0.3361
 1296POPI   C2B20376  17.332   7.829   7.017  0.3045 -0.0025 -0.3284
 1296POPI   C3B20377  17.287   7.771   7.484  0.0458 -0.0600  0.2770
 1296POPI   C4B20378  17.100   7.753   7.944 -0.1377 -0.4689  0.1435
 1297POPI    C120379  14.081  11.596   6.171  0.1448 -0.0619  0.0180
 1297POPI    C220380  14.154  11.885   5.904  0.2707  0.0162  0.1357
 1297POPI    C320381  14.374  11.550   5.902  0.2039 -0.0276  0.0762
 1297POPI   PO420382  13.890  11.526   6.163 -0.1390 -0.5314 -0.0182
 1297POPI   GL120383  13.705  11.507   6.559 -0.1132 -0.1162  0.0585
 1297POPI   GL220384  13.392  11.418   6.301 -0.1093  0.0527 -0.2074
 1297POPI   C1A20385  13.843  11.400   7.032  0.1166 -0.0630 -0.0627
 1297POPI   D2A20386  13.842  11.347   7.472  0.0292 -0.1178 -0.0205
 1297POPI   C3A20387  13.820  11.496   7.853 -0.0284 -0.2942  0.2156
 1297POPI   C4A20388  14.025  11.300   8.191  0.2373 -0.1985  0.0006
 1297POPI   C1B20389  13.285  11.260   6.711 -0.0149 -0.1044 -0.1147
 1297POPI   C2B20390  13.270  11.235   7.037 -0.0193  0.1809  0.0627
 1297POPI   C3B20391  13.294  11.142   7.475 -0.4409  0.0928  0.0782
 1297POPI   C4B20392  13.103  11.457   7.738 -0.0217  0.1430 -0.0255
 1298DPPI    C120393   8.594  13.098   5.504  0.0644  0.5006 -0.0114
 1298DPPI    C220394   8.318  13.298   5.293 -0.1329  0.3048  0.0568
 1298DPPI    C320395   8.535  13.012   5.118 -0.3487  0.0910  0.1336
 1298DPPI   PO420396   8.446  13.089   5.758 -0.0205  0.0907 -0.0611
 1298DPPI   GL120397   8.203  13.448   6.069 -0.1059  0.2728 -0.0768
 1298DPPI   GL220398   8.117  13.177   6.212 -0.3578  0.0514 -0.2873
 1298DPPI   C1A20399   8.246  13.623   6.454 -0.2678 -0.1539  0.0139
 1298DPPI   C2A20400   8.145  13.603   6.877 -0.1326 -0.2619 -0.4687
 1298DPPI   C3A20401   8.125  13.808   7.284  0.0493 -0.1481 -0.1439
 1298DPPI   C4A20402   8.077  13.777   7.728 -0.0975 -0.2479 -0.0048
 1298DPPI   C1B20403   8.087  13.119   6.678 -0.4212  0.3960 -0.3708
 1298DPPI   C2B20404   8.059  13.220   7.135  0.0242 -0.0612 -0.0765
 1298DPPI   C3B20405   8.036  13.230   7.594  0.0499  0.4295 -0.1189
 1298DPPI   C4B20406   8.160  13.304   8.041  0.2221  0.4114 -0.2534
 1299DPPI    C120407   4.803  15.557   5.339 -0.0117  0.0992 -0.0223
 1299DPPI    C220408   4.770  15.275   5.057  0.1387 -0.0922  0.1478
 1299DPPI    C320409   4.483  15.551   5.098 -0.0061 -0.2137 -0.0270
 1299DPPI   PO420410   4.810  15.424   5.600 -0.1262 -0.1371  0.0566
 1299DPPI   GL120411   4.969  15.369   5.980  0.1364 -0.0240 -0.2378
 1299DPPI   GL220412   4.750  15.631   6.058  0.0272  0.4805  0.0212
 1299DPPI   C1A20413   5.141  15.139   6.285  0.0414  0.3055  0.0555
 1299DPPI   C2A20414   5.072  15.006   6.747  0.0317 -0.2004  0.1366
 1299DPPI   C3A20415   5.170  14.953   7.269  0.0062 -0.3185 -0.1409
 1299DPPI   C4A20416   5.097  15.013   7.735 -0.2434  0.4371  0.1287
 1299DPPI   C1B20417   4.771  15.360   6.538  0.0363 -0.4047 -0.0648
 1299DPPI   C2B20418   4.741  15.358   7.005  0.1838 -0.3314  0.2329
 1299DPPI   C3B20419   4.784  15.379   7.437 -0.0141 -0.1693  0.1716
 1299DPPI   C4B20420   4.805  15.373   7.916 -0.0875  0.1185  0.0074
 1300DPPI    C120421   6.036  17.332   5.715 -0.0055 -0.0085 -0.0031
 1300DPPI    C220422   6.158  17.243   5.344  0.0388 -0.0548  0.0225
 1300DPPI    C320423   6.209  17.613   5.488  0.0739 -0.0521  0.0031
 1300DPPI   PO420424   6.109  17.179   5.883 -0.0239  0.3848  0.0783
 1300DPPI   GL120425   6.280  16.817   6.139 -0.1809  0.1567 -0.0221
 1300DPPI   GL220426   6.012  16.828   6.264 -0.0567  0.0685  0.0961
 1300DPPI   C1A20427   6.410  16.931   6.541 -0.0898 -0.1489 -0.0249
 1300DPPI   C2A20428   6.336  16.835   6.931 -0.2279 -0.3589  0.1069
 1300DPPI   C3A20429   6.503  16.912   7.321 -0.0077 -0.2499 -0.0984
 1300DPPI   C4A20430   6.424  16.870   7.679 -0.0578 -0.2826 -0.1360
 1300DPPI   C1B20431   5.952  16.694   6.670 -0.3588 -0.1009 -0.0077
 1300DPPI   C2B20432   5.885  16.709   7.093  0.0894  0.2724  0.0896
 1300DPPI   C3B20433   5.937  16.697   7.547  0.0596 -0.2810 -0.2198
 1300DPPI   C4B20434   5.911  16.685   7.975 -0.1243 -0.2394 -0.1726
 1301DPPI    C120435   8.533   5.689   5.701  0.0135  0.0127  0.2501
 1301DPPI    C220436   8.532   5.325   5.866 -0.1886 -0.1141 -0.0224
 1301DPPI    C320437   8.494   5.365   5.470  0.0576  0.1951 -0.0184
 1301DPPI   PO420438   8.335   5.804   5.861 -0.2293 -0.1222 -0.2496
 1301DPPI   GL120439   8.208   5.744   6.257 -0.0059 -0.0004  0.1152
 1301DPPI   GL220440   8.551   5.658   6.247  0.0972  0.2311 -0.0214
 1301DPPI   C1A20441   7.954   5.610   6.522 -0.0980  0.2278 -0.1140
 1301DPPI   C2A20442   8.045   5.549   6.959 -0.0652  0.3377 -0.2144
 1301DPPI   C3A20443   8.002   5.387   7.400 -0.3020 -0.0058  0.0788
 1301DPPI   C4A20444   7.982   5.381   7.750  0.0806 -0.3914  0.1101
 1301DPPI   C1B20445   8.462   5.722   6.703  0.2868 -0.3855 -0.0813
 1301DPPI   C2B20446   8.610   5.695   7.129  0.0085 -0.0788  0.2982
 1301DPPI   C3B20447   8.382   5.685   7.564  0.0187  0.3625 -0.0142
 1301DPPI   C4B20448   8.391   5.560   7.992  0.2863 -0.1889  0.2431
 1302DPPI    C120449   6.476  15.596   5.557  0.0577  0.0251  0.0668
 1302DPPI    C220450   6.818  15.745   5.699  0.1146  0.0393 -0.0834
 1302DPPI    C320451   6.721  15.799   5.315 -0.0319 -0.0088 -0.0537
 1302DPPI   PO420452   6.520  15.336   5.760  0.5036 -0.0838 -0.0715
 1302DPPI   GL120453   6.558  15.597   6.131  0.3616  0.1442  0.1342
 1302DPPI   GL220454   6.738  15.868   6.278 -0.1041 -0.0735  0.0774
 1302DPPI   C1A20455   6.560  15.470   6.451  0.0591  0.0484  0.0784
 1302DPPI   C2A20456   6.639  15.588   6.905  0.0082  0.0509 -0.0666
 1302DPPI   C3A20457   6.658  15.578   7.288  0.2270 -0.0818  0.0848
 1302DPPI   C4A20458   6.641  15.572   7.703  0.0579  0.2882 -0.5910
 1302DPPI   C1B20459   6.700  16.074   6.569  0.0932 -0.1566  0.1529
 1302DPPI   C2B20460   6.757  16.082   6.976  0.1120 -0.2236 -0.1959
 1302DPPI   C3B20461   6.691  16.034   7.393 -0.3208 -0.1672 -0.1291
 1302DPPI   C4B20462   6.776  16.099   7.773 -0.0829  0.0875 -0.2295
 1303DPPI    C120463   8.532   1.408   5.464  0.2234 -0.0012  0.1385
 1303DPPI    C220464   8.659   1.507   5.098 -0.0390  0.3530  0.1381
 1303DPPI    C320465   8.663   1.125   5.214 -0.0149  0.2285 -0.2578
 1303DPPI   PO420466   8.657   1.585   5.658  0.1618  0.0124 -0.0012
 1303DPPI   GL120467   8.742   1.643   6.097 -0.0519 -0.0132 -0.0189
 1303DPPI   GL220468   8.735   1.359   6.186 -0.2952 -0.3283  0.0153
 1303DPPI   C1A20469   9.092   1.665   6.446 -0.0548  0.3091 -0.0812
 1303DPPI   C2A20470   9.214   1.668   6.832  0.0946 -0.4445 -0.1160
 1303DPPI   C3A20471   9.174   1.654   7.326 -0.0720  0.1030  0.0843
 1303DPPI   C4A20472   9.230   1.612   7.725  0.1051  0.0948  0.1183
 1303DPPI   C1B20473   8.592   1.540   6.569 -0.0161  0.0437 -0.0262
 1303DPPI   C2B20474   8.602   1.490   7.017  0.0671 -0.1086 -0.1382
 1303DPPI   C3B20475   8.666   1.552   7.434  0.1531 -0.1348 -0.0549
 1303DPPI   C4B20476   8.749   1.423   7.852 -0.3217  0.1413  0.2172
 1304DPPI    C120477  13.584   3.553   5.925  0.0137 -0.2437 -0.1739
 1304DPPI    C220478  13.491   3.334   5.604  0.1727 -0.1209 -0.3057
 1304DPPI    C320479  13.523   3.731   5.572  0.0536 -0.0939 -0.1061
 1304DPPI   PO420480  13.753   3.454   6.004 -0.1138 -0.1569 -0.0341
 1304DPPI   GL120481  13.833   3.247   6.360  0.0371 -0.1202 -0.0737
 1304DPPI   GL220482  13.880   2.971   6.415  0.0075  0.0651  0.1533
 1304DPPI   C1A20483  14.007   3.250   6.740  0.0382 -0.0961 -0.2453
 1304DPPI   C2A20484  13.975   3.304   7.161 -0.2924  0.2395  0.0955
 1304DPPI   C3A20485  13.949   3.334   7.633 -0.0766 -0.0774  0.2698
 1304DPPI   C4A20486  14.028   3.285   8.031 -0.0835 -0.2688  0.2161
 1304DPPI   C1B20487  13.918   2.749   6.784 -0.1087 -0.1832  0.5338
 1304DPPI   C2B20488  13.813   2.783   7.200 -0.0314 -0.2932 -0.0146
 1304DPPI   C3B20489  13.895   2.836   7.572 -0.0975 -0.0353 -0.3262
 1304DPPI   C4B20490  13.950   2.783   8.005 -0.0682  0.0230  0.2705
 1305DPPI    C120491   4.718  12.895   5.678 -0.2171  0.1450  0.1038
 1305DPPI    C220492   4.516  12.551   5.641 -0.1736  0.1303  0.0008
 1305DPPI    C320493   4.659  12.736   5.316  0.0561  0.0942  0.0792
 1305DPPI   PO420494   4.726  12.918   5.920  0.1881  0.0681 -0.2550
 1305DPPI   GL120495   4.865  13.046   6.393 -0.1044 -0.0342  0.0282
 1305DPPI   GL220496   4.998  13.266   6.159  0.0849  0.2083  0.0482
 1305DPPI   C1A20497   4.735  13.000   6.811 -0.1566  0.0015  0.4734
 1305DPPI   C2A20498   4.832  12.940   7.301  0.3073 -0.5008 -0.2370
 1305DPPI   C3A20499   4.804  13.011   7.701  0.0933 -0.1381  0.1424
 1305DPPI   C4A20500   4.810  13.050   8.139 -0.3585 -0.3188  0.1389
 1305DPPI   C1B20501   4.975  13.517   6.603  0.0029 -0.1945  0.0408
 1305DPPI   C2B20502   4.824  13.631   6.996 -0.0541  0.1252  0.2129
 1305DPPI   C3B20503   4.848  13.451   7.374  0.1683  0.0972  0.1337
 1305DPPI   C4B20504   4.978  13.462   7.831 -0.2771  0.2373 -0.1574
 1306DPPI    C120505   5.696   9.410   5.707 -0.0655 -0.2565  0.0597
 1306DPPI    C220506   5.625   9.022   5.641  0.1110 -0.2276 -0.3250
 1306DPPI    C320507   5.515   9.294   5.370  0.0244 -0.0100 -0.0757
 1306DPPI   PO420508   5.635   9.467   5.929 -0.2229  0.1430 -0.1853
 1306DPPI   GL120509   5.476   9.280   6.271 -0.0766 -0.0979  0.2932
 1306DPPI   GL220510   5.441   8.930   6.123 -0.0384 -0.2789 -0.1167
 1306DPPI   C1A20511   5.500   9.420   6.763  0.1092  0.0246  0.1327
 1306DPPI   C2A20512   5.469   9.381   7.151 -0.1259  0.0036  0.0309
 1306DPPI   C3A20513   5.431   9.420   7.638 -0.1847  0.4017  0.0650
 1306DPPI   C4A20514   5.449   9.428   8.039 -0.0660  0.2117 -0.1461
 1306DPPI   C1B20515   5.410   8.965   6.642  0.0687  0.1051  0.3795
 1306DPPI   C2B20516   5.344   8.920   7.031 -0.0497  0.3953  0.1520
 1306DPPI   C3B20517   5.365   8.891   7.537 -0.0755  0.1919  0.3345
 1306DPPI   C4B20518   5.413   8.926   7.980 -0.2689 -0.0664  0.1413
 1307DPPI    C120519  10.972   0.583   5.596 -0.1958  0.0191  0.0302
 1307DPPI    C220520  10.689   0.338   5.457  0.2059 -0.3562 -0.1517
 1307DPPI    C320521  10.959   0.494   5.207 -0.0102  0.2418 -0.0292
 1307DPPI   PO420522  10.906   0.518   5.894  0.1119  0.2972 -0.0598
 1307DPPI   GL120523  10.871   0.712   6.197 -0.0281  0.0018  0.1488
 1307DPPI   GL220524  11.193   0.567   6.317 -0.1200 -0.0595  0.0855
 1307DPPI   C1A20525  10.731   0.893   6.572  0.1836 -0.1259  0.0721
 1307DPPI   C2A20526  10.793   0.839   7.015  0.0335 -0.4055 -0.0627
 1307DPPI   C3A20527  10.847   0.814   7.374  0.1512 -0.1420  0.0045
 1307DPPI   C4A20528  10.841   0.763   7.697 -0.0241  0.2824  0.3680
 1307DPPI   C1B20529  11.101   0.530   6.715  0.1358 -0.0195 -0.1473
 1307DPPI   C2B20530  11.185   0.482   7.183 -0.2776 -0.2508 -0.0448
 1307DPPI   C3B20531  11.166   0.384   7.668 -0.0139  0.0075  0.1613
 1307DPPI   C4B20532  11.217   0.442   8.059 -0.0164  0.0368 -0.3813
 1308PYPI    C120533   5.661   4.677   5.648  0.0055 -0.1774 -0.1734
 1308PYPI    C220534   5.295   4.692   5.487 -0.0190  0.2064 -0.0904
 1308PYPI    C320535   5.617   4.751   5.257 -0.0185  0.0734 -0.1246
 1308PYPI   PO420536   5.692   4.439   5.785  0.0956  0.0482 -0.0389
 1308PYPI   GL120537   5.636   4.205   6.239  0.1247  0.1914  0.1552
 1308PYPI   GL220538   5.424   4.460   6.232  0.1853  0.1671  0.0565
 1308PYPI   C1A20539   5.451   4.141   6.628 -0.3082  0.2445  0.1165
 1308PYPI   C2A20540   5.522   4.159   7.130  0.1005  0.4587 -0.1153
 1308PYPI   D3A20541   5.403   4.177   7.597  0.0933 -0.1112 -0.2101
 1308PYPI   C4A20542   5.415   4.185   8.107 -0.0965  0.0538  0.1219
 1308PYPI   C1B20543   5.196   4.582   6.678 -0.0669 -0.2113 -0.1905
 1308PYPI   C2B20544   5.014   4.503   7.014  0.0211 -0.2855 -0.1348
 1308PYPI   C3B20545   5.128   4.511   7.394 -0.0847 -0.1930 -0.2235
 1308PYPI   C4B20546   5.059   4.505   7.825 -0.2164  0.2581  0.3461
 1309PYPI    C120547   7.043   7.859   5.693  0.1363 -0.0306 -0.0631
 1309PYPI    C220548   7.219   8.160   5.498  0.0570  0.0305 -0.0413
 1309PYPI    C320549   7.326   7.782   5.421  0.1019  0.0599 -0.1247
 1309PYPI   PO420550   7.056   7.892   5.907  0.0057 -0.3294  0.2923
 1309PYPI   GL120551   6.864   8.019   6.272  0.0575  0.1918 -0.0841
 1309PYPI   GL220552   6.637   8.275   6.245  0.1418 -0.0459 -0.2094
 1309PYPI   C1A20553   6.973   8.087   6.624  0.3517 -0.2536  0.1141
 1309PYPI   C2A20554   7.096   8.081   7.086  0.0273  0.2819 -0.1727
 1309PYPI   D3A20555   7.198   8.016   7.449 -0.1040  0.0716 -0.0080
 1309PYPI   C4A20556   7.060   7.951   7.779  0.0028 -0.2104  0.1011
 1309PYPI   C1B20557   6.644   8.440   6.682  0.0927  0.0884 -0.0182
 1309PYPI   C2B20558   6.691   8.404   7.144  0.0857  0.0157  0.1536
 1309PYPI   C3B20559   6.717   8.376   7.639 -0.2933 -0.0327  0.0931
 1309PYPI   C4B20560   6.693   8.383   8.095  0.2439  0.0555  0.0906
 1310PYPI    C120561   8.753  14.465   5.600  0.0126 -0.1017  0.1790
 1310PYPI    C220562   8.625  14.788   5.401 -0.0861 -0.2244  0.0419
 1310PYPI    C320563   8.897  14.545   5.236 -0.1312 -0.2990  0.0769
 1310PYPI   PO420564   8.767  14.558   5.861  0.1878  0.3106  0.0682
 1310PYPI   GL120565   8.583  14.631   6.202  0.0005  0.0518  0.3521
 1310PYPI   GL220566   8.723  14.748   6.363  0.1986 -0.0746 -0.3173
 1310PYPI   C1A20567   8.322  14.662   6.597  0.1130 -0.0009 -0.0538
 1310PYPI   C2A20568   8.327  14.700   7.037 -0.0489  0.1142 -0.5193
 1310PYPI   D3A20569   8.247  14.688   7.398  0.0354 -0.0335  0.2656
 1310PYPI   C4A20570   8.275  14.642   7.841 -0.2698 -0.3525  0.2114
 1310PYPI   C1B20571   8.775  14.852   6.761 -0.0202 -0.2424 -0.0671
 1310PYPI   C2B20572   8.841  14.819   7.240  0.1863 -0.2026 -0.4595
 1310PYPI   C3B20573   8.706  14.778   7.657  0.0567 -0.2641 -0.0154
 1310PYPI   C4B20574   8.767  14.784   8.134 -0.4813  0.3773  0.0874
 1311PYPI    C120575   3.621  11.509   5.527 -0.0651 -0.0448  0.0606
 1311PYPI    C220576   3.747  11.778   5.259 -0.1286  0.0344  0.1099
 1311PYPI    C320577   3.947  11.435   5.307  0.0168  0.1207  0.1245
 1311PYPI   PO420578   3.700  11.603   5.772 -0.0044 -0.0673 -0.0656
 1311PYPI   GL120579   3.656  11.591   6.215  0.2009  0.0167 -0.1622
 1311PYPI   GL220580   3.835  11.269   6.263 -0.0806 -0.0601  0.1426
 1311PYPI   C1A20581   3.554  11.561   6.652  0.0975 -0.2052 -0.4238
 1311PYPI   C2A20582   3.521  11.551   7.118  0.0291  0.1086 -0.0286
 1311PYPI   D3A20583   3.553  11.591   7.530  0.2913  0.3411 -0.0779
 1311PYPI   C4A20584   3.667  11.688   7.908  0.2445  0.0345 -0.1225
 1311PYPI   C1B20585   3.936  11.300   6.632 -0.0503 -0.3685  0.2076
 1311PYPI   C2B20586   3.930  11.203   7.019  0.0463 -0.0441 -0.0209
 1311PYPI   C3B20587   3.946  11.205   7.435 -0.1839  0.0397  0.1484
 1311PYPI   C4B20588   4.043  11.315   7.887 -0.2575  0.2380  0.3615
 1312PYPI    C120589  11.141   2.082   5.598  0.0282 -0.3678  0.0076
 1312PYPI    C220590  11.248   1.819   5.317  0.2914  0.0234 -0.2694
 1312PYPI    C320591  11.277   2.211   5.245  0.0071  0.1334  0.1746
 1312PYPI   PO420592  11.103   1.937   5.796 -0.0523  0.0790 -0.3668
 1312PYPI   GL120593  10.981   1.719   6.158  0.0881  0.1826  0.2329
 1312PYPI   GL220594  10.832   1.456   6.329 -0.1144 -0.0687  0.0159
 1312PYPI   C1A20595  11.029   1.886   6.524  0.1073 -0.0832 -0.2287
 1312PYPI   C2A20596  11.056   1.911   6.888  0.1090  0.3816  0.0706
 1312PYPI   D3A20597  11.017   1.782   7.286 -0.0023 -0.2320  0.0033
 1312PYPI   C4A20598  10.991   1.855   7.787  0.3401 -0.0424  0.2336
 1312PYPI   C1B20599  10.856   1.380   6.769  0.3516  0.2499 -0.2101
 1312PYPI   C2B20600  10.934   1.280   7.230  0.0225  0.0142  0.1644
 1312PYPI   C3B20601  10.916   1.270   7.747  0.1224 -0.2179  0.1727
 1312PYPI   C4B20602  10.996   1.529   8.148 -0.1956 -0.1023  0.1796
 1313PYPI    C120603  13.300   5.049   5.862  0.1966  0.0106 -0.0186
 1313PYPI    C220604  13.542   4.857   5.608 -0.0848 -0.2261 -0.1133
 1313PYPI    C320605  13.514   4.735   5.988  0.1854  0.0044 -0.0151
 1313PYPI   PO420606  13.383   5.324   5.849  0.1129  0.2072 -0.0589
 1313PYPI   GL120607  13.084   5.614   6.094 -0.0788  0.4659  0.0790
 1313PYPI   GL220608  13.097   5.422   6.376 -0.0133 -0.0612  0.1555
 1313PYPI   C1A20609  13.335   5.878   6.450 -0.1470  0.0370  0.0475
 1313PYPI   C2A20610  13.263   5.934   6.847  0.0034 -0.0371 -0.0643
 1313PYPI   D3A20611  13.253   6.045   7.272 -0.3902 -0.0386  0.1692
 1313PYPI   C4A20612  13.274   5.888   7.642 -0.3173  0.1058  0.1502
 1313PYPI   C1B20613  13.146   5.438   6.891 -0.0304  0.1191  0.0944
 1313PYPI   C2B20614  13.138   5.393   7.358  0.1395  0.0517 -0.0076
 1313PYPI   C3B20615  13.096   5.277   7.791 -0.1230  0.2126  0.3589
 1313PYPI   C4B20616  13.183   5.231   8.258  0.3670  0.1846  0.2221
 1314ERGO   ROH20617  10.463   7.364   6.138 -0.4578  0.4025 -0.0196
 1314ERGO    R120618  10.598   7.294   6.378 -0.4293  0.1588 -0.1047
 1314ERGO    R220619  10.741   7.478   6.527 -0.2147 -0.0457 -0.0619
 1314ERGO    R320620  10.581   7.391   6.728 -0.2138 -0.0103 -0.0438
 1314ERGO    R420621  10.820   7.492   6.863 -0.0780 -0.2558 -0.0820
 1314ERGO    R520622  10.731   7.295   6.887 -0.2265 -0.2021 -0.1399
 1314ERGO    C120623  10.714   7.419   7.247  0.0025 -0.3450 -0.0767
 1314ERGO    C220624  10.695   7.438   7.550  0.2128 -0.0053 -0.1058
 1315ERGO   ROH20625   6.632   0.882   6.341  0.1631 -0.1044 -0.0434
 1315ERGO    R120626   6.605   0.761   6.596  0.0121 -0.0262 -0.0198
 1315ERGO    R220627   6.820   0.723   6.767 -0.0357 -0.2183  0.0058
 1315ERGO    R320628   6.662   0.859   6.941  0.0868 -0.0103 -0.0349
 1315ERGO    R420629   6.812   0.673   7.108 -0.0766 -0.1150  0.0183
 1315ERGO    R520630   6.597   0.697   7.103 -0.0668  0.0894  0.0122
 1315ERGO    C120631   6.661   0.772   7.471  0.0147  0.1404 -0.0126
 1315ERGO    C220632   6.749   0.790   7.738  0.4387  0.1787  0.0330
 1316ERGO   ROH20633  10.488  12.032   6.462 -0.1748 -0.0609 -0.0976
 1316ERGO    R120634  10.338  12.101   6.692 -0.0622 -0.0254 -0.0344
 1316ERGO    R220635  10.210  11.913   6.849 -0.0549  0.0073  0.0074
 1316ERGO    R320636  10.352  12.031   7.048  0.0584 -0.0434 -0.0417
 1316ERGO    R420637  10.141  11.882   7.186 -0.1018  0.2263  0.0197
 1316ERGO    R520638  10.187  12.093   7.210  0.1106  0.1956 -0.0744
 1316ERGO    C120639  10.234  11.974   7.570 -0.0228  0.3061 -0.0192
 1316ERGO    C220640  10.167  12.011   7.878  0.3828  0.1361 -0.2127
 1317ERGO   ROH20641  10.535  14.246   6.152 -0.0039  0.1231 -0.0482
 1317ERGO    R120642  10.465  14.127   6.400 -0.0450  0.1192 -0.0623
 1317ERGO    R220643  10.650  13.997   6.559 -0.1071 -0.0333 -0.1173
 1317ERGO    R320644  10.559  14.169   6.749  0.0343 -0.0128 -0.0664
 1317ERGO    R420645  10.596  13.915   6.890 -0.0918 -0.0669 -0.1226
 1317ERGO    R520646  10.415  14.036   6.886 -0.0216  0.0464 -0.0645
 1317ERGO    C120647  10.480  14.029   7.262  0.0499 -0.0671 -0.0779
 1317ERGO    C220648  10.499  13.989   7.580  0.0977  0.3329  0.1131
 1318ERGO   ROH20649  10.175  17.469   6.335 -0.2236  0.1248 -0.0180
 1318ERGO    R120650  10.040  17.449   6.583 -0.1472 -0.0526  0.0097
 1318ERGO    R220651  10.036  17.215   6.732  0.2001 -0.0553  0.0153
 1318ERGO    R320652  10.130  17.378   6.928  0.0188  0.0783 -0.0043
 1318ERGO    R420653  10.020  17.147   7.070  0.2898 -0.0465  0.0222
 1318ERGO    R520654   9.971  17.356   7.106  0.0443 -0.0934  0.0033
 1318ERGO    C120655  10.099  17.260   7.452  0.1717  0.0838  0.0078
 1318ERGO    C220656  10.190  17.290   7.764  0.1070 -0.1113 -0.2059
 1319ERGO   ROH20657  13.452   3.070   6.655 -0.1335 -0.1373  0.0629
 1319ERGO    R120658  13.540   3.146   6.913 -0.0044 -0.1495  0.0237
 1319ERGO    R220659  13.375   3.271   7.097  0.1715  0.1319  0.0017
 1319ERGO    R320660  13.452   3.065   7.257 -0.0670  0.0894  0.0647
 1319ERGO    R420661  13.388   3.283   7.442  0.0201  0.1594  0.0064
 1319ERGO    R520662  13.574   3.170   7.434 -0.0671  0.0110  0.1083
 1319ERGO    C120663  13.468   3.097   7.793 -0.2917  0.1355  0.0682
 1319ERGO    C220664  13.556   3.130   8.118 -0.0632 -0.0464  0.1736
 1320ERGO   ROH20665   5.722  11.071   6.318  0.1622  0.0090 -0.0846
 1320ERGO    R120666   5.645  10.964   6.568  0.1215  0.0232 -0.0906
 1320ERGO    R220667   5.820  10.823   6.729  0.0830 -0.0108 -0.0754
 1320ERGO    R320668   5.746  11.006   6.916  0.1024  0.0051 -0.0835
 1320ERGO    R420669   5.863  10.786   7.070 -0.1457 -0.1050 -0.0548
 1320ERGO    R520670   5.666  10.875   7.100 -0.0996  0.0275 -0.1548
 1320ERGO    C120671   5.818  10.937   7.444 -0.2607 -0.1449 -0.0505
 1320ERGO    C220672   5.758  10.879   7.743 -0.2815  0.0106 -0.0180
 1321ERGO   ROH20673  15.528   2.265   6.265 -0.1144  0.0471  0.0246
 1321ERGO    R120674  15.618   2.260   6.534 -0.2229 -0.1768  0.0586
 1321ERGO    R220675  15.689   2.489   6.672  0.4263 -0.3442  0.0361
 1321ERGO    R320676  15.508   2.397   6.852  0.0623  0.2302 -0.0093
 1321ERGO    R420677  15.719   2.521   7.014  0.3067 -0.2230  0.0363
 1321ERGO    R520678  15.642   2.318   7.035 -0.2446 -0.0224  0.1162
 1321ERGO    C120679  15.567   2.453   7.384 -0.1045  0.3867 -0.0062
 1321ERGO    C220680  15.638   2.600   7.695  0.0924 -0.3263 -0.0288
 1322ERGO   ROH20681   6.882   1.935   6.424 -0.1427  0.0350  0.0222
 1322ERGO    R120682   6.842   1.814   6.676 -0.1359  0.0829  0.0468
 1322ERGO    R220683   7.048   1.771   6.855 -0.0971 -0.0500 -0.0247
 1322ERGO    R320684   6.887   1.908   7.025  0.0614  0.0816  0.0221
 1322ERGO    R420685   6.999   1.691   7.188 -0.1420 -0.0605 -0.0338
 1322ERGO    R520686   6.788   1.738   7.163 -0.0957  0.1584  0.0013
 1322ERGO    C120687   6.819   1.773   7.541 -0.0195  0.0570  0.0047
 1322ERGO    C220688   6.966   1.780   7.834 -0.1649 -0.1019 -0.2059
 1323ERGO   ROH20689   5.883   9.475   6.434  0.1230 -0.0785  0.0640
 1323ERGO    R120690   6.012   9.530   6.680  0.0481  0.0435  0.0773
 1323ERGO    R220691   5.917   9.717   6.859 -0.0974  0.0189  0.0295
 1323ERGO    R320692   5.928   9.508   7.033 -0.0008  0.0541  0.0659
 1323ERGO    R420693   5.906   9.746   7.203 -0.0093  0.0782  0.0273
 1323ERGO    R520694   6.059   9.590   7.216  0.0297  0.1173  0.0148
 1323ERGO    C120695   5.910   9.567   7.567  0.1327  0.1458  0.0603
 1323ERGO    C220696   6.065   9.586   7.939 -0.2138 -0.1190 -0.3300
 1324ERGO   ROH20697  15.001  14.305   6.691 -0.0897 -0.1149  0.1290
 1324ERGO    R120698  15.137  14.214   6.922 -0.0624 -0.0313  0.1467
 1324ERGO    R220699  15.342  14.356   7.039 -0.0195 -0.0071  0.0478
 1324ERGO    R320700  15.189  14.331   7.262  0.0139  0.1155  0.0846
 1324ERGO    R420701  15.464  14.297   7.358  0.0059 -0.1197  0.0175
 1324ERGO    R520702  15.297  14.161   7.391 -0.1003  0.0205  0.0534
 1324ERGO    C120703  15.390  14.240   7.752  0.0521 -0.0703  0.0345
 1324ERGO    C220704  15.467  14.198   8.046 -0.0001 -0.2656  0.0736
 1325ERGO   ROH20705   1.278   1.166   6.915  0.0204 -0.1612 -0.0390
 1325ERGO    R120706   1.412   1.161   7.164  0.0407  0.0270 -0.0447
 1325ERGO    R220707   1.401   1.371   7.343 -0.1072  0.0821 -0.1186
 1325ERGO    R320708   1.317   1.178   7.515  0.0500  0.0778 -0.0441
 1325ERGO    R420709   1.389   1.404   7.687 -0.3170  0.2821 -0.1423
 1325ERGO    R520710   1.462   1.199   7.704 -0.0654  0.3783  0.0180
 1325ERGO    C120711   1.303   1.242   8.049 -0.2915  0.3946 -0.0862
 1325ERGO    C220712   1.196   1.474   8.391 -0.1285 -0.0252  0.0430
 1326ERGO   ROH20713  17.605  10.677   6.255  0.2588  0.2125  0.0801
 1326ERGO    R120714  17.570  10.800   6.508  0.1667  0.1246  0.1109
 1326ERGO    R220715  17.331  10.792   6.646  0.0670  0.2130 -0.0535
 1326ERGO    R320716  17.486  10.692   6.845 -0.1278  0.0288  0.0104
 1326ERGO    R420717  17.236  10.767   6.977 -0.1374  0.2132 -0.1108
 1326ERGO    R520718  17.436  10.830   7.035 -0.1126  0.0264  0.0160
 1326ERGO    C120719  17.326  10.659   7.357 -0.4394  0.0402 -0.0841
 1326ERGO    C220720  17.364  10.620   7.674  0.1668  0.0057 -0.0103
 1327ERGO   ROH20721   4.975   5.721   6.381 -0.0855 -0.0895  0.1060
 1327ERGO    R120722   4.961   5.876   6.618 -0.0888 -0.0318  0.0684
 1327ERGO    R220723   4.748   5.859   6.794 -0.0471 -0.0577  0.1164
 1327ERGO    R320724   4.945   5.810   6.975  0.0072  0.0564  0.0896
 1327ERGO    R420725   4.705   5.857   7.137 -0.0185 -0.1644  0.1196
 1327ERGO    R520726   4.897   5.958   7.157 -0.0943 -0.0185  0.1250
 1327ERGO    C120727   4.864   5.809   7.507  0.0492 -0.1194  0.0963
 1327ERGO    C220728   4.686   5.748   7.788 -0.1305 -0.0881  0.2112
 1328ERGO   ROH20729   5.674  12.184   6.313  0.1653  0.0045  0.1051
 1328ERGO    R120730   5.709  12.293   6.572  0.0041  0.0110  0.1248
 1328ERGO    R220731   5.496  12.359   6.736 -0.0971 -0.1083  0.0426
 1328ERGO    R320732   5.624  12.197   6.913 -0.0827 -0.0497  0.0862
 1328ERGO    R420733   5.486  12.395   7.079 -0.1521 -0.0554  0.0357
 1328ERGO    R520734   5.698  12.345   7.085 -0.1409 -0.0043  0.0727
 1328ERGO    C120735   5.601  12.265   7.445 -0.1705  0.0304  0.0726
 1328ERGO    C220736   5.519  12.331   7.688 -0.1754 -0.2270 -0.3111
 1329ERGO   ROH20737   2.461   1.955   6.755 -0.1203  0.0430 -0.0238
 1329ERGO    R120738   2.430   2.085   7.004 -0.1183  0.0403 -0.0225
 1329ERGO    R220739   2.263   1.989   7.202  0.0823 -0.1064  0.0764
 1329ERGO    R320740   2.488   2.003   7.354  0.1506  0.1373 -0.0410
 1329ERGO    R420741   2.267   2.050   7.542  0.1778 -0.2109  0.0947
 1329ERGO    R520742   2.442   2.177   7.512  0.0013  0.0313  0.0392
 1329ERGO    C120743   2.481   2.099   7.883  0.2975 -0.0430 -0.0049
 1329ERGO    C220744   2.457   2.017   8.300  0.2558  0.0763 -0.0773
 1330ERGO   ROH20745   1.534  13.234   6.172  0.2832 -0.0060 -0.0373
 1330ERGO    R120746   1.657  13.210   6.426  0.2283 -0.0706 -0.0154
 1330ERGO    R220747   1.626  13.400   6.625  0.2433 -0.0814  0.0056
 1330ERGO    R320748   1.546  13.185   6.772  0.1512 -0.0792 -0.0427
 1330ERGO    R420749   1.611  13.390   6.970  0.0670 -0.1081 -0.0025
 1330ERGO    R520750   1.689  13.187   6.963  0.0490 -0.1077  0.0278
 1330ERGO    C120751   1.527  13.184   7.309 -0.1222 -0.1215 -0.0526
 1330ERGO    C220752   1.556  13.223   7.667  0.4546 -0.0396  0.1057
 1331ERGO   ROH20753   1.140   2.100   6.742  0.1119 -0.1163 -0.1267
 1331ERGO    R120754   1.060   2.026   7.003  0.0521 -0.1083 -0.1421
 1331ERGO    R220755   1.234   1.914   7.187  0.0083 -0.1150 -0.1014
 1331ERGO    R320756   1.149   2.119   7.344 -0.0149 -0.1070 -0.1253
 1331ERGO    R420757   1.214   1.904   7.531  0.0754 -0.0515 -0.0955
 1331ERGO    R520758   1.026   2.013   7.519  0.0461 -0.1034 -0.0813
 1331ERGO    C120759   1.122   2.090   7.880  0.0926 -0.0070 -0.1146
 1331ERGO    C220760   1.132   2.047   8.233 -0.4068 -0.2413 -0.2194
 1332ERGO   ROH20761   8.428   7.867   6.258  0.1810 -0.0756 -0.0444
 1332ERGO    R120762   8.362   7.681   6.461  0.1789 -0.0641 -0.0346
 1332ERGO    R220763   8.544   7.597   6.652  0.1334  0.0631  0.0646
 1332ERGO    R320764   8.351   7.679   6.825  0.0168  0.0076 -0.0380
 1332ERGO    R420765   8.540   7.528   6.990  0.0004  0.0979  0.0708
 1332ERGO    R520766   8.325   7.495   6.976  0.0174  0.0119 -0.0303
 1332ERGO    C120767   8.357   7.564   7.350 -0.1864  0.0661 -0.0220
 1332ERGO    C220768   8.510   7.575   7.705 -0.1260  0.0661 -0.1427
 1333ERGO   ROH20769   1.136  12.993   6.239 -0.5105  0.1072 -0.0722
 1333ERGO    R120770   1.206  13.014   6.512 -0.2482  0.0575 -0.1330
 1333ERGO    R220771   1.134  13.231   6.668 -0.0725  0.0437 -0.0320
 1333ERGO    R320772   1.029  13.039   6.829  0.0541  0.0345  0.0415
 1333ERGO    R420773   1.133  13.243   7.013 -0.0854  0.1781 -0.0360
 1333ERGO    R520774   1.179  13.030   7.016  0.0589  0.2089  0.0483
 1333ERGO    C120775   1.033  13.070   7.366  0.0259  0.2477  0.0306
 1333ERGO    C220776   1.068  13.060   7.773  0.3285 -0.0264  0.2773
 1334ERGO   ROH20777  17.005   4.900   6.582  0.0933 -0.1486  0.0874
 1334ERGO    R120778  17.162   4.813   6.801  0.2709  0.0847  0.0572
 1334ERGO    R220779  17.331   4.983   6.940 -0.1861  0.4261  0.2247
 1334ERGO    R320780  17.190   4.893   7.155 -0.0240 -0.1018  0.1247
 1334ERGO    R420781  17.451   4.964   7.264 -0.1496  0.2409  0.2010
 1334ERGO    R520782  17.349   4.773   7.286  0.1968  0.0212 -0.0301
 1334ERGO    C120783  17.389   4.868   7.653  0.0237 -0.3626  0.0931
 1334ERGO    C220784  17.412   4.989   7.962 -0.1829  0.1747  0.1136
 1335ERGO   ROH20785   3.653   2.699   6.319 -0.0710  0.0443 -0.0816
 1335ERGO    R120786   3.776   2.576   6.542  0.1907  0.2059 -0.1308
 1335ERGO    R220787   3.947   2.712   6.712 -0.1185  0.5187 -0.0471
 1335ERGO    R320788   3.775   2.623   6.903  0.0475  0.0379 -0.1099
 1335ERGO    R420789   4.031   2.656   7.043 -0.0577  0.5783 -0.0530
 1335ERGO    R520790   3.908   2.477   7.039  0.3614  0.2890 -0.1444
 1335ERGO    C120791   3.919   2.541   7.415  0.1334  0.1615 -0.1155
 1335ERGO    C220792   3.886   2.508   7.835  0.0482 -0.1161 -0.0805
 1336ERGO   ROH20793   2.928  12.915   6.241 -0.0264  0.0872  0.0876
 1336ERGO    R120794   2.814  12.860   6.494 -0.0149  0.1312  0.1014
 1336ERGO    R220795   2.926  12.681   6.672 -0.0115  0.1616  0.1217
 1336ERGO    R320796   2.914  12.893   6.842 -0.0007  0.1859  0.0939
 1336ERGO    R420797   2.913  12.657   7.016  0.0295  0.1990  0.1268
 1336ERGO    R520798   2.768  12.820   7.017  0.0189  0.1974  0.1208
 1336ERGO    C120799   2.894  12.841   7.377  0.0635  0.2438  0.1037
 1336ERGO    C220800   2.843  12.690   7.704  0.2205  0.2301  0.1979
 1337ERGO   ROH20801   2.730   7.003   6.343  0.0317 -0.0939  0.0589
 1337ERGO    R120802   2.673   7.110   6.598  0.0363 -0.0432  0.0394
 1337ERGO    R220803   2.581   6.956   6.807 -0.1459  0.0297  0.0189
 1337ERGO    R320804   2.794   7.063   6.938 -0.1004 -0.1288  0.0763
 1337ERGO    R420805   2.594   7.012   7.148 -0.2525  0.1558  0.0023
 1337ERGO    R520806   2.695   7.202   7.107 -0.0436  0.0392 -0.0278
 1337ERGO    C120807   2.801   7.146   7.469 -0.2718  0.0805  0.0466
 1337ERGO    C220808   2.731   7.027   7.760 -0.3531 -0.3112  0.1094
 1338ERGO   ROH20809  14.668  16.535   6.552 -0.2442  0.0180 -0.0267
 1338ERGO    R120810  14.733  16.445   6.812 -0.1062  0.0270 -0.0574
 1338ERGO    R220811  14.871  16.601   6.995 -0.0334  0.0432 -0.1253
 1338ERGO    R320812  14.658  16.544   7.154  0.0510  0.0210 -0.0199
 1338ERGO    R420813  14.877  16.596   7.340  0.1035  0.1999 -0.1245
 1338ERGO    R520814  14.750  16.419   7.335  0.1764  0.1409  0.0017
 1338ERGO    C120815  14.681  16.539   7.691  0.2624  0.2702 -0.0252
 1338ERGO    C220816  14.583  16.724   7.905 -0.2601 -0.0619 -0.4533
 1339ERGO   ROH20817   7.194   6.831   6.439 -0.0445 -0.1548 -0.1492
 1339ERGO    R120818   7.261   6.687   6.674 -0.2811 -0.1869 -0.0995
 1339ERGO    R220819   7.421   6.794   6.873 -0.0365 -0.4057 -0.1742
 1339ERGO    R320820   7.210   6.729   7.031 -0.1441  0.0688 -0.1071
 1339ERGO    R420821   7.437   6.737   7.214 -0.0997 -0.2481 -0.1439
 1339ERGO    R520822   7.298   6.572   7.189 -0.4103 -0.0114 -0.0327
 1339ERGO    C120823   7.248   6.643   7.560 -0.2375  0.2891 -0.0632
 1339ERGO    C220824   7.322   6.616   7.864  0.1875 -0.2347 -0.1192
 1340ERGO   ROH20825  11.436   1.904   6.272  0.0504 -0.0479  0.0364
 1340ERGO    R120826  11.576   1.987   6.504  0.0098  0.0503  0.0279
 1340ERGO    R220827  11.469   2.162   6.688 -0.1000 -0.0170  0.0361
 1340ERGO    R320828  11.528   1.963   6.864  0.0441  0.0204  0.0291
 1340ERGO    R420829  11.426   2.181   7.031 -0.1347 -0.0763  0.0342
 1340ERGO    R520830  11.616   2.077   7.056 -0.0584  0.0727  0.0406
 1340ERGO    C120831  11.457   2.005   7.395 -0.0198 -0.0757  0.0266
 1340ERGO    C220832  11.451   1.985   7.747  0.0253  0.0909  0.0810
 1341ERGO   ROH20833   8.133  10.291   6.450  0.1871  0.1233 -0.0671
 1341ERGO    R120834   7.984  10.324   6.688  0.1119  0.1531 -0.1180
 1341ERGO    R220835   7.963  10.126   6.879 -0.0160  0.1472 -0.1378
 1341ERGO    R320836   8.053  10.321   7.046 -0.0162  0.1098 -0.0933
 1341ERGO    R420837   7.990  10.095   7.222  0.4086 -0.0892 -0.1848
 1341ERGO    R520838   7.916  10.300   7.241  0.2263 -0.1728  0.0536
 1341ERGO    C120839   8.090  10.260   7.578  0.6557 -0.2617 -0.1704
 1341ERGO    C220840   8.074  10.161   7.921  0.0869  0.2491 -0.1707
 1342ERGO   ROH20841  11.989   6.288   6.222 -0.0981  0.0011  0.0050
 1342ERGO    R120842  12.034   6.387   6.484 -0.1283  0.0038  0.0083
 1342ERGO    R220843  11.829   6.438   6.661 -0.1400 -0.0762  0.0106
 1342ERGO    R320844  11.972   6.274   6.824 -0.0827 -0.0319  0.0067
 1342ERGO    R420845  11.783   6.409   7.003 -0.2461 -0.2095 -0.0135
 1342ERGO    R520846  11.999   6.400   7.026 -0.2405 -0.0692  0.0578
 1342ERGO    C120847  11.891   6.238   7.354 -0.2542 -0.2455 -0.0313
 1342ERGO    C220848  11.867   6.322   7.629 -0.1134 -0.0519 -0.0168
 1343ERGO   ROH20849   9.730   3.733   6.142  0.0318 -0.1566  0.1879
 1343ERGO    R120850   9.608   3.852   6.368 -0.0591 -0.1158  0.1190
 1343ERGO    R220851   9.457   3.708   6.549 -0.0461 -0.1057  0.1445
 1343ERGO    R320852   9.629   3.816   6.729 -0.1184  0.0246  0.1357
 1343ERGO    R420853   9.451   3.646   6.889  0.0505 -0.1361  0.1405
 1343ERGO    R520854   9.494   3.857   6.923 -0.1263 -0.1063  0.1539
 1343ERGO    C120855   9.608   3.711   7.256  0.0390 -0.0315  0.1301
 1343ERGO    C220856   9.529   3.751   7.636 -0.0945  0.1860  0.3987
 1344ERGO   ROH20857  16.460   5.787   6.726 -0.0967  0.2452 -0.0193
 1344ERGO    R120858  16.381   5.588   6.912 -0.0829  0.1281 -0.1370
 1344ERGO    R220859  16.547   5.500   7.115 -0.0557 -0.0235 -0.2240
 1344ERGO    R320860  16.336   5.567   7.272 -0.0219 -0.1078 -0.1418
 1344ERGO    R420861  16.525   5.435   7.454  0.1373  0.0394 -0.1983
 1344ERGO    R520862  16.315   5.384   7.425  0.1522 -0.0863 -0.0901
 1344ERGO    C120863  16.314   5.461   7.799  0.2812 -0.0033 -0.1063
 1344ERGO    C220864  16.462   5.558   8.127  0.0898  0.4228  0.1001
 1345ERGO   ROH20865  13.729  11.005   6.433 -0.1077  0.1417  0.0034
 1345ERGO    R120866  13.688  11.026   6.713 -0.1850  0.0721 -0.0017
 1345ERGO    R220867  13.535  10.846   6.855 -0.0837 -0.0630 -0.0597
 1345ERGO    R320868  13.759  10.823   7.006 -0.0992  0.0818 -0.0153
 1345ERGO    R420869  13.538  10.810   7.198 -0.1311  0.0159 -0.0518
 1345ERGO    R520870  13.708  10.946   7.206 -0.1978  0.1026 -0.0518
 1345ERGO    C120871  13.750  10.768   7.541 -0.1734  0.1978 -0.0054
 1345ERGO    C220872  13.721  10.883   7.900  0.2955  0.1922 -0.1841
 1346ERGO   ROH20873  16.793   3.937   6.645  0.0857 -0.0116 -0.0966
 1346ERGO    R120874  16.890   3.842   6.894  0.0372 -0.1391 -0.1265
 1346ERGO    R220875  16.923   4.006   7.113  0.1110 -0.2281 -0.0745
 1346ERGO    R320876  16.766   3.821   7.235  0.0233 -0.1946 -0.1340
 1346ERGO    R420877  16.934   3.930   7.450 -0.0044 -0.2550 -0.0759
 1346ERGO    R520878  16.910   3.719   7.398 -0.0484 -0.2469 -0.0999
 1346ERGO    C120879  16.792   3.711   7.761 -0.1540 -0.2391 -0.1327
 1346ERGO    C220880  16.743   3.702   8.113 -0.0253  0.2822  0.1404
 1347W        W20881  10.289  16.069   2.690 -0.0084 -0.1104 -0.3036
 1348W        W20882   8.213   0.030  15.637 -0.4113 -0.0096  0.1398
 1349W        W20883  11.951  16.514   0.352 -0.2765  0.3233  0.0264
 1350W        W20884   3.747   2.202   4.443  0.0758 -0.1181  0.2791
 1351W        W20885   9.455   7.057  12.551  0.0068 -0.3049  0.0259
 1352W        W20886   8.590  13.984  16.712  0.3619  0.1252 -0.1076
 1353W        W20887   5.657  15.980   2.679  0.0432 -0.0212  0.0966
 1354W        W20888   2.993   1.221  13.884  0.1671  0.0832 -0.0400
 1355W        W20889   8.824   6.037   2.064  0.1873 -0.1823  0.0756
 1356W        W20890  15.789   5.631  14.547 -0.0963  0.0128  0.0572
 1357W        W20891   4.609   5.797  16.396  0.1766 -0.1424  0.3753
 1358W        W20892   4.078  16.800  14.617 -0.0199 -0.1253  0.1730
 1359W        W20893   3.836   5.779   4.870 -0.0203 -0.3119  0.1249
 1360W        W20894   4.197  17.077  16.934 -0.0869  0.4272 -0.2040
 1361W        W20895   2.672  17.652  16.869 -0.1592 -0.1543 -0.1035
 1362W        W20896  17.415  16.805   2.108  0.1630 -0.0362 -0.0864
 1363W        W20897  10.540  10.211   4.336  0.1608 -0.1008 -0.1081
 1364W        W20898   3.334  10.164  15.821 -0.0038 -0.0678 -0.0447
 1365W        W20899  13.218   7.987   0.023 -0.1523  0.0035  0.2660
 1366W        W20900  11.068   4.111   3.986 -0.2581  0.2528 -0.0771
 1367W        W20901  11.525  13.215  15.689 -0.0220  0.0398 -0.1198
 1368W        W20902   3.348  12.775  12.486 -0.1666  0.0765 -0.2364
 1369W        W20903  14.179   7.531   2.001 -0.1607 -0.1282  0.2625
 1370W        W20904  15.451  16.244  14.223  0.2778 -0.2244 -0.2714
 1371W        W20905   2.726   6.195  12.786  0.1020  0.0105  0.0232
 1372W        W20906  13.602   9.915  12.581  0.1557  0.2531  0.1920
 1373W        W20907  16.896   9.929   5.353 -0.0704 -0.2213  0.1257
 1374W        W20908  15.951  17.076  13.191  0.1561 -0.0797 -0.0075
 1375W        W20909  16.605  15.835  15.826 -0.0221 -0.0733  0.2195
 1376W        W20910   4.953   2.782   4.403 -0.1236 -0.1479  0.1284
 1377W        W20911  12.530  14.276   1.413  0.0995 -0.1108 -0.0110
 1378W        W20912  14.406   9.226  11.849 -0.3355 -0.2212  0.0784
 1379W        W20913   0.349   7.954   2.294 -0.2002  0.2233 -0.0772
 1380W        W20914   7.531  10.712   2.788  0.3693  0.0024 -0.2630
 1381W        W20915   4.792  10.442  16.909  0.1232  0.0628 -0.1432
 1382W        W20916  10.875   5.781  13.887 -0.2156 -0.1061  0.1887
 1383W        W20917   1.158   6.569  12.165  0.0405  0.3097  0.0366
 1384W        W20918   1.730  16.866  12.607 -0.1140 -0.0933 -0.0310
 1385W        W20919   8.470   1.558  14.009  0.1629  0.2018  0.2150
 1386W        W20920  12.959   5.928   0.404  0.1354  0.0627 -0.1184
 1387W        W20921  16.365   6.651   2.639 -0.0637  0.5004 -0.0384
 1388W        W20922  13.949   6.028   4.138  0.0451  0.2090  0.0966
 1389W        W20923  16.551   4.813  12.568  0.2459  0.1578 -0.2807
 1390W        W20924   7.193   1.605   0.151 -0.0574  0.2995  0.2934
 1391W        W20925   7.695  12.440  11.793 -0.2372 -0.0055  0.1620
 1392W        W20926  10.971   7.523   6.105 -0.0437 -0.1725  0.0335
 1393W        W20927  14.206   4.981  13.316  0.1771  0.1347 -0.1966
 1394W        W20928  13.697  12.219  12.661  0.2353 -0.0658  0.1480
 1395W        W20929  10.047   2.396  12.002 -0.0228  0.1224 -0.4141
 1396W        W20930  13.747  12.170   1.784  0.1496 -0.0670 -0.0031
 1397W        W20931   8.475  17.017   3.757 -0.1118 -0.1492 -0.2171
 1398W        W20932   0.428   5.778  12.018  0.0511 -0.1161 -0.0839
 1399W        W20933   4.524   6.264  12.461  0.0918  0.1533  0.0098
 1400W        W20934   9.877  16.274   4.087  0.1333 -0.0320  0.2543
 1401W        W20935   8.246   9.859  12.884  0.1341  0.1834 -0.1078
 1402W        W20936  17.608   1.943  13.754  0.0392 -0.0927  0.2581
 1403W        W20937   7.694   1.330   4.092 -0.1236  0.0595  0.0766
 1404W        W20938   8.560  14.961   4.475  0.0511 -0.0509  0.0663
 1405W        W20939  15.591   1.187  12.809  0.2019  0.0210  0.0676
 1406W        W20940  15.457   1.740  14.574 -0.2107 -0.1263 -0.1464
 1407W        W20941  12.126  17.454   4.578  0.3171  0.4138  0.0057
 1408W        W20942   4.724   7.060  14.211  0.1091 -0.0697 -0.0992
 1409W        W20943  17.238   1.434   1.083 -0.2198  0.0877 -0.4043
 1410W        W20944   3.924  15.728   5.011 -0.0738 -0.3533 -0.1747
 1411W        W20945  11.198  12.049   1.749 -0.0090 -0.4166  0.0159
 1412W        W20946   5.642   0.157   1.368  0.0103  0.1937  0.0932
 1413W        W20947   5.984  11.880  12.203  0.0815 -0.3925 -0.0186
 1414W        W20948  13.006   4.421  14.616 -0.1552  0.0094 -0.0051
 1415W        W20949   2.794   2.570  13.120  0.1525  0.2496  0.0327
 1416W        W20950   6.028  14.752   4.064 -0.1217  0.1502 -0.1854
 1417W        W20951   0.587   8.103   1.334 -0.2081 -0.4030 -0.1330
 1418W        W20952  16.436   5.051   1.952 -0.0178  0.1304  0.1303
 1419W        W20953  11.475  14.600  14.290 -0.2373  0.1493  0.3045
 1420W        W20954   2.431   0.718  12.298 -0.1550 -0.0825  0.1025
 1421W        W20955  13.563   9.899   3.745  0.3595 -0.0966 -0.1078
 1422W        W20956   1.102   5.294  14.668  0.1151 -0.1404  0.1557
 1423W        W20957   6.546  14.829   1.572  0.1053 -0.2013 -0.0597
 1424W        W20958   0.429   6.171   0.762 -0.0611  0.3701  0.1643
 1425W        W20959  16.086   0.355  12.899  0.0405 -0.2283  0.0378
 1426W        W20960   4.642   7.583   4.121  0.0954  0.1435 -0.2637
 1427W        W20961  10.357  14.449  13.712 -0.1023 -0.0907 -0.1371
 1428W        W20962   5.313   9.032   4.018  0.1792  0.1380  0.0374
 1429W        W20963   9.168  12.832  12.189 -0.0562  0.0282 -0.0672
 1430W        W20964  12.438  10.604   1.562  0.0578  0.3020 -0.2257
 1431W        W20965  14.777   6.310   3.592  0.2791 -0.0653  0.2018
 1432W        W20966   1.611  14.655   4.219 -0.1662  0.1045 -0.2102
 1433W        W20967   6.831   5.901   3.995 -0.4229  0.1091  0.0565
 1434W        W20968  14.491  14.851   5.228  0.2249  0.0163  0.0149
 1435W        W20969   6.503   1.088  14.817  0.0196  0.0103 -0.1313
 1436W        W20970  11.396  15.325  12.424 -0.0413 -0.1697  0.0662
 1437W        W20971   4.607  12.982   4.827 -0.0187 -0.1533  0.2099
 1438W        W20972  14.790  13.912  13.675 -0.1161 -0.0245  0.0425
 1439W        W20973  13.683  16.272   2.901 -0.3837 -0.2566 -0.3578
 1440W        W20974  13.437   1.591  16.407 -0.1039  0.0420  0.0830
 1441W        W20975   9.643  15.317   1.656 -0.0984 -0.2893 -0.0060
 1442W        W20976   3.576  13.386   0.475  0.1845 -0.1305  0.0196
 1443W        W20977   7.718  10.720  16.279 -0.2630  0.0038 -0.0489
 1444W        W20978  12.835   6.309  16.377  0.0243  0.2345 -0.3995
 1445W        W20979   4.746  16.889   2.390 -0.0370 -0.1343  0.0102
 1446W        W20980   6.893  12.483   3.027 -0.1946  0.1891  0.1381
 1447W        W20981   6.085   8.785   1.018  0.2125  0.0409 -0.2616
 1448W        W20982   8.306   6.235  14.511 -0.4630 -0.1992  0.1006
 1449W        W20983   9.146   9.572   0.814  0.0048 -0.1496 -0.1583
 1450W        W20984   6.332   2.116   4.115 -0.1519  0.1162  0.1542
 1451W        W20985   1.482  17.117   4.706  0.2663  0.2221  0.0386
 1452W        W20986  10.739   6.695   4.818  0.3396 -0.3565  0.1869
 1453W        W20987   6.256  10.273   0.936 -0.2321 -0.1780  0.1418
 1454W        W20988   9.812  15.124  14.875  0.1373  0.1953 -0.0178
 1455W        W20989  13.070  15.267   1.441  0.0496 -0.0213 -0.3693
 1456W        W20990  14.066   9.797   3.572 -0.2939 -0.2203 -0.1565
 1457W        W20991   0.095  10.576  14.031 -0.1271  0.1139  0.0045
 1458W        W20992   9.387   4.356   1.248  0.4788  0.1703  0.2668
 1459W        W20993   6.343   2.700   3.050 -0.0378 -0.1594 -0.0068
 1460W        W20994   3.101   0.967   1.814  0.1399  0.1049 -0.0256
 1461W        W20995  12.025  10.645  16.531  0.0112  0.3554 -0.3862
 1462W        W20996   7.283   0.167  17.037  0.0318 -0.0708 -0.0420
 1463W        W20997  16.945   4.966   1.892  0.0003 -0.1020  0.1820
 1464W        W20998  10.744  10.328  12.462  0.0208 -0.0510 -0.0804
 1465W        W20999  10.597   6.326   2.379  0.0621  0.4362  0.0274
 1466W        W21000  13.606  14.065   3.642  0.2194  0.3326 -0.0011
 1467W        W21001  13.754  15.340  15.209  0.0618 -0.1122 -0.3520
 1468W        W21002  17.090  12.475   1.961  0.2670  0.0442  0.1869
 1469W        W21003   2.978   4.289  15.978  0.0592  0.2284 -0.1002
 1470W        W21004   2.932   3.472  15.297  0.2184  0.0873 -0.2514
 1471W        W21005   5.347   0.594   1.417  0.0917  0.0346 -0.2544
 1472W        W21006   5.662   9.950  16.139 -0.0277  0.0767 -0.2843
 1473W        W21007  11.467  10.927   2.765 -0.1144  0.0088 -0.0694
 1474W        W21008   3.156   3.908  13.329  0.1206 -0.3306 -0.1957
 1475W        W21009  15.780  14.826  14.818 -0.1724 -0.1095 -0.0227
 1476W        W21010  11.609   7.786   2.365 -0.1092  0.0377  0.1312
 1477W        W21011   6.373   1.596  12.896  0.3129 -0.1112 -0.0659
 1478W        W21012   5.659   6.535  13.254 -0.2270 -0.1437  0.1134
 1479W        W21013   4.033   2.830  14.611  0.3999  0.0644  0.2119
 1480W        W21014   2.727  10.731   1.528  0.1383  0.1330  0.3374
 1481W        W21015   6.415  12.479  14.702 -0.1314 -0.0847  0.1093
 1482W        W21016   5.972   8.739  16.243 -0.1277 -0.0963  0.1041
 1483W        W21017  17.082   3.310  12.608  0.1308 -0.2103  0.0072
 1484W        W21018   7.721   8.642  14.768 -0.3917  0.2061 -0.1022
 1485W        W21019   9.449  16.991   4.089  0.2754 -0.5278  0.0987
 1486W        W21020  13.345   4.588  16.964 -0.1608  0.1557 -0.1370
 1487W        W21021  16.219   8.019  16.903  0.2909  0.3248  0.0554
 1488W        W21022   2.843   2.386  13.739  0.0333 -0.0814 -0.3314
 1489W        W21023   2.160   9.897   5.017 -0.1308 -0.1417 -0.0893
 1490W        W21024  15.997   2.971  16.068  0.1531 -0.3312 -0.2946
 1491W        W21025  14.086  10.820   1.261 -0.0292  0.0577  0.3442
 1492W        W21026   0.878   9.886   3.019  0.0876  0.0966 -0.1034
 1493W        W21027   4.817   3.961   4.419 -0.2489  0.0592  0.0007
 1494W        W21028   9.144   2.701  13.884  0.0351  0.1423 -0.0981
 1495W        W21029   5.051   7.161   2.076  0.1424 -0.0223 -0.2852
 1496W        W21030  12.847   2.466   2.754 -0.2943  0.0071  0.2643
 1497W        W21031   5.834   7.309   4.635  0.0441  0.3247 -0.1456
 1498W        W21032   1.741  13.732  13.170  0.1262  0.1198 -0.2295
 1499W        W21033  15.124   9.773  15.950  0.2789  0.1601 -0.0238
 1500W        W21034   4.383   6.641   3.756 -0.0768 -0.1940 -0.0615
 1501W        W21035  14.155  11.678  15.766  0.1248 -0.1179 -0.1725
 1502W        W21036   4.529   2.781  12.771 -0.4012  0.0908  0.4042
 1503W        W21037   2.683  14.413  14.426 -0.0930 -0.2670  0.1088
 1504W        W21038  13.253   6.513   0.257  0.0383  0.0574 -0.0735
 1505W        W21039  14.201   2.667   0.623  0.0536  0.1580  0.0205
 1506W        W21040   3.720   0.583  16.454  0.0725 -0.0001  0.0156
 1507W        W21041   9.593  11.625  16.532 -0.0740 -0.1581 -0.0438
 1508W        W21042  14.776  17.462  12.967 -0.0136 -0.1158  0.0214
 1509W        W21043  14.754   7.887   3.209 -0.1012  0.0293  0.1647
 1510W        W21044   6.474  10.066   4.977 -0.1407 -0.0056  0.2068
 1511W        W21045  13.113  15.290  15.937 -0.0873 -0.3357 -0.0732
 1512W        W21046   4.597  17.056   4.443 -0.0271  0.1337  0.0973
 1513W        W21047   6.320   1.555  14.031  0.0356 -0.0483  0.2058
 1514W        W21048  12.922  14.182  13.923  0.1690 -0.1537  0.0171
 1515W        W21049   0.359   2.184  14.583 -0.1702  0.3067  0.4323
 1516W        W21050   8.296  16.575   0.693 -0.1977  0.1219  0.3285
 1517W        W21051  14.298  16.224  13.077  0.0465 -0.3459  0.1634
 1518W        W21052   3.068  16.086   2.921 -0.0396 -0.1108 -0.1834
 1519W        W21053   8.761   1.883   3.187  0.2397  0.0771 -0.1195
 1520W        W21054   1.523   8.848   1.973  0.2282  0.0840  0.5345
 1521W        W21055  14.767  13.672   6.716 -0.2017 -0.0375  0.2641
 1522W        W21056   7.606   8.444  12.615 -0.2626 -0.1073 -0.6148
 1523W        W21057   3.356  12.375  12.756 -0.3135  0.1874  0.1133
 1524W        W21058  15.983   4.376   2.550 -0.1659  0.1691 -0.1268
 1525W        W21059   9.347  10.028   1.231 -0.2717  0.1907  0.2037
 1526W        W21060  11.770  14.758   0.393  0.0965  0.0314 -0.1586
 1527W        W21061   6.168  12.629   2.829 -0.1100 -0.1438  0.1359
 1528W        W21062   9.607  10.560   1.494 -0.0064  0.2729  0.0237
 1529W        W21063  15.209   1.760   2.977 -0.1771 -0.1460 -0.0120
 1530W        W21064   4.757  11.081   2.494 -0.0564  0.1196  0.0088
 1531W        W21065   3.794   8.458   2.858  0.0674  0.1522  0.2081
 1532W        W21066   0.822  14.266  14.965 -0.0491  0.4349 -0.1093
 1533W        W21067  16.931   0.873  14.357  0.1914  0.0476 -0.1502
 1534W        W21068  13.047   1.618   0.554 -0.0659  0.1130  0.4306
 1535W        W21069   3.629  17.106  13.541 -0.1349  0.0664 -0.1835
 1536W        W21070  15.189  11.469  13.749 -0.2915 -0.1912 -0.0168
 1537W        W21071   9.758  12.354  15.901  0.0284  0.1745 -0.0796
 1538W        W21072   0.118   9.235   2.912  0.1235 -0.1096 -0.2051
 1539W        W21073  12.242  17.633  15.767 -0.0521 -0.1618  0.0211
 1540W        W21074  10.406  16.786   3.445 -0.0219  0.2140 -0.2513
 1541W        W21075   4.018  16.421   3.959  0.1486  0.1550  0.4074
 1542W        W21076  15.458   5.794   3.314  0.0842 -0.0554 -0.0091
 1543W        W21077  14.956   2.563   2.993  0.0814  0.2016  0.2513
 1544W        W21078   8.407   6.177  16.651 -0.1980 -0.0329 -0.1592
 1545W        W21079   7.751   0.020   0.663 -0.0503 -0.1235 -0.0094
 1546W        W21080  14.592   9.867   3.840  0.1431 -0.0176 -0.2645
 1547W        W21081   8.900  13.085  15.713 -0.2882  0.0774  0.0516
 1548W        W21082   3.966  12.071  15.675 -0.1194 -0.0177  0.4268
 1549W        W21083   9.012   7.640   0.987  0.1705  0.1251 -0.0205
 1550W        W21084  15.187   8.475   2.784  0.0787 -0.0201  0.0197
 1551W        W21085   5.942  17.073   4.064  0.1160  0.0291 -0.0367
 1552W        W21086   8.442  17.141  14.175 -0.0238  0.1017  0.0804
 1553W        W21087   2.010  11.795  12.985 -0.0033  0.0654  0.0578
 1554W        W21088  15.485  15.693   0.429  0.1312 -0.1163 -0.0508
 1555W        W21089  12.603  15.689   2.341  0.1982 -0.2464  0.3210
 1556W        W21090  10.981  14.434  16.554 -0.1403  0.1708  0.1567
 1557W        W21091   0.415   6.380  13.418  0.0366 -0.0772 -0.0526
 1558W        W21092   5.320   0.427   2.363  0.0015  0.2028 -0.0986
 1559W        W21093  16.188  10.328  15.779 -0.0351 -0.0775  0.1466
 1560W        W21094  12.955   9.015  15.323 -0.0785 -0.0815 -0.0116
 1561W        W21095   4.023  14.883  11.964  0.0110 -0.0256  0.0266
 1562W        W21096  17.438   0.070   4.473  0.0002 -0.2451  0.1116
 1563W        W21097  13.302   7.117  16.722  0.0407 -0.2396 -0.1070
 1564W        W21098   2.389   8.321   0.821 -0.0755  0.0995 -0.1759
 1565W        W21099   5.670   3.164   0.703 -0.1295  0.1153  0.1750
 1566W        W21100   1.683   9.497  14.678  0.0256  0.0313  0.2110
 1567W        W21101   4.024   9.735  13.003  0.1832 -0.1777 -0.1460
 1568W        W21102  13.650  16.430  13.744 -0.1030  0.4506 -0.0167
 1569W        W21103   6.879  13.309  15.110 -0.0113  0.1373 -0.0434
 1570W        W21104  11.486   4.849   2.774 -0.1548 -0.1453 -0.1681
 1571W        W21105   0.798   2.400  14.462  0.2158 -0.0396 -0.1252
 1572W        W21106   8.183  17.504  14.430  0.0096  0.0210  0.1273
 1573W        W21107   7.372   8.862   4.356  0.0602  0.5656 -0.1508
 1574W        W21108  13.297  12.936  12.619  0.1900 -0.1527 -0.1666
 1575W        W21109   3.264  13.188   3.717 -0.2235 -0.3594  0.0683
 1576W        W21110  15.424   4.827   2.553  0.3931  0.1709 -0.0073
 1577W        W21111   6.228  12.377   4.290  0.0917  0.2955  0.1621
 1578W        W21112   8.684  11.271   4.838  0.2302 -0.0036  0.0261
 1579W        W21113  16.971   2.899   4.714 -0.0916 -0.0330 -0.0524
 1580W        W21114   2.543  12.429  13.470  0.0739 -0.0054 -0.0382
 1581W        W21115  13.387  15.360   5.012 -0.2952  0.2210  0.4482
 1582W        W21116   9.308   4.230   0.283  0.0293 -0.1274  0.0153
 1583W        W21117   5.912   7.796   2.983  0.0230  0.2965 -0.1987
 1584W        W21118   2.108  14.081   0.880  0.1985  0.0929 -0.0840
 1585W        W21119  15.867   3.268  16.889  0.1104  0.0786 -0.0809
 1586W        W21120   8.026   9.739   1.911  0.1215 -0.1322 -0.0181
 1587W        W21121  17.148   9.057   2.037 -0.0372 -0.3157  0.2025
 1588W        W21122  11.889   7.418   2.415  0.2341  0.1035 -0.1012
 1589W        W21123   4.206  12.902  15.429  0.3083  0.1125  0.2697
 1590W        W21124   3.291  17.090   2.896  0.1668  0.1161 -0.5445
 1591W        W21125   0.613   9.050   2.513 -0.0618 -0.2052  0.1351
 1592W        W21126   1.543  13.818  16.608 -0.1233  0.1777  0.0766
 1593W        W21127   3.075   2.543   0.599  0.2201  0.0181  0.0233
 1594W        W21128  12.283  14.173   1.889  0.2725  0.1296 -0.1912
 1595W        W21129   2.634  12.666  16.127 -0.2222 -0.0671 -0.0780
 1596W        W21130  11.137  14.989   0.922  0.0395  0.1020  0.2689
 1597W        W21131   1.351  15.384  13.813  0.1485 -0.2180 -0.0310
 1598W        W21132  17.017  11.951   2.143  0.1990 -0.2022 -0.0496
 1599W        W21133  16.861  11.825  12.889  0.1210  0.0333  0.1990
 1600W        W21134   6.625   7.159  12.353 -0.1105 -0.1793  0.1739
 1601W        W21135   5.858   2.140  15.287 -0.0352  0.2346 -0.3842
 1602W        W21136  10.146   5.473  16.443  0.2170  0.3040 -0.1674
 1603W        W21137   7.911   0.048  16.065 -0.2338  0.3763 -0.0667
 1604W        W21138   6.522   6.753   2.562  0.2069  0.0755  0.0516
 1605W        W21139   7.441  13.190   3.338  0.0731 -0.1906  0.0594
 1606W        W21140  11.509  15.840  14.486 -0.3140 -0.0390 -0.1203
 1607W        W21141   0.706   8.612   2.636  0.2489 -0.1670  0.0530
 1608W        W21142  14.324   3.704   0.361  0.1818  0.0526  0.2273
 1609W        W21143  13.242   3.631  12.623  0.3823  0.3093  0.3064
 1610W        W21144  12.052   2.921   1.068  0.0854 -0.1231  0.1809
 1611W        W21145  14.498   7.046  15.540  0.0572 -0.0507 -0.2231
 1612W        W21146  12.905   1.686  16.588 -0.0934  0.2815 -0.0843
 1613W        W21147   3.171   8.876   4.110  0.0548 -0.0610  0.0009
 1614W        W21148   1.073  14.653   1.754  0.0994 -0.1412 -0.0375
 1615W        W21149   9.851  15.536   4.883  0.0340 -0.0114  0.4354
 1616W        W21150  12.054   9.537   1.268  0.3273 -0.2136  0.0157
 1617W        W21151   6.146  10.142   1.907 -0.3367 -0.1106 -0.0155
 1618W        W21152  13.021  16.553  16.001  0.3458 -0.0031  0.1511
 1619W        W21153   7.741  10.390  14.003  0.0355  0.2100  0.0261
 1620W        W21154   4.817   4.923   0.501 -0.1863  0.1835 -0.1443
 1621W        W21155  11.420   5.784  12.296  0.1254 -0.0740  0.3209
 1622W        W21156   9.985   4.423  15.249  0.0099 -0.1592  0.1241
 1623W        W21157   3.048   2.855  12.755  0.1920  0.2918  0.0642
 1624W        W21158  12.694   8.425   2.825 -0.2397  0.2409 -0.0753
 1625W        W21159   0.098   7.051  16.298 -0.6098 -0.0468 -0.1110
 1626W        W21160   6.379   9.285  12.320 -0.1217 -0.0271  0.0635
 1627W        W21161   4.308   2.427  16.309  0.2862 -0.1245 -0.0868
 1628W        W21162   9.038   2.171   2.296 -0.0203  0.0939  0.2090
 1629W        W21163  14.393   4.509   4.535 -0.1495  0.1780 -0.0484
 1630W        W21164   6.997   7.771   1.981 -0.1984  0.0443 -0.0111
 1631W        W21165  14.314   2.758  13.833  0.2636  0.2416 -0.0551
 1632W        W21166   9.286   7.874  12.401 -0.4475 -0.1326  0.0044
 1633W        W21167   1.184  17.566   1.401  0.1353 -0.0924 -0.0759
 1634W        W21168   0.451  12.189  14.692 -0.3998 -0.1243  0.1439
 1635W        W21169   8.703  12.453   1.000  0.0688 -0.2480 -0.2627
 1636W        W21170   8.257  12.327  14.872  0.1108  0.0812 -0.0618
 1637W        W21171  13.897  13.350   1.025  0.0013  0.5750  0.0051
 1638W        W21172  13.223   1.149   4.315  0.1945  0.0710  0.0863
 1639W        W21173  15.549   1.520   1.542  0.0753 -0.2193 -0.2424
 1640W        W21174  11.180  13.173   3.815  0.0871 -0.2549  0.0726
 1641W        W21175  16.181  14.639  15.037  0.0811 -0.0789  0.2280
 1642W        W21176  10.925   0.130  13.256 -0.1247 -0.2135 -0.0976
 1643W        W21177   8.989  16.654  13.633 -0.2290 -0.1485 -0.1950
 1644W        W21178  15.184  15.743  16.592 -0.0412 -0.1439  0.2329
 1645W        W21179  16.611  14.045  16.438 -0.2184  0.2706  0.1445
 1646W        W21180  11.609  10.701  15.409 -0.4310 -0.2709  0.0308
 1647W        W21181   5.278  12.119  14.287  0.1387  0.2990  0.0332
 1648W        W21182  17.234   4.720   4.671  0.0665  0.0233 -0.2018
 1649W        W21183   9.472   4.444   1.753  0.1922  0.0536  0.1009
 1650W        W21184   5.341  10.050   4.766  0.1425  0.0277  0.1247
 1651W        W21185   2.868  12.111  12.913 -0.0055 -0.1073 -0.0102
 1652W        W21186   5.432   9.340   3.345  0.0214 -0.1462  0.2692
 1653W        W21187  11.095  12.372   2.159  0.2900  0.2097 -0.4377
 1654W        W21188  12.003   8.887  13.710  0.0631 -0.1027 -0.1030
 1655W        W21189   5.915   2.528  16.705  0.0312 -0.2063 -0.3551
 1656W        W21190  16.652  13.842   2.966  0.1674 -0.1685  0.1779
 1657W        W21191  14.322   2.879  16.202  0.0620  0.1804  0.0573
 1658W        W21192   1.550  13.506  15.436  0.1853 -0.1148  0.0786
 1659W        W21193   0.317  12.982   0.721  0.1467 -0.1279  0.1637
 1660W        W21194   6.991   7.734   4.330  0.2787  0.0960  0.1452
 1661W        W21195  10.431   0.338  14.138 -0.0598 -0.0918 -0.0073
 1662W        W21196  14.667  11.368  16.388  0.0776 -0.0578 -0.0990
 1663W        W21197   1.764   2.688  14.273 -0.2918 -0.1506 -0.1511
 1664W        W21198   2.265  16.545   2.045  0.2482 -0.1744 -0.1044
 1665W        W21199  17.434   8.778   1.255  0.0444 -0.4118 -0.2526
 1666W        W21200   8.348   6.304   2.909  0.0399 -0.0081  0.1165
 1667W        W21201  16.361   8.475  15.325 -0.3273  0.1290 -0.0329
 1668W        W21202  16.303  13.965  17.026  0.1743  0.1635 -0.3077
 1669W        W21203   2.424   9.217   3.643  0.0493  0.0653 -0.0946
 1670W        W21204   7.630  12.607  13.249 -0.3991  0.1219  0.0338
 1671W        W21205  12.797  15.067  14.699 -0.0010 -0.0467 -0.2370
 1672W        W21206  12.000   9.071  12.123 -0.2269  0.0751 -0.1057
 1673W        W21207  13.739  15.071  14.756 -0.1133  0.1153 -0.0960
 1674W        W21208   3.298   6.536  13.355  0.1727 -0.0569  0.2196
 1675W        W21209  14.390  17.507   2.391  0.0660  0.0872 -0.1174
 1676W        W21210  17.446  10.940  12.657 -0.3296  0.0720  0.0697
 1677W        W21211  13.250  17.652   1.066 -0.0437  0.1348 -0.0483
 1678W        W21212   8.876   7.821   0.494  0.1927 -0.3592 -0.1165
 1679W        W21213   6.874  10.430   4.400 -0.0819 -0.0735  0.3474
 1680W        W21214   6.172   1.417   4.284 -0.1676  0.3334  0.2154
 1681W        W21215   0.115   1.027   0.282  0.2352 -0.1942 -0.0513
 1682W        W21216  11.798  11.857  12.347 -0.0534  0.0308  0.2461
 1683W        W21217  15.779   4.564   5.194 -0.0242  0.0701 -0.0463
 1684W        W21218  11.242  16.311  12.637  0.4966 -0.0537  0.4628
 1685W        W21219  13.174  15.713  13.555  0.0060 -0.2111  0.2434
 1686W        W21220   6.098  16.284   1.951 -0.1585  0.1710 -0.0791
 1687W        W21221   1.717   5.469  12.503  0.2565 -0.1100 -0.0504
 1688W        W21222   2.910   3.273   2.470  0.0689  0.0734 -0.1010
 1689W        W21223   4.921  10.338  15.237 -0.2257  0.1669  0.2030
 1690W        W21224   2.173  10.473  12.403 -0.2586  0.1265  0.1016
 1691W        W21225  10.317   4.282   1.716 -0.4328  0.3305 -0.0726
 1692W        W21226   2.836   9.711   4.237  0.2070 -0.3173  0.0769
 1693W        W21227   1.885  15.838   1.543 -0.2313 -0.1051 -0.2506
 1694W        W21228  16.993  15.059  15.348  0.1279  0.0283  0.1341
 1695W        W21229  14.713   2.152   4.685  0.0024 -0.0231 -0.3322
 1696W        W21230   0.526  15.667  14.728  0.0058  0.0431 -0.0993
 1697W        W21231   0.521   1.717   4.057  0.2489  0.1270  0.0429
 1698W        W21232  10.700  12.715   4.964  0.0446  0.0590 -0.1070
 1699W        W21233   9.236   7.579   1.758  0.3130  0.0277 -0.1960
 1700W        W21234   6.192  17.510  12.399  0.4475  0.2550  0.1609
 1701W        W21235   1.238  13.892  15.300  0.0796  0.2835 -0.2650
 1702W        W21236   7.622   5.301   0.080 -0.0951  0.3264  0.0544
 1703W        W21237   3.136  13.505  15.826 -0.0592  0.2049 -0.0861
 1704W        W21238   1.564   8.106   2.683 -0.2001 -0.0728  0.1465
 1705W        W21239   3.365   2.146  14.639 -0.2584  0.0584  0.2125
 1706W        W21240  13.906  15.423   4.506  0.1535 -0.1521  0.1290
 1707W        W21241   9.690   3.238  14.218 -0.0146  0.0029  0.1587
 1708W        W21242   1.316   8.229  13.102 -0.3179 -0.2334  0.1263
 1709W        W21243  10.749   1.582   0.181  0.0305 -0.2633 -0.0089
 1710W        W21244  15.187   5.769  12.721  0.0780  0.0238  0.1676
 1711W        W21245   4.770  15.995  15.730 -0.0562  0.0389  0.0988
 1712W        W21246   5.982   3.178   1.525  0.0071  0.0762 -0.1380
 1713W        W21247   8.865  13.218   2.783  0.0724  0.0058 -0.0722
 1714W        W21248   7.872  16.439   2.129  0.0318 -0.0256  0.0276
 1715W        W21249  10.055   7.746   3.564  0.1106 -0.1578 -0.3168
 1716W        W21250  16.296   3.691  14.177 -0.1212 -0.0421  0.2204
 1717W        W21251  15.582   4.768   0.044 -0.0285 -0.0847 -0.1035
 1718W        W21252   3.323   0.149  15.024  0.1117 -0.2007  0.0250
 1719W        W21253   5.895  11.937  11.698  0.0952 -0.2891  0.0987
 1720W        W21254   7.414   9.044  14.960 -0.1139 -0.0715  0.0822
 1721W        W21255   3.572  12.295  15.338  0.0797  0.0668 -0.0852
 1722W        W21256   6.848   4.490   4.807 -0.2404 -0.0163  0.0329
 1723W        W21257   0.602   7.964   4.555  0.4561  0.0943 -0.0682
 1724W        W21258  16.628  14.691  13.229  0.0399  0.3423 -0.1437
 1725W        W21259  11.449   9.189  14.781  0.1134  0.0333  0.0801
 1726W        W21260   3.214  14.155  15.003 -0.0205  0.1476  0.2675
 1727W        W21261   9.591  17.446   4.418  0.2037  0.1468  0.1619
 1728W        W21262   4.806  12.945   0.078  0.0431 -0.0455  0.0624
 1729W        W21263   4.643  17.349   3.564  0.0079  0.2288  0.0707
 1730W        W21264  11.391  11.002  14.639  0.2335 -0.0023  0.0755
 1731W        W21265   0.207   7.870  14.939  0.1030 -0.0334 -0.0182
 1732W        W21266  17.129  16.759   3.405 -0.0437 -0.0992  0.1359
 1733W        W21267   2.356   9.145  11.988  0.0032  0.0070  0.1734
 1734W        W21268   8.430   6.559   0.751  0.0774 -0.2925 -0.2388
 1735W        W21269  17.608  12.529   0.899 -0.2022 -0.0792  0.0899
 1736W        W21270   3.521   4.724   1.111 -0.0906  0.1725 -0.1693
 1737W        W21271  14.444   0.403   1.038 -0.1101 -0.3644 -0.0219
 1738W        W21272   8.135   6.248  13.419 -0.1104  0.0432 -0.1427
 1739W        W21273   7.364  17.226   3.780 -0.0462 -0.1126  0.0961
 1740W        W21274   7.587  14.183   1.763  0.0539 -0.2388 -0.3587
 1741W        W21275   5.180  14.066  14.078 -0.2901 -0.0550 -0.1075
 1742W        W21276   5.859  12.944  14.172 -0.0824  0.1254  0.1474
 1743W        W21277   5.718   9.405   1.681 -0.1449  0.0265 -0.0762
 1744W        W21278  15.799   3.836  13.441 -0.0250  0.1099  0.0323
 1745W        W21279  12.652  11.099  16.172  0.0571  0.3858  0.1658
 1746W        W21280   2.392  14.784  13.263 -0.0991  0.0130  0.0407
 1747W        W21281   3.625  11.365   4.908  0.0895 -0.0735 -0.2454
 1748W        W21282   7.407   5.861  13.578 -0.5068 -0.0637  0.0468
 1749W        W21283   9.894  15.220  16.150  0.1649  0.0589 -0.1174
 1750W        W21284  13.605  13.616  13.756  0.0490  0.2242  0.0120
 1751W        W21285  12.637  11.276  12.403  0.0030  0.0935 -0.1202
 1752W        W21286   1.566   7.875  14.323  0.3296  0.0584 -0.2712
 1753W        W21287   0.010   9.854  13.537 -0.1251  0.2845 -0.1732
 1754W        W21288   7.801   2.661  16.152  0.1665  0.1172 -0.1093
 1755W        W21289   4.005   1.913   4.835 -0.1504  0.1814 -0.0779
 1756W        W21290   7.366  13.949  12.637  0.2029  0.0153 -0.0051
 1757W        W21291   6.546  10.521  13.366  0.3503  0.2631 -0.0308
 1758W        W21292  12.245   2.881  16.080  0.1270  0.0157 -0.2126
 1759W        W21293   2.782  17.364   3.590 -0.0047  0.0012  0.1111
 1760W        W21294  11.737  14.911  16.564  0.1226  0.1261 -0.5217
 1761W        W21295   7.495  12.662  13.711 -0.1440 -0.0496  0.0744
 1762W        W21296  11.922  14.502   2.145  0.0063 -0.1678  0.3172
 1763W        W21297  10.368   1.316  13.712 -0.0411 -0.0885 -0.0408
 1764W        W21298  15.626  14.138   1.196  0.2172 -0.1184  0.2630
 1765W        W21299   1.203  11.630  16.581 -0.0334  0.0417  0.0521
 1766W        W21300   7.082  12.690   0.246  0.1610  0.0462 -0.1005
 1767W        W21301   0.948  14.957  16.479  0.0251 -0.0959  0.0360
 1768W        W21302   4.723  10.650   5.335  0.1742 -0.1940  0.2226
 1769W        W21303  11.015  13.025  14.224 -0.1101  0.0925 -0.2422
 1770W        W21304  15.341   2.868   3.127  0.2312  0.2828 -0.0004
 1771W        W21305   2.565   2.618  16.371 -0.1041  0.1548 -0.0858
 1772W        W21306  12.631   7.896  14.053  0.0036  0.0986 -0.0220
 1773W        W21307   9.865   4.470   1.372 -0.1469 -0.1233 -0.3688
 1774W        W21308   9.923   1.698   0.227  0.0430  0.1208  0.0206
 1775W        W21309  13.409   8.478   2.891 -0.1780  0.2341 -0.0249
 1776W        W21310   3.909  15.022   0.934  0.0175 -0.0704 -0.2374
 1777W        W21311   5.116   5.580   2.402 -0.2538 -0.1315 -0.0307
 1778W        W21312   6.530   0.598  12.979  0.2644  0.0062 -0.0453
 1779W        W21313   1.642   6.694  15.644 -0.1010 -0.1116 -0.0897
 1780W        W21314  12.569  15.427  13.939 -0.2704  0.1705  0.1399
 1781W        W21315   2.899  12.893   3.375  0.4286  0.0140 -0.2091
 1782W        W21316  12.262   5.159   0.961  0.0395  0.2761  0.0432
 1783W        W21317   1.966   5.208   4.043 -0.0523  0.2223  0.1062
 1784W        W21318  15.279  15.106   3.539  0.2688 -0.0344  0.3046
 1785W        W21319   3.117  14.222   3.245 -0.1234 -0.0496 -0.0620
 1786W        W21320   2.272   2.459  12.888  0.1270 -0.0664 -0.1476
 1787W        W21321   8.287  13.569  13.011  0.1501 -0.3519  0.0056
 1788W        W21322   1.331   0.736   4.512  0.0192  0.0367 -0.1601
 1789W        W21323   5.680   7.020   0.509 -0.0750  0.1080  0.3899
 1790W        W21324   3.038  10.831   4.745 -0.2727 -0.0784  0.2778
 1791W        W21325   9.487   2.448   3.247 -0.1104 -0.0278 -0.0179
 1792W        W21326   8.100  11.279   1.781 -0.0101 -0.2621  0.3060
 1793W        W21327   7.924  14.958  15.851  0.1274  0.0565  0.3698
 1794W        W21328  15.635   2.350  15.609 -0.1219 -0.0518 -0.1646
 1795W        W21329  14.228   8.520   1.594  0.1150  0.0911 -0.0553
 1796W        W21330   1.561  16.208  15.839  0.0216 -0.1999  0.0802
 1797W        W21331   6.154  13.021   1.234  0.2596  0.3147  0.0825
 1798W        W21332   6.744   2.515  13.521 -0.2468  0.0975  0.0913
 1799W        W21333   1.265   8.869  13.664 -0.2590  0.2558 -0.2054
 1800W        W21334  12.315  10.017   3.602 -0.2939 -0.1734  0.2019
 1801W        W21335   9.409  10.838   2.323 -0.1426  0.1270  0.1377
 1802W        W21336  11.875  16.313  14.673 -0.0235  0.0878 -0.1408
 1803W        W21337   6.395   4.854  13.858  0.2950 -0.0697  0.0476
 1804W        W21338  10.010   9.955  12.106  0.2681  0.1456 -0.1705
 1805W        W21339   5.951   4.007  14.203 -0.3232 -0.2696  0.0457
 1806W        W21340  16.941   4.283   4.772  0.1207  0.0886  0.3064
 1807W        W21341  12.356   6.660  15.946  0.1583  0.3910 -0.1071
 1808W        W21342  15.412   3.360   3.114  0.2164  0.1393  0.1503
 1809W        W21343   8.400   2.991   4.598  0.0547 -0.0527  0.0567
 1810W        W21344  10.166  12.854   3.589 -0.1207 -0.2557  0.0580
 1811W        W21345   4.523   9.628  13.808 -0.0699 -0.2861 -0.1383
 1812W        W21346   8.782  14.937  14.100  0.1219  0.0516  0.0156
 1813W        W21347  17.379  16.310  16.492 -0.1701  0.3162  0.0373
 1814W        W21348   9.949   6.475  13.620 -0.1393  0.1243  0.2304
 1815W        W21349   7.302  17.076  15.597 -0.0945  0.1046  0.0470
 1816W        W21350   7.856   2.100  14.607 -0.0134 -0.3157 -0.1192
 1817W        W21351  12.204   9.458   3.393 -0.2379 -0.0830  0.3641
 1818W        W21352  17.126  11.698  15.870  0.1018  0.0701  0.2051
 1819W        W21353   4.373   4.499   5.103  0.2144 -0.0650 -0.0377
 1820W        W21354  12.621  16.294  13.879  0.1930  0.0736  0.2655
 1821W        W21355  16.673  15.776   1.208  0.0811 -0.0357  0.0282
 1822W        W21356   8.752  10.131   3.848 -0.0612  0.2573 -0.0136
 1823W        W21357  12.132  12.939   3.740  0.0583  0.2139  0.0429
 1824W        W21358   8.700   0.701  15.411  0.2428 -0.3337 -0.0002
 1825W        W21359   2.733   7.454  16.136 -0.3982  0.3602  0.0961
 1826W        W21360   5.917   2.914   2.265 -0.1154 -0.0523  0.1499
 1827W        W21361  17.190   5.689  14.806  0.0664 -0.2119 -0.2031
 1828W        W21362  15.147   4.053   0.192 -0.1760  0.0190 -0.0188
 1829W        W21363  13.617  13.610   2.377 -0.2991  0.2246  0.1014
 1830W        W21364   1.211   7.435   3.029 -0.2385 -0.0644 -0.2715
 1831W        W21365  14.885   1.517   0.667 -0.0292 -0.2980 -0.3203
 1832W        W21366   1.809   0.451   1.216 -0.1607 -0.1329  0.2960
 1833W        W21367  16.963  15.791   3.473 -0.1240 -0.0549  0.2075
 1834W        W21368   3.103   0.932   3.159  0.0355 -0.3535  0.0524
 1835W        W21369  13.057   8.105   2.736  0.0903 -0.1451 -0.2776
 1836W        W21370   7.961  10.690  14.431 -0.0583  0.2036 -0.3802
 1837W        W21371   5.754   2.177  13.615 -0.0088 -0.0716  0.1191
 1838W        W21372   2.514  14.725   1.167 -0.3150  0.3375 -0.3078
 1839W        W21373   5.848   4.386   1.686 -0.6116  0.3670 -0.0099
 1840W        W21374  14.078  12.493   2.051 -0.0660 -0.1194  0.1608
 1841W        W21375   8.232  17.593   0.782 -0.2527 -0.1159 -0.1148
 1842W        W21376   4.945   9.835   4.393  0.2439  0.1616  0.3539
 1843W        W21377   8.028   7.099   0.006  0.1756 -0.3860 -0.0791
 1844W        W21378   8.547  12.921   0.823  0.1302 -0.3521 -0.0496
 1845W        W21379  14.841   7.179  15.942 -0.0872  0.1029  0.3876
 1846W        W21380   7.657   8.715   0.515  0.2889 -0.1001  0.0762
 1847W        W21381   1.067   1.123   5.089 -0.1843 -0.2295 -0.0200
 1848W        W21382   3.520   9.395  15.781 -0.1328  0.3660 -0.2003
 1849W        W21383  10.603   8.178   1.339  0.3647  0.2558 -0.0077
 1850W        W21384  17.328   8.034   3.093 -0.1295 -0.2415  0.0312
 1851W        W21385   5.710  17.596   0.907  0.0693  0.1688  0.0055
 1852W        W21386   2.774  15.806   2.588 -0.1126 -0.1123 -0.2832
 1853W        W21387   9.821   7.826  13.319  0.3730  0.2434  0.0066
 1854W        W21388  15.155  14.647   2.839  0.3705 -0.1426  0.3949
 1855W        W21389  10.195  12.738   4.983  0.1258  0.4356 -0.1176
 1856W        W21390   0.197  12.070   0.686  0.1413 -0.0258  0.0403
 1857W        W21391   5.540   2.831  16.551 -0.2027 -0.0876 -0.0480
 1858W        W21392  11.040  12.966   0.167 -0.2267 -0.2371 -0.2213
 1859W        W21393   6.617   0.746  14.227 -0.1326 -0.2215  0.1179
 1860W        W21394   5.216   3.409  14.038 -0.1960  0.0999  0.1332
 1861W        W21395   0.903   8.200   3.405  0.0743 -0.0992  0.3006
 1862W        W21396  12.588   4.459   0.120  0.0542  0.2808  0.2168
 1863W        W21397  11.218   4.740  14.878  0.0349  0.0941 -0.1480
 1864W        W21398  11.918  14.466  17.007  0.0202 -0.0897 -0.0839
 1865W        W21399  14.140   4.039   0.864  0.0161  0.1998  0.1434
 1866W        W21400  16.792   1.358   4.850 -0.2921 -0.1033  0.3090
 1867W        W21401  12.013  15.914  12.518  0.1493  0.0063  0.2800
 1868W        W21402  13.547  12.855  13.478 -0.2599  0.0057  0.0378
 1869W        W21403   2.363   6.248  14.760 -0.0082 -0.0514 -0.1669
 1870W        W21404  15.824   9.930   4.373  0.1909 -0.1796  0.1971
 1871W        W21405   8.309  11.096   3.485 -0.2276 -0.1148  0.1980
 1872W        W21406  14.731   4.808  15.845 -0.2111 -0.0417 -0.1090
 1873W        W21407  11.685  15.593  16.979 -0.1745  0.0192  0.0387
 1874W        W21408  14.080   7.390  16.487 -0.0512 -0.0794  0.2369
 1875W        W21409  17.278  11.285  14.060 -0.0731 -0.0734  0.3652
 1876W        W21410  12.006  14.854   3.551 -0.3968  0.0851 -0.2591
 1877W        W21411  14.183   6.697   0.429  0.1720 -0.0411  0.0348
 1878W        W21412   0.633   1.746   0.313 -0.0517  0.2771 -0.3006
 1879W        W21413  10.630   2.823   4.651  0.2423 -0.1121 -0.0336
 1880W        W21414   4.532   7.221  15.943  0.2993 -0.2099  0.0386
 1881W        W21415  17.650  15.840   2.301  0.0579  0.0503  0.0898
 1882W        W21416  12.249  13.437   2.724  0.0067 -0.0979 -0.0887
 1883W        W21417   7.333   4.371   4.604  0.5406  0.0063  0.1804
 1884W        W21418  16.246   4.788   1.625  0.1638  0.0500  0.2984
 1885W        W21419  17.297   1.418  15.007  0.3640 -0.1487 -0.2866
 1886W        W21420  17.590   9.709  13.017 -0.2253 -0.0728  0.0316
 1887W        W21421   7.494  15.691  13.284  0.2197 -0.1960  0.2244
 1888W        W21422   1.757  11.518   4.428 -0.0178  0.0467  0.1799
 1889W        W21423   8.863   5.893   3.459 -0.0950 -0.0880 -0.0144
 1890W        W21424   2.364   6.349   1.708  0.1170  0.0621  0.1480
 1891W        W21425   4.383  13.878   0.058  0.2223  0.4106  0.5009
 1892W        W21426   0.406  12.623  14.338 -0.0455  0.1581  0.0832
 1893W        W21427   2.841  10.871  16.342 -0.0019  0.1242 -0.1683
 1894W        W21428   1.521   8.145  15.581 -0.1110  0.1181 -0.1626
 1895W        W21429   4.780   8.444   0.931  0.0879  0.1012  0.1494
 1896W        W21430  13.744   0.578   3.691  0.1136  0.0345  0.0762
 1897W        W21431   8.861   3.420  13.600  0.1163 -0.0779 -0.0091
 1898W        W21432   2.933  13.143   1.902 -0.1395 -0.3175  0.3435
 1899W        W21433   1.632   7.890  16.101 -0.0472  0.3033 -0.1034
 1900W        W21434   9.027  10.538  12.634 -0.0669 -0.2667  0.0658
 1901W        W21435   6.700   1.155   2.852 -0.1804 -0.1568  0.2201
 1902W        W21436  16.249   8.927   2.085 -0.1371 -0.0517  0.0402
 1903W        W21437   7.083  15.718  15.061  0.1572  0.0733  0.0273
 1904W        W21438   4.590  17.477  14.243 -0.0021 -0.1497  0.0126
 1905W        W21439  13.494   6.514   3.279 -0.0173 -0.2999  0.0770
 1906W        W21440   2.977   4.955  12.817 -0.1035  0.1972 -0.0994
 1907W        W21441   7.619  17.391  16.314 -0.0271 -0.0295  0.1587
 1908W        W21442   3.386  11.777   2.198 -0.1300 -0.2702 -0.0495
 1909W        W21443   9.148  17.253   4.446  0.0552  0.0523  0.1533
 1910W        W21444   2.683   2.911   0.591 -0.1336 -0.0860  0.1374
 1911W        W21445   2.138  10.232  13.541  0.2641 -0.2844  0.1444
 1912W        W21446  12.301  14.107  15.657 -0.1157 -0.0094  0.0896
 1913W        W21447  14.859   1.898   1.034 -0.1387  0.0673 -0.2223
 1914W        W21448  12.598   8.871  16.653  0.1643 -0.1102 -0.1928
 1915W        W21449   8.135   1.503   3.546  0.1466 -0.2836 -0.0104
 1916W        W21450  12.399  15.930   0.553  0.0076  0.1791  0.2326
 1917W        W21451   8.154   3.747  15.043  0.0995  0.3294 -0.0022
 1918W        W21452  12.220   5.082   2.543 -0.0520 -0.2740  0.1669
 1919W        W21453  13.757   2.719   2.967  0.0705 -0.0120 -0.0485
 1920W        W21454   7.226  11.031   3.288  0.0273  0.1109  0.0590
 1921W        W21455   3.920   4.222  13.327  0.1443 -0.1146  0.0157
 1922W        W21456   7.512   6.987   2.276  0.0369 -0.1820  0.3277
 1923W        W21457  13.120   4.395  12.114  0.0041  0.0535 -0.0437
 1924W        W21458  16.915  11.205  13.669 -0.1958  0.2662 -0.1486
 1925W        W21459   8.287   0.887   2.911  0.0426 -0.0678  0.1957
 1926W        W21460  16.108  16.494   1.245  0.2378  0.2233  0.0406
 1927W        W21461   5.069   8.930   3.536 -0.3200  0.1720  0.2492
 1928W        W21462   5.384   9.262   1.317 -0.1099  0.3613  0.1119
 1929W        W21463  17.233   3.175   4.322 -0.2354  0.0713 -0.1449
 1930W        W21464   2.481   0.758  12.855  0.4015  0.0456  0.0036
 1931W        W21465   7.062   4.794  15.326 -0.1627 -0.1770  0.3816
 1932W        W21466  12.659  17.531   4.331  0.1136  0.0764 -0.1159
 1933W        W21467   0.223   3.255  15.220  0.2362 -0.1263 -0.1592
 1934W        W21468   6.437   6.787   3.866  0.2238 -0.1438  0.0279
 1935W        W21469   2.718   3.449  16.758 -0.2867  0.0917  0.5674
 1936W        W21470   8.243  16.069   1.650  0.0846 -0.0674  0.0578
 1937W        W21471   8.171   1.400   2.978  0.0167 -0.0314 -0.1703
 1938W        W21472   6.475   7.291  13.131  0.0410 -0.2062  0.2408
 1939W        W21473  11.932   5.148  14.584 -0.1091  0.1421 -0.1096
 1940W        W21474   5.995  14.330   1.040 -0.0940  0.1913  0.0366
 1941W        W21475   6.740  11.678   0.928 -0.1804 -0.3816  0.3164
 1942W        W21476  14.903   3.223   1.866  0.2886  0.1150  0.2299
 1943W        W21477   2.619   9.851   0.908  0.3299  0.1824 -0.2844
 1944W        W21478   5.794   9.907  12.735  0.1169  0.1912 -0.3746
 1945W        W21479  14.757   0.808   0.972 -0.0200 -0.2822  0.0747
 1946W        W21480   7.258  11.122  14.441  0.0517 -0.2300  0.2027
 1947W        W21481  15.872   2.479  16.067  0.0353 -0.1970 -0.2335
 1948W        W21482  14.508  15.627  14.685  0.2062  0.2228 -0.2825
 1949W        W21483   3.717  13.610   0.032 -0.1762 -0.2309  0.3558
 1950W        W21484   3.466  10.397   2.791 -0.0258  0.1180  0.0088
 1951W        W21485   9.759   0.332  13.088  0.1358 -0.5932 -0.1931
 1952W        W21486  13.851   7.241  13.976 -0.0530  0.3184  0.0506
 1953W        W21487  16.792   4.060   4.263  0.1143  0.1108 -0.2758
 1954W        W21488   6.203   8.728  15.462  0.1296  0.1783  0.3868
 1955W        W21489   9.717   7.270   4.774 -0.1907  0.2457 -0.1203
 1956W        W21490  14.597  15.312   0.158 -0.0517  0.0311 -0.2610
 1957W        W21491  13.611   3.981  15.126 -0.1012 -0.2027 -0.0019
 1958W        W21492  12.447  13.376  16.936 -0.0115 -0.0459 -0.0709
 1959W        W21493  12.869   3.987  12.391 -0.0136 -0.0560 -0.1409
 1960W        W21494  16.143   4.841  12.282  0.3403  0.2340  0.0824
 1961W        W21495  14.663   9.824   4.732 -0.0135  0.0168 -0.1533
 1962W        W21496   2.763  14.917  15.280  0.1323  0.1750 -0.0233
 1963W        W21497   9.231   4.591  15.928 -0.0904  0.1232 -0.1761
 1964W        W21498   1.761  15.412  16.897  0.2134 -0.3005 -0.1337
 1965W        W21499   2.403  14.280  16.217  0.2444  0.1369 -0.0807
 1966W        W21500  12.884   4.236   2.696  0.1260  0.1663 -0.4504
 1967W        W21501   2.956  16.613   1.256 -0.1617 -0.2712  0.1286
 1968W        W21502  11.019   4.319   3.481 -0.2253 -0.0331 -0.2174
 1969W        W21503   9.451  12.522  16.217 -0.0073 -0.0238  0.2058
 1970W        W21504   7.675   8.625   1.833  0.0711  0.1843 -0.2144
 1971W        W21505   3.760   2.227  12.537  0.0356 -0.0489 -0.0877
 1972W        W21506  16.963   5.861  13.335  0.1281  0.1114  0.0016
 1973W        W21507   6.373  12.020  13.368 -0.3505  0.0889 -0.1664
 1974W        W21508   7.403  15.122   0.608 -0.2432 -0.1512  0.3618
 1975W        W21509   2.023  14.546  12.585 -0.0990  0.2496  0.0862
 1976W        W21510   3.646  16.472  13.349  0.0800 -0.0335 -0.1457
 1977W        W21511  10.038  13.103  13.084 -0.0939  0.0180 -0.0471
 1978W        W21512  13.853   4.464   3.041  0.1374 -0.1473  0.1821
 1979W        W21513   3.582  16.094   4.832 -0.1103 -0.2471  0.2632
 1980W        W21514   7.827   4.521   3.863  0.0478  0.0745 -0.1943
 1981W        W21515   1.362  11.510   1.098 -0.0081 -0.0785  0.3227
 1982W        W21516  15.420   8.245  15.427 -0.3951 -0.0647 -0.0240
 1983W        W21517  15.177   6.068  16.390 -0.0788  0.1751 -0.2147
 1984W        W21518   9.845   9.363   4.365 -0.3917  0.0198 -0.2790
 1985W        W21519   6.336   2.204  15.462  0.0435 -0.0065  0.0112
 1986W        W21520   3.311  14.532   2.375  0.4063 -0.1366 -0.0776
 1987W        W21521  10.984  14.458  12.099 -0.0399  0.0121 -0.2659
 1988W        W21522  17.077  17.077  13.114  0.2177  0.1550  0.1307
 1989W        W21523   2.847   8.455  15.817 -0.1262  0.3786  0.0135
 1990W        W21524  14.972   5.799  12.221 -0.2273  0.0622  0.0117
 1991W        W21525  11.781  13.830   3.517  0.0060 -0.3059 -0.3268
 1992W        W21526   6.820   2.359  15.138 -0.0059 -0.1194 -0.0522
 1993W        W21527   4.260   8.658   1.103 -0.1230 -0.0259  0.0321
 1994W        W21528   0.543  12.363   1.718 -0.1240  0.2372  0.1557
 1995W        W21529   3.112  16.319  12.075  0.0955 -0.2981 -0.1465
 1996W        W21530   0.731   8.636  15.268 -0.3036 -0.0513  0.0288
 1997W        W21531   2.431  12.467  16.677  0.1384 -0.1288 -0.1703
 1998W        W21532   6.487  14.712   4.347  0.0044  0.0308  0.0731
 1999W        W21533   9.113  16.774   3.753  0.0930  0.0806 -0.0954
 2000W        W21534   0.817  16.665  12.700  0.3469  0.1743  0.0929
 2001W        W21535   0.779  11.918  12.834 -0.1088 -0.2184  0.3330
 2002W        W21536   1.431  16.580   1.422 -0.1357 -0.3410 -0.0211
 2003W        W21537   3.460  13.258  12.643 -0.0222  0.0733  0.2989
 2004W        W21538   8.441  14.600   2.632 -0.0342  0.0282 -0.2756
 2005W        W21539  10.057  11.003  16.745 -0.1305 -0.0982  0.1445
 2006W        W21540   7.533  13.132   6.002  0.2422  0.1173  0.2763
 2007W        W21541   7.704   9.065  16.333 -0.0402  0.1936  0.3384
 2008W        W21542  13.208   8.367   3.684  0.2277  0.1608 -0.2381
 2009W        W21543   9.522  10.916  16.566  0.3088 -0.2439 -0.1080
 2010W        W21544   8.646   1.656   2.258 -0.1820 -0.1779 -0.1244
 2011W        W21545  11.818   9.025   4.757 -0.3035  0.1556 -0.1129
 2012W        W21546  17.282   6.198  13.270 -0.1644 -0.0700  0.2670
 2013W        W21547   8.405   7.933   2.178 -0.3137  0.4538  0.1209
 2014W        W21548  11.048   4.818   3.767 -0.0194  0.0191  0.4269
 2015W        W21549  11.850  17.325  14.432 -0.1623 -0.0862 -0.2308
 2016W        W21550   6.051   4.467  14.028 -0.2366 -0.1275  0.3145
 2017W        W21551   0.001   5.367  13.321  0.1739 -0.4620 -0.0950
 2018W        W21552  15.106   4.297  14.372  0.3469 -0.0961 -0.0554
 2019W        W21553  15.551   3.563  14.236 -0.0390  0.0608  0.0348
 2020W        W21554  15.894  15.930   1.482  0.1341  0.0157 -0.0325
 2021W        W21555   5.654   3.679  12.411 -0.2626 -0.3014 -0.1055
 2022W        W21556   6.613   0.805   2.495 -0.1892 -0.1571  0.0487
 2023W        W21557   5.277   1.722  15.972 -0.0754 -0.1280 -0.2238
 2024W        W21558   4.120   1.785  11.888 -0.0527 -0.1634 -0.2261
 2025W        W21559   9.556  13.447  14.212  0.1450  0.0600 -0.0534
 2026W        W21560   2.347  13.253   0.336 -0.0656  0.0077  0.2715
 2027W        W21561   5.814  16.668   0.579 -0.0437 -0.1016  0.2203
 2028W        W21562   9.744  16.675   4.950  0.1784 -0.0055  0.0473
 2029W        W21563   3.801  16.213   0.376 -0.1887 -0.0617  0.1608
 2030W        W21564   6.459  15.156   5.277  0.2665 -0.0200 -0.2821
 2031W        W21565  10.504  14.881  13.485  0.0073 -0.0343 -0.0176
 2032W        W21566  17.338  13.527  12.095  0.2419 -0.1184  0.1482
 2033W        W21567   7.004  12.802  14.963 -0.1441  0.0431  0.1117
 2034W        W21568   9.140  17.666   0.512 -0.3500  0.0154 -0.1572
 2035W        W21569  12.965   2.456   3.362 -0.0117  0.0521  0.1781
 2036W        W21570   3.611   7.784   1.862  0.1006 -0.0447  0.0722
 2037W        W21571  10.767   5.029   4.758 -0.0019 -0.1878  0.0811
 2038W        W21572   8.764  16.090   2.509 -0.1291 -0.1060  0.1422
 2039W        W21573  15.483  10.767  13.204  0.0214 -0.0557  0.0926
 2040W        W21574   2.208  16.251   0.772 -0.1378  0.1504  0.3238
 2041W        W21575   8.806   3.560  16.729  0.3482  0.1236 -0.1464
 2042W        W21576   7.772  11.081  12.950  0.3549  0.0276 -0.0179
 2043W        W21577   7.847  16.746   0.975  0.0461 -0.0161 -0.1997
 2044W        W21578   5.813  10.735  12.266 -0.2461 -0.0299  0.0876
 2045W        W21579  15.622  12.889  14.767 -0.1908  0.0803  0.0563
 2046W        W21580   1.181  13.667  12.442  0.0883  0.3744  0.3493
 2047W        W21581  14.182   7.791  16.213  0.0039 -0.1550  0.2947
 2048W        W21582   1.925   1.806   3.189 -0.0689  0.1472  0.3496
 2049W        W21583  16.525   1.349   2.086 -0.1451 -0.0792  0.3457
 2050W        W21584  12.361  12.873  16.922  0.5039  0.1782 -0.0239
 2051W        W21585  15.893  16.813  15.370  0.0820  0.2088  0.0391
 2052W        W21586   1.746  16.834   1.997 -0.3053  0.1537  0.2682
 2053W        W21587  15.854   3.005   3.429 -0.2243 -0.0894  0.1794
 2054W        W21588   1.851  15.538  13.954  0.1047 -0.0121 -0.0683
 2055W        W21589   9.110   0.270   0.104 -0.3997 -0.4202 -0.1446
 2056W        W21590   3.181   9.092  17.007 -0.1773  0.1414 -0.0008
 2057W        W21591   6.700  15.541   0.409  0.0651 -0.0588  0.3665
 2058W        W21592   9.030   1.409   4.103 -0.0687 -0.2173 -0.0749
 2059W        W21593   3.860   9.806   1.692 -0.2803  0.1802 -0.1649
 2060W        W21594   9.193  11.429  12.560 -0.0850  0.1192  0.1117
 2061W        W21595   4.792   0.897   3.059  0.1899 -0.0412 -0.0907
 2062W        W21596   7.560  11.065  12.419 -0.1890 -0.0573 -0.2164
 2063W        W21597  15.611  13.357   4.494  0.4755  0.1658 -0.0484
 2064W        W21598   4.187   6.514   0.651 -0.2708  0.0377  0.1137
 2065W        W21599   5.037   4.811   4.396 -0.0366  0.1513  0.0859
 2066W        W21600  16.084  11.706  14.467 -0.1713 -0.4090 -0.2882
 2067W        W21601   3.494  10.580   4.123 -0.0797 -0.0889 -0.4934
 2068W        W21602  13.647  17.360   4.201  0.0547 -0.2373 -0.4962
 2069W        W21603  13.595   4.579  12.736 -0.2110  0.0749  0.2178
 2070W        W21604   8.019   3.448   2.399 -0.3232 -0.3042 -0.1420
 2071W        W21605   2.079  12.633  12.473 -0.1060  0.0944 -0.2582
 2072W        W21606   1.777   9.560   1.552  0.4005 -0.1392  0.0943
 2073W        W21607  13.281   4.801  11.924  0.2338 -0.1491 -0.0650
 2074W        W21608  11.990  11.082  13.989 -0.1114  0.0649  0.1796
 2075W        W21609   7.651   4.340   2.007  0.0860  0.2791  0.0651
 2076W        W21610   1.680  12.008  15.681 -0.0636  0.0347  0.1023
 2077W        W21611  12.728  13.105  13.121  0.3673  0.1340  0.1469
 2078W        W21612   5.331   1.215   3.143 -0.0018 -0.1778  0.1742
 2079W        W21613   6.360   5.709  16.097  0.2453 -0.0489  0.2322
 2080W        W21614  16.579  17.262   2.117 -0.1544  0.1612 -0.5424
 2081W        W21615   3.633  11.453  15.087  0.1137  0.3799 -0.2290
 2082W        W21616  11.532   2.561   4.970  0.2913 -0.1500 -0.2244
 2083W        W21617   0.924   5.788  12.385 -0.0120 -0.1860  0.0925
 2084W        W21618   5.558   9.969  14.328  0.0408 -0.1322  0.1129
 2085W        W21619  16.180   3.940   0.586  0.0947  0.0611  0.0008
 2086W        W21620  10.528   7.259   0.960 -0.1656  0.1182 -0.1301
 2087W        W21621   1.499   5.781   2.614 -0.0224  0.3887 -0.2038
 2088W        W21622   9.195   9.109  12.357 -0.0589  0.0734  0.1194
 2089W        W21623   6.623  16.783   3.792  0.1599  0.1269 -0.0111
 2090W        W21624   0.933  16.962   2.422 -0.0041  0.0742 -0.0119
 2091W        W21625  12.914   9.929  13.302 -0.0476  0.4861  0.1126
 2092W        W21626   4.339  14.195   2.964  0.2749  0.0130 -0.0430
 2093W        W21627   9.028   8.715  13.317 -0.2319 -0.0977 -0.1028
 2094W        W21628   1.296   5.066   3.376  0.2675 -0.2650  0.0041
 2095W        W21629  14.628  13.113  13.933  0.0536 -0.0135  0.0078
 2096W        W21630  13.132   2.658   1.000 -0.0467 -0.1710  0.2715
 2097W        W21631   6.844  10.915  13.023 -0.0678 -0.1615  0.0717
 2098W        W21632   4.689  13.139  16.275 -0.0602  0.2980 -0.0740
 2099W        W21633   0.417  10.825   3.315  0.0576 -0.2053  0.0781
 2100W        W21634  16.580  14.143  11.943  0.2541  0.1416 -0.0034
 2101W        W21635  13.127  11.361   2.238 -0.0386 -0.0573 -0.2853
 2102W        W21636   8.047   9.799  12.398  0.1533 -0.3727  0.2105
 2103W        W21637  15.842   7.870   4.115 -0.0916  0.2237  0.2392
 2104W        W21638   6.753   9.632   0.315 -0.0243  0.1319  0.0166
 2105W        W21639   7.990   4.199  13.230 -0.0213  0.3089 -0.2061
 2106W        W21640   0.804   9.823  14.702 -0.0499  0.0055 -0.1653
 2107W        W21641   9.913  17.543   4.032 -0.3368  0.3024 -0.0590
 2108W        W21642   2.192   4.678  13.876  0.1365 -0.4668 -0.2389
 2109W        W21643   3.551   2.445   3.427 -0.1240 -0.0385 -0.1505
 2110W        W21644   3.161  11.906  15.503  0.0402 -0.0570  0.1994
 2111W        W21645   1.268  12.478   2.889 -0.1358  0.1265  0.1359
 2112W        W21646  15.865   3.965   1.400 -0.3224 -0.1680 -0.3443
 2113W        W21647  17.068   9.488   4.553 -0.0068 -0.2642 -0.1566
 2114W        W21648   7.741  17.606  12.623 -0.0504 -0.3850 -0.0296
 2115W        W21649   1.828  11.605   1.117 -0.0267 -0.0957 -0.1451
 2116W        W21650   4.518   7.751  15.306 -0.0143  0.0842 -0.1407
 2117W        W21651   5.015   1.201  13.045 -0.0155 -0.0439 -0.0858
 2118W        W21652  15.153  16.485   1.994  0.1782  0.1367 -0.2096
 2119W        W21653  14.703  17.103   5.305 -0.0713 -0.1211 -0.3142
 2120W        W21654  12.559  17.196  12.400 -0.1835  0.2244 -0.1378
 2121W        W21655   4.209  16.562  14.153  0.0120  0.1328  0.2772
 2122W        W21656   1.500   6.732   1.327  0.1584 -0.3805  0.2330
 2123W        W21657   4.169  10.225  12.894  0.3644  0.2700  0.1805
 2124W        W21658  16.282  17.042   3.549  0.1493 -0.4258 -0.2509
 2125W        W21659   4.232  12.070  12.687  0.3328 -0.0622 -0.0244
 2126W        W21660   7.537   3.962  13.380  0.3595  0.4207 -0.1500
 2127W        W21661   8.466  17.149  15.290 -0.1055 -0.0614  0.2228
 2128W        W21662  12.874  12.597  15.634  0.1691 -0.1656  0.0736
 2129W        W21663   9.480   3.691  14.877 -0.2098 -0.1473  0.1404
 2130W        W21664  17.584   4.807  13.494 -0.0757 -0.1489 -0.2126
 2131W        W21665   5.647   9.666   3.748 -0.0381  0.0803 -0.3380
 2132W        W21666  10.688   4.399   4.444 -0.0802  0.2747  0.3416
 2133W        W21667   1.879  12.834  15.168  0.0880 -0.1446 -0.0960
 2134W        W21668  10.907  15.444  16.662 -0.0741 -0.3357 -0.1747
 2135W        W21669   1.997   6.995   4.249 -0.0232 -0.0700  0.0045
 2136W        W21670   7.444   8.140   1.919 -0.1932  0.2707  0.0297
 2137W        W21671   0.202  13.467  13.873 -0.0568  0.1657 -0.0233
 2138W        W21672   2.792  17.048   2.588 -0.0058 -0.0070  0.1742
 2139W        W21673  11.027   9.404   2.621  0.4421  0.1504  0.0361
 2140W        W21674   6.185  16.139  15.018  0.1504  0.0302  0.0332
 2141W        W21675  15.728  16.216  15.957  0.0180 -0.4326 -0.1251
 2142W        W21676   0.349   4.274   2.425  0.1958 -0.1710  0.0684
 2143W        W21677   2.368  12.400   3.863  0.1643  0.1102  0.1039
 2144W        W21678   4.617  12.066   2.576  0.0794 -0.1614  0.1542
 2145W        W21679   8.070  16.306   1.136  0.0815  0.3683  0.0497
 2146W        W21680  15.513  13.180  16.733 -0.1062 -0.1767 -0.2228
 2147W        W21681  15.606  16.663   2.590 -0.1218  0.1524  0.3816
 2148W        W21682   5.296  12.746   3.550 -0.0625  0.0339  0.2641
 2149W        W21683   4.828  12.106   3.228 -0.4997  0.3867 -0.1279
 2150W        W21684   6.811  16.044   4.747  0.2364  0.1629  0.2252
 2151W        W21685  13.738   0.572  14.300 -0.1429 -0.0924  0.1049
 2152W        W21686   3.726   3.810   3.667  0.1449 -0.0743 -0.1297
 2153W        W21687   2.593  10.844   0.092 -0.0688 -0.1199 -0.3278
 2154W        W21688   6.113   1.459  11.855  0.2369 -0.1291 -0.1978
 2155W        W21689   0.698   7.222  14.914 -0.1549 -0.0005 -0.5571
 2156W        W21690   6.314  15.756   4.550 -0.2447  0.0112 -0.2020
 2157W        W21691   6.551   8.383  13.071 -0.0784 -0.1723  0.1832
 2158W        W21692   5.985  15.777  15.685 -0.1808  0.1435 -0.0010
 2159W        W21693  16.887  10.662  12.853 -0.0186 -0.3304  0.0971
 2160W        W21694   7.230   2.387  15.957 -0.1213 -0.0236 -0.0676
 2161W        W21695   7.443  13.634  13.560  0.0009 -0.3162 -0.0446
 2162W        W21696   3.825  11.553  12.972  0.3289 -0.4093  0.1047
 2163W        W21697   3.213   6.022   6.010  0.0085  0.1370 -0.0306
 2164W        W21698  14.258   9.936   0.123 -0.0827  0.2883 -0.1880
 2165W        W21699   2.025   3.969   1.110  0.1122  0.2884 -0.2302
 2166W        W21700  14.338  13.606   1.523 -0.2356  0.0101  0.0731
 2167W        W21701   3.894  16.371   4.504 -0.0427  0.0239  0.0767
 2168W        W21702   2.508   9.775   3.426 -0.0785 -0.1937 -0.2818
 2169W        W21703   0.834  13.841  12.009 -0.3319  0.0037 -0.0289
 2170W        W21704  17.588   3.743   3.659 -0.0718  0.3046 -0.3268
 2171W        W21705  14.209  17.551   2.840 -0.1423  0.1374 -0.1586
 2172W        W21706   5.941   0.693   3.103  0.1918  0.0576  0.2903
 2173W        W21707   9.396   8.699   1.166  0.2013  0.2286 -0.2141
 2174W        W21708  16.811   0.554  15.711 -0.1760  0.0036  0.0982
 2175W        W21709  13.769  13.279   4.676  0.0597  0.0254 -0.0663
 2176W        W21710  13.079   4.401   4.884 -0.2765  0.0211  0.0117
 2177W        W21711   7.168   1.572  15.799 -0.0994  0.2063  0.0042
 2178W        W21712  11.161  13.518   4.318 -0.1532 -0.0700  0.1330
 2179W        W21713  15.695  13.316  15.839  0.1696 -0.1093 -0.0448
 2180W        W21714  12.286   0.754  15.667  0.2945 -0.0312 -0.1965
 2181W        W21715   6.622  12.312  14.273 -0.0448 -0.0822  0.0477
 2182W        W21716   6.543  12.874  13.416  0.0268  0.0568 -0.0412
 2183W        W21717  16.521   6.028  14.428  0.2393  0.3402  0.2382
 2184W        W21718  15.452   4.308   1.398  0.0340  0.0717  0.1750
 2185W        W21719  15.363   6.250   2.890 -0.3935  0.0037 -0.1119
 2186W        W21720  17.572  10.191   3.071 -0.0730  0.2205 -0.2064
 2187W        W21721  12.054   2.864  14.874 -0.1483  0.0963 -0.1272
 2188W        W21722   3.911  17.054   2.699  0.0263 -0.0916  0.1866
 2189W        W21723   3.460  13.709   2.694 -0.0225 -0.0242 -0.0645
 2190W        W21724  10.219   9.782  14.682 -0.0303  0.3530 -0.3762
 2191W        W21725   7.428   9.178   2.931  0.1439 -0.0176  0.0220
 2192W        W21726   3.974  12.434   1.879 -0.1281 -0.0585 -0.4864
 2193W        W21727  10.381   0.201   0.075 -0.1567  0.1011 -0.1059
 2194W        W21728   3.001   7.530   1.028  0.1196 -0.0329 -0.1070
 2195W        W21729   8.251  13.122  12.277  0.4236  0.0439  0.2225
 2196W        W21730   9.216   9.041   2.210  0.1516  0.1111 -0.3999
 2197W        W21731  16.881  12.127  11.566 -0.0183  0.0426  0.1452
 2198W        W21732   0.743   6.234  12.467  0.0328 -0.0078 -0.4194
 2199W        W21733   6.360  14.362   4.694  0.0523  0.1107  0.2470
 2200W        W21734   1.448   6.783  12.612 -0.4578 -0.0583  0.0493
 2201W        W21735   8.865  14.504   3.004  0.2224 -0.1760  0.2214
 2202W        W21736  10.278   6.708  16.255 -0.1890 -0.2467 -0.1892
 2203W        W21737   4.753   9.654  16.402  0.0275  0.0988 -0.0216
 2204W        W21738   7.011   6.641   5.084  0.2217  0.0780 -0.0919
 2205W        W21739  17.070   8.988   4.912 -0.3476  0.0622 -0.0617
 2206W        W21740  15.841   1.409   2.881  0.1874 -0.1170 -0.2000
 2207W        W21741  12.695  12.810   1.524  0.0520 -0.2701 -0.1379
 2208W        W21742   8.371   1.232  12.691  0.1598  0.2097 -0.0111
 2209W        W21743  17.019   4.698  13.683 -0.0248 -0.0714 -0.0635
 2210W        W21744  10.279  11.298   1.403 -0.1019  0.0369 -0.2330
 2211W        W21745   6.990   8.533   4.217  0.0292  0.1954 -0.1652
 2212W        W21746   3.418   0.014   1.743 -0.3086 -0.1858  0.2138
 2213W        W21747   0.024   9.729  12.126  0.0149  0.1679  0.0558
 2214W        W21748  11.632  13.693  13.797  0.3222 -0.1396 -0.3071
 2215W        W21749  13.876   9.814   0.948  0.0268 -0.0374  0.1801
 2216W        W21750   0.994  14.455  12.875  0.3869 -0.0771  0.0723
 2217W        W21751  11.492   8.629  16.612 -0.0015 -0.1760 -0.1796
 2218W        W21752   1.798   7.991  13.585 -0.3061  0.1401 -0.2203
 2219W        W21753   1.813  13.882  15.035  0.3228  0.2426 -0.2548
 2220W        W21754   9.313   6.164   2.252  0.1367 -0.1215 -0.0394
 2221W        W21755  10.429  11.453  12.507  0.1517 -0.0976  0.0298
 2222W        W21756   6.182  11.252  13.925 -0.3168 -0.0808  0.0753
 2223W        W21757  16.092   1.550  13.598 -0.4360 -0.0846  0.1036
 2224W        W21758  15.169   7.646  14.620 -0.0746 -0.1161 -0.2936
 2225W        W21759   8.727  16.797  15.483 -0.0818  0.0199  0.3181
 2226W        W21760  16.402  16.868  15.423 -0.0315  0.1560  0.0758
 2227W        W21761   4.747   1.776   0.124  0.1287 -0.2398 -0.1484
 2228W        W21762  12.627   5.458  14.416  0.1343  0.3452  0.0277
 2229W        W21763   1.240  16.982   0.878  0.2020  0.1157 -0.4015
 2230W        W21764  10.097  14.931  16.500  0.0788  0.0586  0.0840
 2231W        W21765  14.308   1.751   0.577  0.2603  0.3727  0.2325
 2232W        W21766  16.829   8.995   2.835 -0.2500 -0.0012  0.1268
 2233W        W21767  12.998  10.734  16.315 -0.2582 -0.3460  0.1428
 2234W        W21768  16.716   4.005  16.509 -0.0607  0.2574 -0.0070
 2235W        W21769   4.120  16.397   2.048 -0.2292  0.0468 -0.0490
 2236W        W21770   1.883  11.616   3.518 -0.0388  0.0403 -0.1885
 2237W        W21771  14.676   6.584  12.924  0.0357  0.2477 -0.2289
 2238W        W21772   2.931  10.040  15.378  0.0396 -0.2331  0.0354
 2239W        W21773  17.097  11.825   4.469  0.4072 -0.2438 -0.1135
 2240W        W21774  11.081   6.441   4.457 -0.4288  0.1465  0.1243
 2241W        W21775   2.655  11.623   3.944  0.0951  0.0576 -0.1949
 2242W        W21776  15.439   8.099  12.258  0.1650 -0.0781 -0.0420
 2243W        W21777  14.041   4.273  15.203  0.0008  0.3767 -0.0080
 2244W        W21778  17.385  16.941   3.028  0.2049 -0.0234 -0.4464
 2245W        W21779   6.086   7.290   1.420 -0.0561 -0.1796  0.3262
 2246W        W21780   6.399   7.639   1.582 -0.0956 -0.1425 -0.1896
 2247W        W21781  11.718  10.241  15.621  0.0526  0.0293  0.0329
 2248W        W21782   6.479   9.039   1.113  0.0940 -0.0670 -0.0919
 2249W        W21783  15.839   0.916   3.376  0.0931  0.1467  0.1154
 2250W        W21784   2.948  14.123   0.068 -0.1871  0.0245 -0.1784
 2251W        W21785  16.694  10.220   2.193 -0.1303  0.1897  0.1034
 2252W        W21786  15.296  10.352   2.724 -0.2325  0.0100 -0.3870
 2253W        W21787   0.936  15.409   3.510 -0.0905  0.0636  0.2876
 2254W        W21788  14.082   2.304  14.336  0.1229  0.0779  0.2539
 2255W        W21789  12.620   2.143   3.144  0.1553  0.0350 -0.0611
 2256W        W21790  10.579   3.341  15.986 -0.0553  0.2726 -0.2978
 2257W        W21791   8.736  12.772  11.971  0.2986 -0.1846 -0.0653
 2258W        W21792   5.485   1.155  13.292 -0.1788  0.0705  0.0974
 2259W        W21793   4.926   3.805   3.449  0.2488  0.1353 -0.1689
 2260W        W21794   0.028  14.060  12.514  0.0697 -0.1663 -0.1546
 2261W        W21795  11.240  10.919   3.264  0.1980 -0.1752 -0.1309
 2262W        W21796   2.005   1.725  12.350 -0.0828 -0.1431  0.4374
 2263W        W21797  15.369   5.170   0.868 -0.0788 -0.1002 -0.1754
 2264W        W21798   2.404  14.800  16.114 -0.2976  0.1369  0.1761
 2265W        W21799   8.830  17.122  13.031 -0.2609  0.0221 -0.0449
 2266W        W21800  17.015  10.312  16.182  0.2730 -0.1383  0.0522
 2267W        W21801   2.167   5.772  13.712  0.1135 -0.1609  0.1717
 2268W        W21802  13.689   3.080  12.136  0.3349 -0.1513 -0.0796
 2269W        W21803  10.517  13.667   2.147  0.3016 -0.1117  0.0767
 2270W        W21804   0.107  15.148   4.239 -0.1576  0.1060 -0.0244
 2271W        W21805   8.294   0.502  15.128  0.2534  0.2623 -0.0466
 2272W        W21806  11.661   9.991   4.071 -0.1983  0.0339  0.0948
 2273W        W21807   6.434   3.173   2.864  0.0098  0.1305 -0.0926
 2274W        W21808   7.328  17.431  14.681 -0.0080  0.1918  0.0202
 2275W        W21809   7.179  11.593   3.231 -0.0522  0.0878  0.0592
 2276W        W21810   9.898  16.672   3.782  0.1673 -0.2285  0.1548
 2277W        W21811  15.525   0.028   1.269 -0.2155  0.0377 -0.3008
 2278W        W21812   0.563   5.481   2.842 -0.0713  0.1162 -0.1968
 2279W        W21813  11.208   1.463  15.701  0.1028 -0.0472 -0.1483
 2280W        W21814   8.986  16.167  15.474  0.0284 -0.0861  0.2235
 2281W        W21815  10.063   7.752  13.784  0.0627 -0.0119  0.2014
 2282W        W21816  14.683   1.802  12.851  0.0861  0.1068  0.3881
 2283W        W21817   7.780   1.109  16.451 -0.0350 -0.2280  0.0108
 2284W        W21818   8.535   5.133  12.249  0.0902 -0.1972 -0.0065
 2285W        W21819   2.814  12.189   5.294  0.0039 -0.3437  0.3880
 2286W        W21820   3.811   2.464   3.018  0.1856 -0.2003 -0.3718
 2287W        W21821   6.812   1.925   4.050  0.3171  0.1120 -0.1123
 2288W        W21822   4.764  15.195   0.747 -0.3445  0.0512 -0.2987
 2289W        W21823   4.307  16.520   0.021  0.2447  0.1174  0.0749
 2290W        W21824   8.585   3.857  13.665  0.1381  0.5012  0.0934
 2291W        W21825  16.947   8.868  16.978 -0.1643 -0.2698 -0.0508
 2292W        W21826  17.665  12.326   4.161  0.0869  0.0744  0.0411
 2293W        W21827   6.047  12.722  16.459  0.1835  0.0110  0.1901
 2294W        W21828  13.992  16.687  13.970 -0.3020 -0.1458 -0.3176
 2295W        W21829  12.039  12.554  12.424  0.0280  0.0735 -0.0583
 2296W        W21830   1.860  16.400  12.398  0.2035 -0.3800  0.0119
 2297W        W21831   2.420   7.336  15.689 -0.1743  0.3490 -0.0188
 2298W        W21832  11.118  10.781   1.871  0.1264 -0.1450  0.1681
 2299W        W21833   3.773  16.793   1.700  0.0860  0.1292 -0.0745
 2300W        W21834  14.675   2.337   5.227 -0.2066  0.0488  0.0181
 2301W        W21835   5.816   9.275   2.412 -0.0073 -0.4281  0.1291
 2302W        W21836  14.042  12.025   0.379  0.0831 -0.0239  0.1847
 2303W        W21837  10.181  15.933   4.914 -0.3153 -0.4854 -0.1026
 2304W        W21838  16.416   9.793   2.043  0.2097  0.3311 -0.3080
 2305W        W21839  13.338   0.941   3.875 -0.0340  0.0595 -0.0349
 2306W        W21840   6.349   6.702  12.337 -0.1297 -0.1295 -0.2893
 2307W        W21841  10.528   2.552   1.280  0.1191  0.0000  0.0891
 2308W        W21842   6.534  13.112  14.833 -0.1255 -0.1218  0.0271
 2309W        W21843   0.598   8.128  15.444  0.1093 -0.4099 -0.2662
 2310W        W21844  10.715   4.334  17.046  0.3717 -0.1585 -0.1891
 2311W        W21845   3.289  16.813   1.570 -0.2183 -0.1607 -0.3002
 2312W        W21846   9.767   2.890   4.385 -0.0461  0.1302 -0.3360
 2313W        W21847  14.218  16.939   0.770 -0.2400 -0.0014 -0.0266
 2314W        W21848  15.665   4.813  15.558 -0.2804  0.1741  0.1384
 2315W        W21849  10.409  16.291  14.760 -0.1521  0.0183 -0.4193
 2316W        W21850   5.240   3.630   2.601  0.0638 -0.1826  0.1748
 2317W        W21851   8.121   8.583  13.644  0.2803 -0.0760 -0.0605
 2318W        W21852  14.678  11.252  16.914 -0.0935 -0.4133 -0.1179
 2319W        W21853  12.101  10.037   5.099  0.0151  0.1224  0.0484
 2320W        W21854   8.800   7.705   3.486 -0.2286 -0.1397 -0.1415
 2321W        W21855  10.366  16.220  16.903  0.1848  0.1498  0.1118
 2322W        W21856   9.615  14.182   0.346 -0.1597 -0.2101 -0.0931
 2323W        W21857  13.284   2.516  16.233 -0.2199 -0.0502 -0.0460
 2324W        W21858   7.615   2.424  14.883 -0.1187 -0.0054 -0.2821
 2325W        W21859  11.759  12.557   4.628 -0.1008  0.0985  0.0158
 2326W        W21860   7.090   5.516  14.316  0.1050 -0.0688 -0.1592
 2327W        W21861   7.070   6.045   3.581  0.1467  0.1378 -0.2831
 2328W        W21862   5.695   2.888   1.836  0.1254  0.3205 -0.1728
 2329W        W21863   5.333   2.954  13.384 -0.1572  0.0451  0.1425
 2330W        W21864   5.897  13.706   1.385 -0.0366 -0.2221  0.0746
 2331W        W21865  11.881   6.962  14.780  0.2079 -0.2909  0.0152
 2332W        W21866   6.865   5.685   0.990 -0.0623  0.1567 -0.3625
 2333W        W21867   6.471  14.143  14.169 -0.0176  0.0588  0.2112
 2334W        W21868  10.041   7.201   3.317 -0.3425  0.2657 -0.0320
 2335W        W21869   8.066   8.495   3.228 -0.0946 -0.1788 -0.2009
 2336W        W21870   4.745   4.686   3.381 -0.1242 -0.0966  0.0654
 2337W        W21871   3.352  11.691   1.224  0.0919 -0.0712  0.1031
 2338W        W21872   2.113  12.504  16.314  0.0252 -0.3712  0.1161
 2339W        W21873   8.931   2.444   5.003  0.1336 -0.3363 -0.0314
 2340W        W21874  10.605  13.743  14.828 -0.0056 -0.1014 -0.0870
 2341W        W21875   9.653   5.784   2.378  0.0772 -0.1077  0.0383
 2342W        W21876   3.680  11.726  16.367  0.0214  0.1229 -0.0859
 2343W        W21877  14.284   7.357  14.238 -0.0783 -0.2105 -0.1192
 2344W        W21878   0.681   1.219  15.544  0.1233  0.4207 -0.2011
 2345W        W21879   9.429  11.372   0.964  0.1411  0.0482  0.2859
 2346W        W21880   7.285  12.662  12.111  0.0431  0.4936 -0.0193
 2347W        W21881   2.270  10.589   1.377  0.1205 -0.2141  0.1470
 2348W        W21882  11.740   8.883  17.051 -0.1442  0.0364 -0.0123
 2349W        W21883  17.189  13.920   1.198  0.4210  0.1890 -0.2639
 2350W        W21884  15.375  10.729  16.743 -0.0338 -0.2614  0.1812
 2351W        W21885  15.934   1.614  14.768 -0.1580  0.2722  0.0011
 2352W        W21886   4.354  10.864   2.241 -0.1478 -0.1308 -0.0710
 2353W        W21887   0.484   7.717  12.140  0.0492 -0.1338 -0.2123
 2354W        W21888   6.231   2.202   2.804 -0.1293 -0.0788  0.1083
 2355W        W21889   4.914  11.434   1.469 -0.5371 -0.0444 -0.0025
 2356W        W21890  13.179   3.234  12.253 -0.1019 -0.2057  0.0852
 2357W        W21891   9.007  12.203  15.193  0.1448  0.1712 -0.1049
 2358W        W21892  10.266  13.583   4.711 -0.2514 -0.0004 -0.3716
 2359W        W21893   7.138   9.899  12.699 -0.1706 -0.2748 -0.0569
 2360W        W21894   8.985   7.700  11.901 -0.3618 -0.0504  0.0613
 2361W        W21895   1.085  12.428  14.144 -0.2202 -0.2384  0.0431
 2362W        W21896  12.339   8.991   0.028  0.3186 -0.3150  0.0352
 2363W        W21897  14.902  13.331  16.124  0.1147  0.2972  0.0729
 2364W        W21898   3.714   7.876   2.501  0.1564 -0.1449 -0.0845
 2365W        W21899  11.852  15.207  13.770  0.1013 -0.2066  0.0166
 2366W        W21900   6.187   1.582   0.520  0.4583  0.0361  0.1867
 2367W        W21901  16.881  15.537  16.284 -0.0080 -0.2052 -0.2349
 2368W        W21902   6.038  17.550   3.992  0.0713 -0.2720 -0.0717
 2369W        W21903  12.479   1.480   3.676 -0.2682  0.2649  0.0771
 2370W        W21904   4.196  11.671   1.296 -0.3814  0.0117 -0.1221
 2371W        W21905   2.657  10.184  13.276  0.0810  0.0461 -0.4096
 2372W        W21906   1.995   4.551   0.299 -0.0925 -0.0772 -0.1403
 2373W        W21907   4.710   6.789  12.477 -0.2790  0.0217 -0.0014
 2374W        W21908   6.204  14.019   0.036 -0.0289  0.2636  0.1188
 2375W        W21909   3.643   1.135  12.474 -0.1155  0.0351  0.0213
 2376W        W21910   7.104  16.495   1.448  0.1048  0.1391 -0.0473
 2377W        W21911  13.156   3.938   4.686  0.0365  0.0002  0.1920
 2378W        W21912  15.379  13.858  13.170 -0.0095  0.3008 -0.1301
 2379W        W21913  10.483  12.681  14.816  0.5758  0.0071 -0.0799
 2380W        W21914  15.132   8.540  15.946 -0.2149  0.0526  0.1633
 2381W        W21915   4.352   8.535  15.647  0.1009  0.2199  0.1767
 2382W        W21916  17.383   1.005  14.103  0.2053 -0.0183 -0.0066
 2383W        W21917  14.690   3.648  15.330  0.0092  0.2860  0.1011
 2384W        W21918   6.605   7.017   2.166 -0.1655  0.1328  0.1200
 2385W        W21919   4.556   1.885  12.141 -0.0677  0.3870  0.1350
 2386W        W21920   4.140  13.936  11.753 -0.0999 -0.3301 -0.0692
 2387W        W21921   0.767  15.680   4.730 -0.1305  0.1467  0.1662
 2388W        W21922   0.288   0.266  12.368  0.0428  0.4575 -0.0872
 2389W        W21923  12.364   9.800   5.472 -0.3318 -0.0431 -0.3352
 2390W        W21924  12.835  14.065   1.048 -0.2052 -0.0300  0.0413
 2391W        W21925  10.428  11.490  13.017  0.1792 -0.3687 -0.0969
 2392W        W21926   7.788   1.600  16.969  0.3867 -0.1342  0.0706
 2393W        W21927   2.135   9.146  12.504  0.2429  0.0040  0.0739
 2394W        W21928  12.749  13.127  14.552  0.2044  0.0970  0.1602
 2395W        W21929   9.481   4.813   2.926 -0.2326  0.2138 -0.0162
 2396W        W21930   0.731  16.917  11.766  0.1647  0.1856 -0.1614
 2397W        W21931   8.923   1.222   2.344  0.2656 -0.0987  0.0279
 2398W        W21932  14.374  17.383   0.495 -0.0929  0.0627 -0.0872
 2399W        W21933   6.798  16.652  12.670  0.1842 -0.1025 -0.0371
 2400W        W21934   4.465   1.841  13.919  0.1236  0.1897  0.0754
 2401W        W21935   2.596   1.060  14.222  0.1249 -0.0221 -0.0675
 2402W        W21936   4.151   4.247   0.641  0.0855 -0.2159  0.1019
 2403W        W21937   6.749   2.320  15.651 -0.1726 -0.0548  0.0803
 2404W        W21938  17.516  16.197  17.019  0.0729 -0.4127  0.2975
 2405W        W21939  14.083  12.036  13.309  0.0689 -0.0333 -0.0840
 2406W        W21940   2.015   1.574  13.872 -0.2557 -0.1255 -0.1938
 2407W        W21941  12.161   1.386  15.871  0.0294  0.1244  0.1179
 2408W        W21942  17.218   8.103  15.511  0.3519  0.0645  0.1641
 2409W        W21943  11.397  12.985  13.829  0.0276  0.0892  0.2914
 2410W        W21944  14.585  14.814   4.269  0.0673 -0.4507 -0.0743
 2411W        W21945  14.502   4.975   2.975 -0.0934 -0.3930 -0.2828
 2412W        W21946  16.321   3.645  16.813  0.0518  0.0235 -0.0227
 2413W        W21947   8.139   1.810  15.878  0.0966  0.0625 -0.0767
 2414W        W21948   6.369   6.329  14.480  0.0045  0.0504 -0.0095
 2415W        W21949   8.237  13.197  15.739  0.0775 -0.0418  0.1015
 2416W        W21950  14.423   7.357  13.305  0.0400  0.2508  0.0304
 2417W        W21951  11.279   4.066   4.428  0.0637  0.4487 -0.2554
 2418W        W21952   3.313  16.080  13.358  0.0794 -0.0095 -0.1001
 2419W        W21953   5.256   9.356  14.945  0.2259 -0.0126 -0.1185
 2420W        W21954  11.253  11.258   1.840  0.3509  0.2176  0.0212
 2421W        W21955  12.951   2.303   4.069  0.0332  0.1522 -0.1098
 2422W        W21956  13.666   2.197  15.509  0.0050 -0.0765 -0.0178
 2423W        W21957   4.416   4.854  15.538  0.1037  0.2859  0.0903
 2424W        W21958   7.489   3.055   2.705 -0.3184  0.1531  0.0752
 2425W        W21959  16.227  12.926   3.368  0.0081 -0.0610  0.1647
 2426W        W21960  10.465   6.414   3.151  0.0924  0.1461  0.1591
 2427W        W21961  10.717  11.890   1.518  0.0135 -0.2110 -0.1117
 2428W        W21962   1.192   5.435   4.422 -0.0330 -0.2760  0.0144
 2429W        W21963  10.631   7.030  15.733 -0.1222  0.3279  0.1462
 2430W        W21964   3.073   9.757   2.471 -0.1028 -0.0223 -0.1348
 2431W        W21965  17.645   5.709  14.624  0.0024  0.2419 -0.2715
 2432W        W21966  11.240  13.822  12.167 -0.3415  0.2007 -0.0922
 2433W        W21967   0.017   7.361  15.542  0.0328 -0.0347 -0.0589
 2434W        W21968   2.177  15.526  15.429 -0.1748 -0.0494 -0.1172
 2435W        W21969   8.257  15.608   1.993 -0.0753 -0.0807  0.0687
 2436W        W21970  13.172  14.470  13.481 -0.1891  0.1362 -0.0059
 2437W        W21971  16.093  13.225   5.167 -0.1986 -0.1636 -0.0851
 2438W        W21972  10.446   4.785  15.971 -0.2316 -0.1664  0.3010
 2439W        W21973  13.614  12.877   5.010 -0.3345  0.1609 -0.1300
 2440W        W21974  10.398   9.954   0.494 -0.1833  0.0402 -0.1398
 2441W        W21975   5.103  11.779   2.953  0.1076 -0.2051  0.2936
 2442W        W21976  13.224  12.846  15.864 -0.1913  0.1484  0.1054
 2443W        W21977   3.794   7.762   4.406  0.0118  0.2262 -0.0887
 2444W        W21978  14.989  13.988   1.806  0.1033 -0.1389  0.2659
 2445W        W21979   9.689  14.021   1.182 -0.0717  0.0871 -0.1898
 2446W        W21980  12.854  15.534  12.010 -0.2303  0.2187  0.3767
 2447W        W21981  12.007   6.949   1.301 -0.2669 -0.1058 -0.1994
 2448W        W21982  13.297  15.876   0.810 -0.1439 -0.0798  0.0142
 2449W        W21983  14.852  13.649   3.895 -0.2817  0.1291 -0.0643
 2450W        W21984  13.375  11.995  16.168  0.1401  0.2552 -0.1130
 2451W        W21985  12.920  11.821   1.241 -0.2561  0.0610 -0.1132
 2452W        W21986  13.971   1.752  15.625  0.1051  0.2061  0.0842
 2453W        W21987   9.082   6.016   3.933 -0.0699  0.0766  0.3657
 2454W        W21988  16.533   8.080   3.133  0.0677  0.0961 -0.0873
 2455W        W21989   0.353   9.776   5.271  0.1979 -0.0867  0.0614
 2456W        W21990  10.139   0.033  12.713  0.0830  0.1316  0.1458
 2457W        W21991   8.286  14.813  12.517 -0.0805 -0.1271  0.0977
 2458W        W21992  11.591  10.918  16.368 -0.0752  0.2034 -0.0245
 2459W        W21993  16.025   9.226  13.975  0.1879  0.3205  0.1245
 2460W        W21994  16.688   1.194   3.287  0.0766 -0.0360  0.0759
 2461W        W21995   3.975   5.511   1.863  0.1030 -0.0160  0.0698
 2462W        W21996  10.591   0.678   2.356 -0.2666  0.2205 -0.0848
 2463W        W21997  10.770  16.191  13.728 -0.1134  0.0471 -0.0887
 2464W        W21998   0.299   4.213  15.712 -0.0398  0.0616  0.0799
 2465W        W21999  13.622  14.521  14.669 -0.0335 -0.0594  0.2079
 2466W        W22000  16.546  10.820   3.731  0.0622  0.0515 -0.3100
 2467W        W22001  11.348  15.698  16.554 -0.1334 -0.0198 -0.0203
 2468W        W22002  17.159   4.171  16.826 -0.0893  0.1605 -0.2650
 2469W        W22003   3.620   9.255   0.096  0.0813 -0.0799 -0.1681
 2470W        W22004  14.004  11.701   1.854  0.3069  0.1500  0.2383
 2471W        W22005   8.777  16.719   5.397  0.0277  0.1336 -0.2116
 2472W        W22006   6.729  13.732  14.104  0.0288  0.1679 -0.1788
 2473W        W22007   2.367   4.624  17.056 -0.1784  0.0838 -0.0519
 2474W        W22008  17.604   1.649  15.512 -0.0125 -0.0462 -0.0618
 2475W        W22009   7.498  11.569   1.296 -0.1277  0.2808 -0.0466
 2476W        W22010   0.604  15.500  13.876 -0.3621 -0.4234 -0.2895
 2477W        W22011   4.387   6.959  16.963 -0.0549 -0.2247  0.0970
 2478W        W22012  17.245  14.948  11.973 -0.1875  0.0841 -0.0263
 2479W        W22013   6.345  14.931   2.152  0.3092 -0.0540 -0.1050
 2480W        W22014   3.340  17.327  12.169  0.4913 -0.0289 -0.2210
 2481W        W22015   7.330   6.285   2.971  0.1026 -0.0875 -0.0778
 2482W        W22016  16.917   0.558   4.111 -0.1957  0.0865 -0.2294
 2483W        W22017  15.872   5.149  15.262 -0.3052 -0.2575  0.2741
 2484W        W22018   0.011   9.393  14.967 -0.0510 -0.0644 -0.2130
 2485W        W22019  10.421  13.096   3.027 -0.6523 -0.2521  0.0490
 2486W        W22020   7.638  17.577   3.228 -0.0865  0.3761  0.2688
 2487W        W22021  14.034   8.627   4.732 -0.1745 -0.3610 -0.0921
 2488W        W22022   1.893   8.011  14.688  0.2784 -0.2643  0.2776
 2489W        W22023   3.091  11.117   2.950 -0.0425  0.1797 -0.2991
 2490W        W22024   4.965   9.004  17.008  0.0771 -0.3341  0.0671
 2491W        W22025  15.280   1.776   4.031 -0.4470  0.3777  0.2019
 2492W        W22026  12.022   6.736  15.275  0.0126 -0.2831 -0.2041
 2493W        W22027  16.358  10.424  16.489  0.2936  0.2514 -0.2223
 2494W        W22028   1.024  16.232  12.759 -0.1579  0.2107 -0.0999
 2495W        W22029   5.352   7.759   1.115  0.1405  0.0619 -0.0945
 2496W        W22030   6.528   1.055  15.356 -0.1882 -0.1720  0.2234
 2497W        W22031   3.445   6.098  14.562  0.0373 -0.0795  0.0035
 2498W        W22032  16.836   1.935   4.929  0.1731 -0.4117 -0.0598
 2499W        W22033   3.037   0.379  16.010 -0.0274 -0.1944  0.0381
 2500W        W22034   7.518   9.376  14.174  0.2395 -0.1669  0.1990
 2501W        W22035   0.856   9.555   2.461 -0.0673  0.1907  0.1558
 2502W        W22036   7.528  11.969  16.144  0.1252 -0.1993 -0.0137
 2503W        W22037  11.620   5.559  14.321 -0.0556  0.0777 -0.0818
 2504W        W22038  14.155  11.149   4.067 -0.3240  0.3286  0.3016
 2505W        W22039  16.070   2.787   3.994 -0.1153 -0.0676  0.1198
 2506W        W22040   0.309  10.494   1.531  0.0857 -0.1771 -0.0335
 2507W        W22041  11.338  11.022   3.745 -0.2379 -0.2135  0.0893
 2508W        W22042  17.071   0.237  12.529  0.0927  0.0690  0.0029
 2509W        W22043  15.846  10.254   3.908 -0.2347  0.2026  0.1264
 2510W        W22044  11.382   8.785   0.350 -0.1476 -0.0242  0.0644
 2511W        W22045  10.358  14.611   4.159  0.0211 -0.1512  0.3470
 2512W        W22046   9.856  14.234  14.072 -0.1379 -0.2438  0.1395
 2513W        W22047   5.220   2.225   3.156 -0.0843  0.1626 -0.3176
 2514W        W22048   5.093   2.954   1.428  0.0521  0.0659  0.3561
 2515W        W22049  17.312  16.065   0.427  0.1501 -0.2550  0.0828
 2516W        W22050   6.557   3.925  15.458  0.2044  0.1999 -0.0252
 2517W        W22051  12.935  15.495   3.181 -0.1953 -0.0882  0.1385
 2518W        W22052   1.136   8.694   0.043  0.1745  0.0823 -0.2228
 2519W        W22053  15.366  13.562  12.099  0.2256  0.1711  0.1879
 2520W        W22054   8.802   8.713   5.076  0.3606  0.3132 -0.2825
 2521W        W22055  10.653  11.446  16.451  0.1840 -0.0844 -0.0441
 2522W        W22056   6.640   6.325  13.264  0.0580 -0.2151  0.2443
 2523W        W22057  11.238  14.849  15.787 -0.0265  0.1694  0.0072
 2524W        W22058   7.269  15.958   3.705 -0.2094 -0.1001  0.3988
 2525W        W22059  13.367  15.191   0.715  0.0044 -0.1030  0.1198
 2526W        W22060  13.161   1.521  13.475 -0.1617  0.0259 -0.0451
 2527W        W22061   6.840   2.546   1.304  0.3549  0.1513 -0.2167
 2528W        W22062  15.889  11.722  12.954  0.2308  0.2271 -0.0227
 2529W        W22063   7.712  10.400   2.235  0.1174  0.1309 -0.2472
 2530W        W22064   1.026   3.686  16.328  0.2636 -0.3448  0.0299
 2531W        W22065   6.512   6.532  14.951 -0.1679  0.0312 -0.1378
 2532W        W22066   0.992   4.644   1.693  0.1337  0.1946 -0.1571
 2533W        W22067   2.867  16.833  16.398 -0.0837  0.1797 -0.1409
 2534W        W22068  14.999   2.652   2.515 -0.1860 -0.1134  0.0462
 2535W        W22069  16.580   8.448   0.512 -0.2071 -0.1081 -0.1232
 2536W        W22070  17.578   2.376   4.043  0.2694  0.1759 -0.0220
 2537W        W22071   7.168  16.134   2.869  0.1677 -0.0729 -0.2292
 2538W        W22072  14.071  10.106  16.034  0.1143  0.2216  0.1342
 2539W        W22073   2.130   8.884  15.986  0.0264  0.3112  0.0582
 2540W        W22074   7.295   5.036  12.950  0.1040  0.1240  0.1635
 2541W        W22075   5.778   2.771  14.605  0.0887 -0.1431  0.0404
 2542W        W22076   1.464   8.479  15.079 -0.2122  0.1793  0.2004
 2543W        W22077   3.219  16.099  14.830 -0.2256 -0.1230  0.3691
 2544W        W22078  15.952   9.640  13.793  0.2415 -0.0797 -0.0686
 2545W        W22079   1.182  16.403  13.541  0.1060  0.1515  0.0111
 2546W        W22080   1.572   3.509  14.112 -0.1738 -0.2165 -0.1227
 2547W        W22081   4.392   0.122   1.960  0.1279  0.1492 -0.2256
 2548W        W22082   0.329  11.145  16.559  0.0935  0.0360  0.2127
 2549W        W22083   4.002   1.782   1.401  0.2006  0.0422  0.0589
 2550W        W22084   4.506  16.833  12.285 -0.0955 -0.1092  0.0396
 2551W        W22085   8.328  12.067  12.974  0.1485 -0.0821  0.3323
 2552W        W22086  12.224  10.393   2.833 -0.2288  0.1124 -0.2218
 2553W        W22087   6.654   0.514  14.671 -0.3032  0.0958 -0.3937
 2554W        W22088  11.944  15.364  15.253 -0.0912 -0.1196 -0.3526
 2555W        W22089   6.624   4.294   5.896  0.1904 -0.0061  0.0164
 2556W        W22090  13.089   6.720   2.090 -0.0177  0.2077 -0.3675
 2557W        W22091   4.499  17.346  12.091  0.1667 -0.2370  0.0248
 2558W        W22092   2.305   5.239  14.556 -0.2328 -0.0027  0.1043
 2559W        W22093   8.303  10.111   3.555 -0.0278  0.3669 -0.0320
 2560W        W22094  12.017   5.635  15.371 -0.0797 -0.2557 -0.0006
 2561W        W22095   0.157   5.930  15.386  0.1743 -0.0169  0.2020
 2562W        W22096  16.439  16.961   0.772 -0.1700  0.0506  0.1311
 2563W        W22097   1.693   9.151  16.118 -0.3125  0.0573  0.1946
 2564W        W22098  16.654  12.519  13.775 -0.2534  0.0201  0.1022
 2565W        W22099  12.809  14.757  12.482 -0.0098  0.1649  0.1689
 2566W        W22100  11.918   0.623   0.610  0.0427  0.0270  0.1990
 2567W        W22101  16.196  14.485  13.200  0.2801 -0.2342  0.2845
 2568W        W22102   6.417   6.452   0.629 -0.0613 -0.2629  0.3020
 2569W        W22103  16.787  16.274  12.471 -0.0844  0.1220  0.2219
 2570W        W22104   3.452   4.038  15.852  0.3815  0.3590  0.0683
 2571W        W22105   0.079   3.193   4.188  0.1180  0.0841  0.2532
 2572W        W22106  12.480   9.898   1.140 -0.3212  0.2523 -0.0573
 2573W        W22107   1.100   3.209   6.137  0.0878  0.4307 -0.0532
 2574W        W22108   8.225   5.642   0.671  0.2684 -0.3470  0.0831
 2575W        W22109   9.428   8.145  13.402  0.2340  0.1531 -0.1668
 2576W        W22110  16.963   2.252   3.238 -0.2524  0.3362  0.0060
 2577W        W22111   5.065  16.136  13.738 -0.0415 -0.1351 -0.0831
 2578W        W22112   2.247  12.772  13.921 -0.2195 -0.1868  0.1641
 2579W        W22113   6.711   1.886  14.064  0.0137  0.0708  0.0568
 2580W        W22114   2.324   0.971   4.697 -0.0857  0.2557  0.0536
 2581W        W22115   0.704  16.669   1.086 -0.0534  0.1335 -0.1934
 2582W        W22116  11.372  15.696   2.049 -0.0266 -0.3029 -0.1071
 2583W        W22117   5.311   2.933  12.378  0.1228  0.0834  0.0290
 2584W        W22118   1.514   4.691  14.391  0.1116 -0.2308 -0.1211
 2585W        W22119   6.695  14.624   0.194 -0.1723  0.4267  0.0418
 2586W        W22120  17.390  15.487  13.437  0.1423 -0.1216  0.2433
 2587W        W22121  13.506   0.152  14.237  0.4302 -0.0791  0.0458
 2588W        W22122  16.243   1.538   4.136  0.0223 -0.0626 -0.0656
 2589W        W22123  16.849  15.218  13.337 -0.0152 -0.0233 -0.0680
 2590W        W22124  11.751   3.009   5.087 -0.2361 -0.0403  0.2719
 2591W        W22125   2.797   0.185   3.410 -0.1944  0.0363 -0.3233
 2592W        W22126  16.873   9.769   0.227  0.0533  0.0599  0.1041
 2593W        W22127   5.036  14.364   0.355 -0.1896 -0.0352  0.1875
 2594W        W22128  15.442   2.081  14.167  0.2496  0.1410 -0.0142
 2595W        W22129   4.619  13.326  13.801  0.1403  0.0198  0.1410
 2596W        W22130   5.016  11.451   3.328 -0.2742  0.3843  0.0910
 2597W        W22131   0.524   0.930   1.686  0.0717  0.2522  0.3041
 2598W        W22132  16.808  17.080   4.274  0.1958  0.2152 -0.0608
 2599W        W22133  11.052   9.930   2.343  0.0371  0.0406 -0.2774
 2600W        W22134   6.473   5.478  15.135 -0.0527  0.1306 -0.1568
 2601W        W22135   0.356  13.206   1.537 -0.1462  0.0529 -0.3136
 2602W        W22136   3.503   4.857   5.040 -0.2998 -0.0106  0.0961
 2603W        W22137   8.646   8.555  14.471 -0.3788 -0.1160 -0.0532
 2604W        W22138   7.538   4.871  16.020  0.0557  0.0178  0.1287
 2605W        W22139  12.416   2.795  11.987 -0.1936  0.0331  0.0849
 2606W        W22140   4.559  14.733   2.811  0.1728  0.1035  0.0903
 2607W        W22141   9.836   8.072   2.725  0.0529  0.2692  0.0437
 2608W        W22142  10.810  17.579  12.800  0.2876  0.2118  0.1820
 2609W        W22143  12.964  11.614   3.619 -0.1649 -0.1300 -0.2092
 2610W        W22144  13.475  10.587   1.671  0.0763 -0.0989  0.3007
 2611W        W22145  14.280  11.510   3.653  0.0801 -0.2564  0.1382
 2612W        W22146   5.331   0.017   4.674  0.0608  0.2084 -0.1125
 2613W        W22147   2.604  10.856   3.040 -0.3140 -0.1521 -0.0437
 2614W        W22148   9.430  13.921  14.187 -0.0390  0.1228  0.0255
 2615W        W22149   9.056   9.121   3.959  0.0931  0.0824 -0.0391
 2616W        W22150   0.010   6.222   4.664  0.0340  0.0503 -0.0963
 2617W        W22151  16.605  16.928  13.408  0.0834 -0.0029 -0.1001
 2618W        W22152  15.499   8.396  12.852  0.3926  0.2193 -0.1471
 2619W        W22153  10.862   8.466  15.806 -0.0945 -0.0981  0.3119
 2620W        W22154   6.818   2.894   3.193 -0.0545 -0.1370  0.5732
 2621W        W22155   5.106  17.600   2.207 -0.3619  0.0994  0.0099
 2622W        W22156   3.682  10.746  12.033 -0.0267 -0.0173 -0.0902
 2623W        W22157   3.662   8.122  14.010  0.0872 -0.2626  0.3539
 2624W        W22158   1.474  15.768  14.485 -0.2365 -0.2994  0.0323
 2625W        W22159   7.034   0.770   2.269 -0.0577  0.1105 -0.2359
 2626W        W22160   8.992  12.191   2.365 -0.2100  0.0427  0.1231
 2627W        W22161  10.639   9.522  16.914  0.2135  0.2976 -0.1709
 2628W        W22162   8.321   3.384  16.474 -0.0991 -0.1660  0.1433
 2629W        W22163  16.910   3.333   3.958 -0.0019  0.0726  0.0048
 2630W        W22164   3.179   6.595  15.061  0.2434  0.2085  0.1958
 2631W        W22165  14.469  11.788   2.092  0.0437  0.3625 -0.1228
 2632W        W22166   7.622   8.253   5.860  0.0594 -0.0139  0.2507
 2633W        W22167   5.392   7.160  14.828  0.0194 -0.1110 -0.0424
 2634W        W22168  16.112   0.499   3.459  0.4342 -0.1249 -0.0415
 2635W        W22169   8.937   4.451   1.963 -0.0382 -0.0937  0.0086
 2636W        W22170  11.937   5.631  12.334  0.0659  0.0282  0.2496
 2637W        W22171   4.950   3.543  16.602  0.1749  0.0008 -0.5112
 2638W        W22172  10.931  15.259   1.396  0.0786  0.0724  0.2142
 2639W        W22173   3.965   6.293  15.317 -0.1381 -0.3792 -0.1035
 2640W        W22174  15.748  13.557   2.236  0.2267 -0.1400 -0.0354
 2641W        W22175   9.721  10.010   3.719  0.1608 -0.0901  0.2250
 2642W        W22176   4.812  15.460  13.178  0.0460  0.0048 -0.1349
 2643W        W22177   8.990   9.662   0.353  0.0287  0.0917  0.0972
 2644W        W22178   8.136   3.857   0.361  0.4028 -0.1247  0.1715
 2645W        W22179   7.099  17.644   3.797  0.3099 -0.0404 -0.0835
 2646W        W22180   2.611   3.863   5.013  0.2353  0.0260 -0.1324
 2647W        W22181   0.993   4.727  15.597 -0.2541  0.1356  0.1065
 2648W        W22182   3.334   9.530  16.646 -0.0336  0.3197  0.0412
 2649W        W22183  13.731   3.370  16.217 -0.0661 -0.2178  0.1864
 2650W        W22184   3.993  10.873   3.225 -0.0829  0.1104  0.0096
 2651W        W22185   8.710   7.364  12.631  0.2449  0.2666 -0.4009
 2652W        W22186   5.979  17.003  14.772 -0.1248 -0.1545  0.0347
 2653W        W22187  14.038  11.356   1.429  0.2995  0.1523  0.1857
 2654W        W22188  10.477   1.303   3.858 -0.2844 -0.1525 -0.2247
 2655W        W22189   7.955   2.239  12.188  0.0150 -0.0156  0.2539
 2656W        W22190   1.441  12.973   4.503 -0.0756  0.0996  0.0868
 2657W        W22191   3.383  12.746  14.619 -0.1428 -0.0193  0.0198
 2658W        W22192   1.277   9.777   3.590  0.1743  0.1118 -0.2117
 2659W        W22193  16.854   2.573   3.605  0.5677  0.1995  0.2472
 2660W        W22194  13.266  17.505   3.919  0.1632  0.0753  0.1810
 2661W        W22195   4.130   2.383  15.841 -0.1865  0.1224  0.1747
 2662W        W22196  15.518   7.161  15.915  0.2006 -0.0899  0.1242
 2663W        W22197   9.434   9.634   3.967 -0.0839 -0.3175  0.1356
 2664W        W22198   6.868   4.794   1.982 -0.0540  0.3373  0.1067
 2665W        W22199  15.113   9.771   3.987 -0.1281  0.1544 -0.2044
 2666W        W22200  12.775  12.804  15.190  0.4126 -0.0680 -0.4952
 2667W        W22201  16.208   4.193   1.063  0.3059 -0.2399 -0.0622
 2668W        W22202   6.749   2.524   2.839 -0.0909  0.0933 -0.0253
 2669W        W22203   3.926   2.454   2.159  0.1457 -0.1676  0.0527
 2670W        W22204  17.244  17.625  15.253 -0.2586  0.0893 -0.0252
 2671W        W22205   3.212   7.301   1.842  0.0809 -0.1058  0.1369
 2672W        W22206  10.550   6.466  15.892  0.0564 -0.4366 -0.2781
 2673W        W22207   1.221   7.773   3.502  0.1192 -0.0341  0.0094
 2674W        W22208  17.235   1.961  14.195  0.0621  0.2216  0.0089
 2675W        W22209  12.656   8.674   2.322 -0.0474  0.2067  0.3181
 2676W        W22210  10.472   9.911  12.391  0.0212  0.0350 -0.1032
 2677W        W22211   2.409  11.744  12.742 -0.1364 -0.0969  0.0034
 2678W        W22212   7.844   8.029   4.516  0.2411 -0.2136  0.1801
 2679W        W22213  16.154   1.272   0.019  0.0066 -0.2209  0.0517
 2680W        W22214   8.410   5.165  15.137 -0.0535 -0.1688 -0.2558
 2681W        W22215   2.200   2.588   0.408 -0.0296  0.3032 -0.0669
 2682W        W22216   0.432   7.129  15.387 -0.1197  0.1960 -0.2853
 2683W        W22217   7.901   7.546   4.500 -0.0051  0.1024 -0.2445
 2684W        W22218  16.115  16.675  15.954 -0.0187  0.0172  0.0631
 2685W        W22219   9.147   7.483  12.797  0.2295  0.4545 -0.0264
 2686W        W22220  16.212  15.966  12.998  0.0232 -0.1269  0.0725
 2687W        W22221   7.374   7.791   1.524  0.0662 -0.1428  0.0601
 2688W        W22222   7.433   2.003   1.996  0.1754 -0.0161  0.0743
 2689W        W22223  11.039  17.614   0.602  0.1195  0.3205 -0.1547
 2690W        W22224  13.315   6.992   2.500 -0.2359  0.1726 -0.0944
 2691W        W22225  15.326  12.443  16.343  0.2459  0.3937  0.3070
 2692W        W22226  11.511   2.718   0.325  0.0376 -0.1647 -0.0924
 2693W        W22227  12.400   9.909   0.328 -0.0098 -0.1139  0.1380
 2694W        W22228  16.353   5.421   5.305  0.3612  0.1134  0.1405
 2695W        W22229  10.735  15.059   0.658  0.0479  0.3191  0.1321
 2696W        W22230   9.052  16.174   3.802  0.1800 -0.1438  0.1037
 2697W        W22231   7.985   5.689   2.416  0.0937  0.1934 -0.0545
 2698W        W22232   8.804  11.687  13.396  0.1295 -0.1107  0.4659
 2699W        W22233   0.173   9.560  14.208  0.2101 -0.3144  0.0692
 2700W        W22234  10.131  11.595  15.590 -0.2771 -0.0397 -0.1850
 2701W        W22235   7.859   6.704  13.644  0.0845  0.3452  0.0603
 2702W        W22236   8.815   9.494  14.565  0.1627 -0.0953  0.5677
 2703W        W22237  15.062   9.095  15.849  0.1798 -0.0611 -0.0655
 2704W        W22238   4.200  15.025  11.491 -0.0410 -0.0336 -0.1201
 2705W        W22239   3.274  13.114   4.724  0.0229  0.3259 -0.0594
 2706W        W22240   2.369   8.921   4.923  0.2930 -0.0716  0.0441
 2707W        W22241   4.790   1.479  15.624 -0.0271 -0.0222 -0.0301
 2708W        W22242   5.246  15.357  16.495  0.1199 -0.3212  0.1410
 2709W        W22243   9.850   5.832  16.956 -0.0578 -0.1672 -0.1165
 2710W        W22244  12.741  12.634   0.916 -0.0478 -0.0635 -0.1747
 2711W        W22245  14.394  13.681  12.274  0.0511 -0.0965  0.2021
 2712W        W22246  15.381  12.876   1.099 -0.0172 -0.0661  0.2839
 2713W        W22247  14.015   1.090  13.787 -0.1564 -0.2591  0.0294
 2714W        W22248  16.130  11.563  15.811 -0.3169  0.1282  0.0017
 2715W        W22249   1.442   2.922  14.719 -0.2240 -0.4616 -0.0838
 2716W        W22250  12.108  14.550  13.415  0.3843 -0.4974 -0.0881
 2717W        W22251   8.041  15.266   2.342  0.0960  0.0903 -0.2292
 2718W        W22252   6.401  16.923  16.048  0.0553  0.3284  0.2655
 2719W        W22253   5.616   0.374   4.472 -0.2236 -0.2899 -0.2267
 2720W        W22254  13.648   1.666   3.749 -0.2272  0.2739 -0.1860
 2721W        W22255  13.558   6.950  12.528  0.1180  0.2641  0.0114
 2722W        W22256   4.561   7.433   2.175  0.3869  0.1630 -0.3406
 2723W        W22257   1.209   2.585   4.258  0.0290  0.0750  0.0844
 2724W        W22258  13.403  11.615   3.891  0.3254  0.2109  0.0530
 2725W        W22259  12.995  10.076  14.848  0.1427  0.0440 -0.1026
 2726W        W22260   7.592  16.197  13.269 -0.0522  0.0049 -0.2590
 2727W        W22261  11.301  13.843   0.274  0.2137 -0.2924 -0.0276
 2728W        W22262  13.286   1.274   4.932  0.0588  0.1567 -0.1521
 2729W        W22263   2.679  11.838   1.102  0.3081  0.2051 -0.0353
 2730W        W22264   0.718   6.849   1.857 -0.0865  0.0001 -0.0140
 2731W        W22265   2.792  11.388  15.066  0.0811  0.2704 -0.2187
 2732W        W22266  13.597  10.602   1.143  0.1262  0.3622 -0.2838
 2733W        W22267   6.270  10.014  12.534 -0.1058 -0.0930  0.0302
 2734W        W22268   2.286   3.642  16.476  0.0054 -0.0758  0.1360
 2735W        W22269   6.277   9.619  13.573 -0.0638  0.2801  0.0167
 2736W        W22270  15.015  16.746  15.441 -0.0574  0.0443  0.2029
 2737W        W22271   8.630  14.359  13.313 -0.0553  0.1539 -0.2155
 2738W        W22272  16.082  11.685   3.485 -0.1846 -0.2490 -0.3605
 2739W        W22273   1.778   0.800  16.977  0.0498  0.1813  0.0675
 2740W        W22274   5.463   3.675  16.381 -0.0428  0.3719 -0.2488
 2741W        W22275   4.395   5.634  13.633 -0.0268 -0.2100 -0.2930
 2742W        W22276  16.995  13.778  13.724 -0.2058 -0.2104 -0.2246
 2743W        W22277   6.042   3.321   0.181 -0.3117 -0.0746  0.1329
 2744W        W22278  12.484   5.949   2.330 -0.0227 -0.2632 -0.2191
 2745W        W22279  12.311   6.574  13.965 -0.1657  0.2729 -0.1215
 2746W        W22280   3.937   5.835  14.517 -0.0418 -0.0617 -0.3196
 2747W        W22281   1.319  14.421  11.579  0.0961  0.0414 -0.1122
 2748W        W22282  10.704  11.709  14.735 -0.1065 -0.0492 -0.3640
 2749W        W22283   1.342   2.541   2.658  0.1756 -0.0010  0.3767
 2750W        W22284   0.566   4.270   4.609 -0.0349 -0.4381  0.0123
 2751W        W22285   3.420  16.363   1.162  0.0461  0.1355  0.0234
 2752W        W22286  16.080  13.617  16.709  0.0146  0.0076  0.0266
 2753W        W22287  15.672   4.842  12.465 -0.2526  0.1892 -0.1948
 2754W        W22288   6.657  12.060  15.862  0.0097  0.2277 -0.0024
 2755W        W22289  13.107   5.886   2.220  0.2820  0.0240  0.1112
 2756W        W22290  12.389   3.945  12.838  0.4322 -0.0167 -0.0008
 2757W        W22291   4.238   6.632  11.271  0.2886  0.1397  0.0894
 2758W        W22292   6.284   4.691   1.876 -0.1062  0.0271 -0.1595
 2759W        W22293   1.310  12.066   1.872  0.0164  0.1462  0.1083
 2760W        W22294   2.796   7.355  15.277 -0.3574 -0.0331  0.0846
 2761W        W22295   4.731  13.365   3.212  0.0003  0.2806  0.0096
 2762W        W22296  11.767   6.551  13.979 -0.0449  0.0141 -0.0605
 2763W        W22297  14.092  13.872  15.905  0.1557  0.1639  0.2909
 2764W        W22298  12.573  16.229  16.724  0.3261 -0.3944 -0.0353
 2765W        W22299  16.661  12.732   0.463  0.1799 -0.0232  0.1052
 2766W        W22300   8.178   1.153   3.987 -0.1010  0.3964 -0.1631
 2767W        W22301  13.661  10.857  12.890 -0.1528  0.1572  0.1764
 2768W        W22302   5.633  11.191  14.569 -0.0298 -0.1117 -0.2781
 2769W        W22303   0.062  11.755  15.531  0.0267  0.1362  0.1367
 2770W        W22304   8.300   2.620   4.285  0.1193 -0.1212 -0.2046
 2771W        W22305  15.791   9.668   2.742  0.0005 -0.0473 -0.0171
 2772W        W22306   6.603   4.388   2.210 -0.0545  0.1700 -0.3908
 2773W        W22307   2.525   4.940  13.600 -0.1802  0.3538  0.0758
 2774W        W22308   4.606  11.178  14.371  0.0734  0.0012  0.0891
 2775W        W22309  13.054   8.539  14.911  0.1898  0.2039 -0.0570
 2776W        W22310   0.491   8.369  16.420  0.1114 -0.0568 -0.1425
 2777W        W22311   5.925   2.432   3.825  0.1773 -0.0754 -0.0056
 2778W        W22312  10.669   0.207   2.425  0.1448 -0.2514  0.1791
 2779W        W22313  14.600  11.750  12.604 -0.1011 -0.1003 -0.0358
 2780W        W22314   1.724   6.829   2.339  0.0121 -0.3459 -0.2344
 2781W        W22315   0.203   2.017   0.487 -0.2614 -0.1183  0.0564
 2782W        W22316   7.591  11.180   2.983 -0.1255 -0.0922  0.3726
 2783W        W22317   4.304   4.306  15.505  0.1927  0.3426 -0.0437
 2784W        W22318  15.533  16.138   1.862 -0.1281 -0.0178 -0.0106
 2785W        W22319  11.550   9.339  15.755 -0.0082  0.1357 -0.3917
 2786W        W22320   0.047   7.871  14.434  0.0267  0.1793 -0.0180
 2787W        W22321  17.018  16.392   4.742  0.2898 -0.1490  0.4868
 2788W        W22322   1.258  15.331   1.630 -0.2520 -0.2258 -0.1515
 2789W        W22323  16.640  12.983  13.995  0.1499 -0.0243  0.1353
 2790W        W22324  11.463  12.713   0.660  0.2787  0.2224 -0.3996
 2791W        W22325   3.455  16.264  15.731 -0.0651  0.0596  0.0330
 2792W        W22326  17.315   2.713   2.268 -0.1711  0.0885 -0.2236
 2793W        W22327  12.636  11.503  15.000  0.1902 -0.0960 -0.1451
 2794W        W22328   4.045  11.828   0.554 -0.2981 -0.0544  0.1949
 2795W        W22329  12.496   1.394  14.544  0.1798  0.1110  0.1221
 2796W        W22330   5.163  14.851  11.928  0.3172 -0.1914 -0.2406
 2797W        W22331   2.620   4.553  12.722 -0.2934 -0.1291 -0.0050
 2798W        W22332  13.144  10.692  13.780  0.0609  0.1591  0.0059
 2799W        W22333   4.420  16.454  15.659  0.3414  0.1845 -0.0249
 2800W        W22334   9.099  12.607  14.878  0.4046  0.1527  0.0904
 2801W        W22335  14.221   6.860  12.924  0.0905 -0.3260  0.1122
 2802W        W22336  11.789   6.608   1.603  0.0229 -0.0385  0.0524
 2803W        W22337  15.078   3.282  14.167 -0.0789  0.4434 -0.1925
 2804W        W22338   2.685  16.515  12.171 -0.1666  0.1637  0.0607
 2805W        W22339  12.109  10.138  12.813 -0.0061  0.3210 -0.1344
 2806W        W22340  10.428   5.177   2.662 -0.1954  0.2110 -0.4168
 2807W        W22341   3.635   6.279   3.556  0.1103 -0.0735  0.0155
 2808W        W22342   5.810  12.032   5.397 -0.1161 -0.0323 -0.0432
 2809W        W22343  14.457  10.042   2.313 -0.2644  0.0868  0.0169
 2810W        W22344   6.634   3.523   2.465 -0.0201 -0.3064  0.3850
 2811W        W22345  12.899  16.250   4.929 -0.0985  0.0857  0.1615
 2812W        W22346  14.479  12.032  15.788  0.2404  0.3278  0.1032
 2813W        W22347   7.140   6.489  12.959  0.3668 -0.1157 -0.3510
 2814W        W22348   9.300   2.545  16.151  0.4152 -0.1426  0.1561
 2815W        W22349   9.206   2.908  11.293 -0.1263 -0.1492 -0.1563
 2816W        W22350   6.705   7.399   1.921  0.0040 -0.1677 -0.1899
 2817W        W22351   2.064   4.105  14.773  0.1550  0.0716 -0.0883
 2818W        W22352   9.005   5.142  12.457  0.1087 -0.1518 -0.0726
 2819W        W22353   9.206  10.734   4.173 -0.0110 -0.1070 -0.1224
 2820W        W22354   2.536   0.040  15.393  0.1750  0.1826 -0.2482
 2821W        W22355  15.372   4.102  13.088  0.2836  0.0396 -0.2050
 2822W        W22356   3.123   0.555   1.499 -0.0774  0.2773  0.4590
 2823W        W22357   8.690  17.340   0.467  0.2062 -0.0143  0.2996
 2824W        W22358   6.501   7.946   2.007  0.0007 -0.2189 -0.0884
 2825W        W22359  10.626   0.416  15.311 -0.0387 -0.1891  0.0818
 2826W        W22360   7.122   3.323   1.007 -0.2933 -0.4796  0.0115
 2827W        W22361  15.586   7.287  16.491 -0.0685  0.2096  0.1246
 2828W        W22362  16.880   7.749  15.417  0.2410  0.0298  0.0039
 2829W        W22363  14.597  14.768   3.783  0.0289 -0.2075 -0.0559
 2830W        W22364   4.641   7.299   0.520 -0.0159  0.1787 -0.1921
 2831W        W22365  11.525   5.857   1.372  0.0832  0.2252 -0.0482
 2832W        W22366  10.443   2.592   3.720  0.0520  0.3567  0.2471
 2833W        W22367   8.595  14.588   4.838  0.4588  0.1647  0.1743
 2834W        W22368   8.516  10.841   4.618  0.1261  0.0794 -0.1300
 2835W        W22369  10.115  12.115   2.088  0.0770  0.4725  0.3433
 2836W        W22370  16.167  10.090  16.195 -0.2687  0.0443  0.0142
 2837W        W22371  13.502  14.992   0.305  0.3055 -0.1631  0.1520
 2838W        W22372   6.678  15.013  13.596  0.0163  0.0637  0.1454
 2839W        W22373   9.939  17.078  15.041  0.1924 -0.2195  0.0325
 2840W        W22374   2.164  12.254   0.802  0.0300  0.3776 -0.2460
 2841W        W22375   3.496  10.574  14.359 -0.0569 -0.2444 -0.3549
 2842W        W22376  16.216  15.536  15.674  0.1310 -0.0777  0.4732
 2843W        W22377   7.506   2.079   2.530  0.0709  0.0193  0.0886
 2844W        W22378  15.691  13.728   3.905 -0.1554 -0.1704 -0.1195
 2845W        W22379  15.206   5.337  17.008  0.0025 -0.1810 -0.0630
 2846W        W22380   9.590   1.809   1.766 -0.1369  0.3542  0.0191
 2847W        W22381  11.889  12.351  13.749  0.4022  0.1288  0.1381
 2848W        W22382   7.878   9.394   3.104 -0.3525  0.1154 -0.0606
 2849W        W22383  14.881  14.386  13.496  0.2733  0.2400  0.1200
 2850W        W22384  17.157  13.029  13.315  0.2083  0.0423  0.3280
 2851W        W22385  11.445  12.459   1.248 -0.2312  0.0885 -0.0728
 2852W        W22386   2.734   1.175  15.840 -0.2283  0.1498  0.3129
 2853W        W22387  15.399   4.710   4.405 -0.0501 -0.2621 -0.0057
 2854W        W22388  17.013   0.106  16.832  0.0738  0.1663  0.2043
 2855W        W22389   7.955   0.927  12.764 -0.0339 -0.2401  0.3053
 2856W        W22390   7.059   4.660  16.951 -0.3399  0.0398 -0.3357
 2857W        W22391  11.641   7.375  11.966 -0.0400 -0.0469 -0.2790
 2858W        W22392   7.139   4.356  15.108 -0.0621 -0.0202 -0.0678
 2859W        W22393   5.817   5.756   0.600 -0.0989 -0.0325 -0.1608
 2860W        W22394  12.407   9.104  14.480  0.1309  0.4670 -0.3953
 2861W        W22395  12.411  12.467   1.242  0.0370 -0.2812 -0.1440
 2862W        W22396  17.076  13.677   2.115 -0.0762  0.2665 -0.2788
 2863W        W22397   5.831   8.980  14.160 -0.0398 -0.0919 -0.1785
 2864W        W22398  15.125   7.023  14.726  0.0907 -0.3608  0.0105
 2865W        W22399  13.241  10.371   4.492 -0.3024 -0.2636 -0.1495
 2866W        W22400  13.904   7.325  12.914  0.1354 -0.4386 -0.2070
 2867W        W22401   7.281   7.327   4.150 -0.1218  0.0465  0.1488
 2868W        W22402  15.483  10.120  11.875  0.0030  0.2241  0.1748
 2869W        W22403  14.899   4.779   1.021 -0.0577 -0.2787  0.3169
 2870W        W22404   4.784   9.869  12.535  0.0686  0.0438  0.0971
 2871W        W22405   2.781  17.144  15.993 -0.0410 -0.0497  0.1237
 2872W        W22406  16.503  12.455   4.362 -0.1932  0.2169  0.0036
 2873W        W22407   2.492   9.884   2.532  0.3923  0.1179  0.2917
 2874W        W22408   6.946   6.728   3.040  0.0299 -0.1220  0.2203
 2875W        W22409  13.693  17.508   1.977  0.2171  0.1399 -0.2290
 2876W        W22410  16.015  17.503   2.710 -0.1431 -0.0760  0.3897
 2877W        W22411  13.484   7.434  11.459  0.1671 -0.0973 -0.0125
 2878W        W22412  14.327  16.771  16.323 -0.0961  0.2604 -0.0249
 2879W        W22413   8.210   1.461  13.500 -0.0595 -0.3345 -0.0240
 2880W        W22414   6.491   1.825   0.111 -0.0212  0.1490 -0.1073
 2881W        W22415   4.870  14.495  16.591  0.3181  0.1038  0.1612
 2882W        W22416   7.314  11.821   0.919 -0.1597 -0.1664  0.1645
 2883W        W22417  12.202   4.500  13.112 -0.0773  0.3888  0.1369
 2884W        W22418  13.040  10.359  13.070 -0.1271  0.1809  0.3159
 2885W        W22419   9.742  12.743  12.835 -0.3420 -0.1297 -0.1168
 2886W        W22420   2.869   5.177   2.258 -0.0339  0.3485  0.0551
 2887W        W22421  14.178  16.930  11.420  0.2776  0.0890  0.2469
 2888W        W22422  12.386  12.441   3.776  0.1663  0.0814 -0.3430
 2889W        W22423   2.663   7.375  14.789 -0.0566  0.1500  0.0577
 2890W        W22424   2.132   5.234  12.842  0.1669  0.0632 -0.1953
 2891W        W22425  16.368  11.761   2.765  0.0477  0.0629 -0.4196
 2892W        W22426   8.528   0.712   3.745 -0.0341 -0.4239 -0.1328
 2893W        W22427   5.873   9.925   0.927 -0.1119 -0.1883  0.1149
 2894W        W22428   8.432   9.284  16.191 -0.0842 -0.2144 -0.1463
 2895W        W22429  12.004  12.130   3.127 -0.1341  0.3084 -0.0899
 2896W        W22430  14.169  12.519  14.360  0.2814  0.0450 -0.1262
 2897W        W22431   9.973   3.079   2.919 -0.0526  0.0564  0.1604
 2898W        W22432  13.591  15.132   3.988 -0.0014 -0.1657  0.1749
 2899W        W22433   2.335   6.271  13.674 -0.3360 -0.0826 -0.0840
 2900W        W22434   0.699  10.019   2.435  0.0132  0.0284 -0.0298
 2901W        W22435   2.802  14.022  14.132  0.1510 -0.0364  0.2748
 2902W        W22436   1.459   6.512  14.703  0.0971  0.1962  0.2703
 2903W        W22437   4.123  15.281  16.368  0.1326  0.1966 -0.1254
 2904W        W22438   2.908  14.615  16.353  0.0731  0.0567  0.1512
 2905W        W22439  13.451   0.366   0.615  0.0824 -0.3549  0.0719
 2906W        W22440   2.931   6.045   1.933  0.1658 -0.0991  0.1778
 2907W        W22441   3.049   2.082   4.889  0.0694  0.2298  0.1050
 2908W        W22442   8.583   2.913   0.237 -0.1046 -0.0130 -0.0099
 2909W        W22443   5.903   7.876   0.191 -0.1527 -0.0429 -0.0669
 2910W        W22444  11.853   9.444  13.973 -0.3416  0.0955 -0.0531
 2911W        W22445   0.987   0.604  15.802  0.0065  0.1724  0.1783
 2912W        W22446   6.401   7.054   4.625  0.1012  0.1384  0.3681
 2913W        W22447   9.537  13.567  15.276  0.1474  0.0701  0.0476
 2914W        W22448   8.369   9.658  15.846 -0.1116  0.4110 -0.2226
 2915W        W22449  11.707   4.373   3.293 -0.4143 -0.1900  0.0409
 2916W        W22450  11.318   4.044   0.732  0.3538 -0.1513 -0.1560
 2917W        W22451   9.220   6.268  14.218 -0.0813 -0.0962 -0.3196
 2918W        W22452  16.066   6.706  12.206  0.1043 -0.1890 -0.0455
 2919W        W22453  14.313  14.355   2.867 -0.2485 -0.3883  0.3286
 2920W        W22454   1.327   7.474  12.556 -0.2207 -0.1793 -0.2663
 2921W        W22455   1.458   7.131  16.478  0.0792 -0.1300  0.0764
 2922W        W22456   1.446   2.529  16.639 -0.2339 -0.0012  0.2999
 2923W        W22457  11.898   6.134   1.544  0.1291  0.1600  0.1807
 2924W        W22458  14.313  10.810   3.018 -0.2109 -0.1396 -0.1827
 2925W        W22459   8.755   4.515   0.243  0.2716 -0.1286 -0.0088
 2926W        W22460  17.448   0.440  16.165  0.1902 -0.1882  0.0582
 2927W        W22461   6.045  12.448   1.015  0.0259  0.1737  0.1554
 2928W        W22462   5.043   5.254   3.402  0.0221  0.2631  0.0227
 2929W        W22463  14.434   5.838   0.304  0.1302  0.1221  0.1156
 2930W        W22464   4.902   8.610  12.430 -0.2250 -0.0517  0.0910
 2931W        W22465   5.310  11.545  15.790  0.3360 -0.2686 -0.1644
 2932W        W22466   5.934  11.719  16.252 -0.0930 -0.2433  0.0625
 2933W        W22467  15.071   0.650  14.935  0.3112 -0.0743  0.2288
 2934W        W22468   3.953  14.857  15.714  0.2465  0.1925  0.1644
 2935W        W22469   6.909   3.163   0.169 -0.0524  0.1386  0.0754
 2936W        W22470   5.244  16.085  12.256 -0.0302 -0.0681 -0.0763
 2937W        W22471  13.598   2.234   2.141  0.0694 -0.0850 -0.0438
 2938W        W22472   3.678   7.345  15.116  0.3525 -0.0508 -0.3524
 2939W        W22473   9.130  17.367  16.143 -0.0394 -0.0263 -0.0347
 2940W        W22474  15.240  13.996   3.828  0.0114  0.1757 -0.0227
 2941W        W22475   7.816  15.163   0.242  0.1185 -0.0558 -0.2267
 2942W        W22476  13.153  10.604   0.816  0.1475  0.0477  0.1244
 2943W        W22477  13.411   4.200   3.195  0.1882 -0.3227  0.0628
 2944W        W22478   3.073   2.815  13.798 -0.0247 -0.2708  0.0256
 2945W        W22479   8.059   3.769  14.530  0.3001  0.0356  0.0766
 2946W        W22480   0.484   5.225  12.645  0.1960  0.0620  0.0400
 2947W        W22481   6.156  15.681   2.623  0.2421 -0.0786  0.0876
 2948W        W22482   9.997  14.913  13.500  0.0042 -0.0421  0.2317
 2949W        W22483  17.419   8.512   0.726 -0.0182  0.1901  0.0864
 2950W        W22484   2.098  15.643   0.156  0.1485  0.2229 -0.0281
 2951W        W22485   5.834   5.630  15.608 -0.1303 -0.0380  0.0093
 2952W        W22486   8.842  17.143  14.535 -0.0870  0.0658 -0.2257
 2953W        W22487  13.853   1.750  16.145 -0.1545  0.1614 -0.2357
 2954W        W22488   8.350  15.884  14.633 -0.0677  0.1243 -0.0463
 2955W        W22489   3.886  13.693   4.890 -0.3215 -0.2089  0.0804
 2956W        W22490   3.072   2.120   2.000 -0.0228  0.0644 -0.0916
 2957W        W22491   8.276   7.423  13.187  0.0234  0.1465 -0.0661
 2958W        W22492  12.081  10.965  16.107  0.0236  0.0747 -0.3065
 2959W        W22493   5.849   9.982   2.985  0.3444 -0.0563 -0.1321
 2960W        W22494  15.082   1.078   0.723 -0.1193  0.0463  0.0727
 2961W        W22495   5.695   2.314  16.329 -0.2408  0.0578  0.0571
 2962W        W22496   6.164   1.666   1.425  0.0576 -0.0110 -0.2639
 2963W        W22497   1.755  10.753   0.680  0.1848 -0.3801  0.3086
 2964W        W22498  14.173   9.664   1.333  0.0078  0.1084  0.2828
 2965W        W22499   7.983   0.294   4.763  0.0540 -0.0331  0.1748
 2966W        W22500   2.444  11.984  13.201  0.1664  0.3798 -0.2137
 2967W        W22501   7.125   0.576   0.268 -0.2409 -0.1320 -0.0863
 2968W        W22502  15.497   7.564   2.126  0.4154  0.0626 -0.2650
 2969W        W22503   9.978   3.911   4.436  0.1637 -0.2170 -0.1194
 2970W        W22504   0.986  16.068  17.038  0.5452 -0.0234 -0.0966
 2971W        W22505   0.426   0.869  16.549 -0.0668  0.2692  0.3280
 2972W        W22506   9.017   5.023  16.522  0.0383  0.1938 -0.0175
 2973W        W22507  12.952  13.547  13.181 -0.0673  0.2573  0.0225
 2974W        W22508   9.124   8.664   3.173  0.0468  0.1918 -0.0401
 2975W        W22509   4.076  14.664   2.951 -0.1363 -0.1626  0.0336
 2976W        W22510  14.056   2.460   3.422  0.0195  0.1579 -0.1478
 2977W        W22511  17.542   4.520   0.311  0.1852 -0.2467 -0.0849
 2978W        W22512   3.172  17.305  14.820 -0.0693 -0.1763 -0.2554
 2979W        W22513  11.665  15.042  16.080  0.1533  0.3557 -0.2386
 2980W        W22514  17.432   8.869   3.393 -0.0541 -0.3415  0.0246
 2981W        W22515   0.828   4.402   0.837 -0.1032 -0.2845 -0.0675
 2982W        W22516  11.147  15.254  16.203  0.0536 -0.2273 -0.1009
 2983W        W22517  15.522  13.651  16.506  0.0431 -0.2642  0.0300
 2984W        W22518  10.356   8.872  15.012  0.2753  0.1954 -0.0103
 2985W        W22519  14.966   1.915   1.911 -0.0157  0.0556 -0.0409
 2986W        W22520  13.261   8.724   3.306  0.2821 -0.0064 -0.1092
 2987W        W22521  15.426   7.456   4.240  0.1138 -0.1650 -0.1015
 2988W        W22522  17.129  12.119  12.476 -0.1584  0.0348 -0.1915
 2989W        W22523   7.038   1.237   2.390  0.0125 -0.0192  0.0496
 2990W        W22524  17.502  17.463   1.860  0.1113 -0.0395  0.1850
 2991W        W22525   3.089   7.848  12.754 -0.1918 -0.3419  0.2069
 2992W        W22526   0.416  12.029  11.941 -0.1260  0.0075 -0.2084
 2993W        W22527   1.092   8.721   4.084 -0.3210 -0.0884  0.0005
 2994W        W22528  14.998   0.806   0.308 -0.2175 -0.3146 -0.1192
 2995W        W22529   3.604   2.134  15.663 -0.1195 -0.1312  0.1239
 2996W        W22530   4.455  13.855  12.179 -0.2042  0.0069 -0.0346
 2997W        W22531   6.491  17.456  12.765 -0.0061 -0.0024  0.1558
 2998W        W22532  15.301  17.084   4.272  0.2350  0.2074  0.0715
 2999W        W22533   7.989   0.721   3.754  0.1092  0.0513 -0.3112
 3000W        W22534  10.058   1.524  13.353  0.1354  0.2195  0.3528
 3001W        W22535   2.211  14.313   3.429  0.2050 -0.2139 -0.0256
 3002W        W22536  12.168  13.030  13.291 -0.2586  0.4367  0.0021
 3003W        W22537   8.571  12.051  12.464  0.0961  0.1783 -0.0978
 3004W        W22538  10.606   5.737  16.422  0.1517  0.0280 -0.1190
 3005W        W22539   0.557   0.356  16.717  0.2397  0.0983 -0.0707
 3006W        W22540   6.989   9.427   3.153  0.1432 -0.1899 -0.0838
 3007W        W22541   0.971  14.709   4.719 -0.0312  0.2187 -0.3825
 3008W        W22542  11.569   2.547  15.747  0.2054 -0.0130  0.0179
 3009W        W22543  16.634   9.886   0.682  0.2979  0.1397 -0.0409
 3010W        W22544   2.081   0.283  14.461  0.2042  0.1748 -0.2637
 3011W        W22545  13.809   7.052  16.702 -0.0443  0.1456 -0.2279
 3012W        W22546   4.103   6.791   1.738 -0.2884  0.1315 -0.3141
 3013W        W22547  15.695  13.336  13.959 -0.1768  0.2851 -0.0816
 3014W        W22548  10.766  14.747   1.306 -0.1828 -0.0236  0.2111
 3015W        W22549  11.492  11.264  16.735 -0.0439 -0.2232 -0.1887
 3016W        W22550   4.882   6.349  13.855  0.2302  0.2230  0.3456
 3017W        W22551  10.396  10.439   0.106 -0.1494 -0.1271  0.1506
 3018W        W22552   3.700   9.926  15.958 -0.2162  0.0417  0.5190
 3019W        W22553   9.256  16.371   1.029 -0.0356  0.2962 -0.2153
 3020W        W22554   4.576   2.807  14.003  0.0812  0.0450 -0.0504
 3021W        W22555  13.481  15.086   4.482 -0.0445  0.1147 -0.2409
 3022W        W22556   9.151  15.275   2.854 -0.0763 -0.1358 -0.1291
 3023W        W22557   5.819   6.024   4.286  0.2605  0.0948 -0.0293
 3024W        W22558  16.775   1.967   4.427 -0.2006 -0.1280  0.3077
 3025W        W22559  16.577   4.593   3.916 -0.2153 -0.1987 -0.2076
 3026W        W22560  11.229  15.820   0.748 -0.2141  0.1323 -0.0391
 3027W        W22561  10.178   5.962  14.360 -0.0652 -0.2060  0.0009
 3028W        W22562  10.874   7.474  13.746 -0.0704  0.0581 -0.0510
 3029W        W22563   3.346   2.441  13.525  0.0843  0.0733 -0.2276
 3030W        W22564  10.885   4.577  12.549 -0.0066  0.2322  0.1069
 3031W        W22565  16.588  16.677   0.319  0.2860 -0.2580 -0.0113
 3032W        W22566  10.348   7.840  11.883  0.0026  0.0240 -0.0451
 3033W        W22567  15.897  17.612   1.804 -0.0025  0.2366  0.3055
 3034W        W22568  17.181  10.228   1.377 -0.0680  0.0925  0.3866
 3035W        W22569   5.231  17.369   3.053  0.0376  0.2936  0.4023
 3036W        W22570  15.630   2.005   1.745 -0.2070  0.1924  0.2395
 3037W        W22571  11.826  11.050  13.054  0.0122  0.1107  0.3113
 3038W        W22572  14.521   5.824   3.095 -0.4212 -0.0659 -0.1997
 3039W        W22573   7.648   5.994   2.222  0.2691  0.1585  0.1883
 3040W        W22574  10.164  10.500  12.816  0.0118 -0.2290  0.0362
 3041W        W22575   8.588  13.610  13.842 -0.2829 -0.1740 -0.3045
 3042W        W22576   4.906  16.135   3.946  0.1985  0.2406  0.3505
 3043W        W22577   2.482   7.818  15.205  0.3111  0.1897  0.1513
 3044W        W22578  12.447  16.133  13.357 -0.0428  0.0556 -0.1655
 3045W        W22579   1.064   1.888  12.389 -0.3928  0.1616  0.1351
 3046W        W22580   2.462   5.017   3.969 -0.1598 -0.1525 -0.2868
 3047W        W22581   0.027   9.898   2.396 -0.1078  0.0992  0.2213
 3048W        W22582  12.879   8.895  14.129 -0.2435 -0.0421 -0.0229
 3049W        W22583   7.008   9.077  13.364  0.0457 -0.2894  0.0217
 3050W        W22584  11.807   0.904  14.695 -0.0767 -0.1758 -0.0315
 3051W        W22585  15.294   6.756   2.963  0.0245  0.4470 -0.4441
 3052W        W22586   2.298  16.140  13.302 -0.1346  0.1724 -0.1676
 3053W        W22587  12.454   7.893  12.180 -0.3964 -0.0354  0.1245
 3054W        W22588  16.707  17.009   2.949 -0.0976  0.2481 -0.0788
 3055W        W22589   1.685   3.790   5.249  0.3257 -0.0996 -0.1633
 3056W        W22590  17.229   3.404   2.937  0.0838 -0.1018  0.0387
 3057W        W22591  11.712   1.642   3.383 -0.0469 -0.3499  0.4297
 3058W        W22592  17.218  12.420   3.311  0.1204  0.1569  0.0167
 3059W        W22593   3.197  12.167   1.396 -0.1713  0.0354  0.0850
 3060W        W22594   1.862  11.335  13.999 -0.3789  0.2589 -0.0216
 3061W        W22595   5.975   0.220   2.958  0.4704  0.1499 -0.3979
 3062W        W22596  15.355  16.523  16.177 -0.1041 -0.2039 -0.1696
 3063W        W22597  17.054   1.210   2.822 -0.2689 -0.2608  0.1957
 3064W        W22598   9.738   9.881   4.294  0.0657 -0.0340 -0.1301
 3065W        W22599  16.406  11.160   1.836  0.6199 -0.0158 -0.1437
 3066W        W22600   7.520   4.125   2.913  0.2258 -0.1312 -0.0795
 3067W        W22601  16.565   4.464   1.974 -0.0758 -0.1385 -0.1808
 3068W        W22602   3.619   8.528   4.848 -0.0141 -0.1751  0.0746
 3069W        W22603   1.854   4.030   0.221  0.1221  0.3337  0.0158
 3070W        W22604  14.974   6.495   2.073  0.0943  0.4184  0.1042
 3071W        W22605   5.632   8.994  15.228  0.0705  0.2612  0.1638
 3072W        W22606  11.099   3.601  12.167  0.0297 -0.1342  0.0211
 3073W        W22607  12.947  15.408   5.377  0.1316  0.0168 -0.0921
 3074W        W22608  16.905   8.111   4.304  0.0649 -0.0904 -0.2438
 3075W        W22609  14.427   1.859  14.258  0.0937  0.0485 -0.0300
 3076W        W22610   1.796   3.884  13.345  0.3667  0.3312  0.1377
 3077W        W22611  16.120  14.294   5.331  0.0446 -0.1064  0.0395
 3078W        W22612  10.655  15.907   4.486 -0.1528 -0.1478  0.1105
 3079W        W22613  16.050   1.930  12.637 -0.0643 -0.0230  0.0683
 3080W        W22614   9.003   5.442   0.910  0.0643 -0.0156 -0.0312
 3081W        W22615   8.420  16.987   0.279 -0.0177 -0.2227  0.1608
 3082W        W22616   4.135  15.008   4.451 -0.0724 -0.0685  0.0135
 3083W        W22617  12.406   0.262   4.347 -0.0279 -0.3088 -0.3049
 3084W        W22618   2.806  13.070  13.225  0.0242  0.6477  0.1263
 3085W        W22619   9.646   8.191  16.356  0.3867 -0.1714  0.0511
 3086W        W22620  14.952  14.051   4.249 -0.1470 -0.0892  0.0799
 3087W        W22621  15.566   0.563  16.576 -0.2711 -0.1230  0.0681
 3088W        W22622   5.480   1.358  13.770  0.1645 -0.1878  0.0084
 3089W        W22623   2.744   5.668   2.702  0.0570  0.1124 -0.4010
 3090W        W22624  14.411   8.954   3.851  0.0548  0.1879 -0.2087
 3091W        W22625   6.917   5.427  13.103 -0.2682 -0.1820 -0.1125
 3092W        W22626   5.305  13.114   3.935 -0.1135  0.2141 -0.0640
 3093W        W22627   7.117   4.164  12.957 -0.2044 -0.2734 -0.2488
 3094W        W22628   3.969  15.877   4.497 -0.0193  0.0777 -0.0461
 3095W        W22629  10.177  10.839  12.017 -0.3234 -0.0407  0.0092
 3096W        W22630   6.416  17.482   0.363 -0.2029  0.1580 -0.1353
 3097W        W22631   1.080   0.169   2.074  0.1132 -0.0095  0.0730
 3098W        W22632  13.458  11.442  14.352  0.0607  0.0276 -0.1334
 3099W        W22633  15.257   4.013   0.702  0.0798 -0.0674 -0.0976
 3100W        W22634   2.274   4.097   4.087 -0.2052 -0.0299  0.1184
 3101W        W22635   7.907   0.483   1.796  0.2637  0.0823 -0.0839
 3102W        W22636   3.536  10.525   1.830  0.1807 -0.2353 -0.1552
 3103W        W22637  10.887  16.469   1.947  0.0776 -0.0606  0.0629
 3104W        W22638   0.741  15.923  12.474  0.0788  0.0648 -0.3567
 3105W        W22639  14.724  16.837   0.006 -0.0353 -0.0685  0.0739
 3106W        W22640  13.656   7.020   3.405  0.0024  0.1196  0.1879
 3107W        W22641   0.942   6.284   2.346 -0.2058 -0.1979  0.1348
 3108W        W22642   3.420  11.904   4.064 -0.2727  0.1206  0.0961
 3109W        W22643   4.540   6.599  16.616 -0.0225 -0.1693  0.1226
 3110W        W22644   3.764   3.316   1.532 -0.0742 -0.1762  0.2018
 3111W        W22645   9.941   7.097   4.328  0.0368 -0.1756  0.4623
 3112W        W22646   7.524  14.506  10.800 -0.1637  0.1690 -0.0746
 3113W        W22647  16.182   8.620   3.983 -0.0135 -0.1016 -0.2734
 3114W        W22648   1.490  13.429   4.634 -0.1903 -0.0077 -0.0332
 3115W        W22649  16.960  10.486   1.855 -0.2210  0.0654 -0.0595
 3116W        W22650  17.027  11.746  16.879 -0.3628 -0.0615 -0.0775
 3117W        W22651   6.865  13.285  16.090  0.0146  0.0470 -0.0842
 3118W        W22652  15.362  13.286   2.289  0.0217  0.2410  0.1071
 3119W        W22653   5.848   4.093   3.454  0.3766 -0.1592 -0.0990
 3120W        W22654   3.467  16.610   0.471 -0.1994 -0.1821  0.0481
 3121W        W22655  13.820  16.353  13.253 -0.1166  0.0840 -0.1970
 3122W        W22656  10.892  10.854  14.459  0.1046 -0.2615  0.1016
 3123W        W22657  15.277   0.080   0.883 -0.1565  0.0381  0.1173
 3124W        W22658   2.775  15.625   4.684 -0.1746  0.0324  0.2801
 3125W        W22659  15.091   2.633  13.300 -0.2685 -0.0343  0.2871
 3126W        W22660   0.371   8.780   0.069  0.1222 -0.1389 -0.0912
 3127W        W22661   6.949  15.726  16.978  0.1575 -0.2148  0.1771
 3128W        W22662  17.245   2.965   5.329  0.1594 -0.2050 -0.1901
 3129W        W22663   8.226  10.169  14.129 -0.2982  0.0339  0.1321
 3130W        W22664  13.950   8.710  15.427 -0.0209 -0.2149 -0.0944
 3131W        W22665  15.906   4.080   2.999  0.1263 -0.3189  0.3309
 3132W        W22666   4.244  16.059   0.179 -0.3732 -0.1165  0.2155
 3133W        W22667   0.189  15.230  16.037  0.0559  0.3101 -0.0607
 3134W        W22668   8.013   4.817  14.387  0.0210 -0.4006 -0.0167
 3135W        W22669   8.476   5.829  13.181  0.1060 -0.0693 -0.1019
 3136W        W22670   6.555  14.591  13.835 -0.0220  0.2513 -0.0415
 3137W        W22671   2.680   3.788   0.051 -0.1324 -0.0906  0.1701
 3138W        W22672  10.942   3.009  12.740 -0.0312 -0.2497 -0.2994
 3139W        W22673   2.398   9.350  16.229  0.0464 -0.0813 -0.1560
 3140W        W22674  10.332   5.966  16.799 -0.1733 -0.0148  0.2141
 3141W        W22675   6.763   5.901  14.522 -0.2913  0.0475  0.3814
 3142W        W22676   1.476  12.548  15.527  0.2010 -0.0786  0.1746
 3143W        W22677   4.380   0.266  13.609 -0.2040 -0.1566  0.0473
 3144W        W22678   7.955  12.204   2.644  0.3703 -0.0746  0.1342
 3145W        W22679  11.076   9.434  12.516  0.1649  0.0191 -0.2197
 3146W        W22680   8.813   5.567   3.853 -0.2412  0.1187  0.0876
 3147W        W22681  16.945   7.182  12.570  0.0386 -0.0843  0.1213
 3148W        W22682   5.436  10.484   4.578 -0.1025  0.1410 -0.2784
 3149W        W22683   1.625  13.057   4.018 -0.2239  0.0634  0.2849
 3150W        W22684  13.887   4.262  13.963  0.2926  0.0211  0.1999
 3151W        W22685  14.069   1.349   2.233  0.0196 -0.3865  0.1176
 3152W        W22686   0.893  10.982   2.246  0.0799 -0.0658 -0.1561
 3153W        W22687  16.339  12.083   3.163 -0.2301 -0.0946  0.1794
 3154W        W22688  15.245   4.431  16.924  0.3345 -0.0865 -0.1094
 3155W        W22689   4.006   3.690  13.366  0.0686  0.0368  0.3141
 3156W        W22690  10.270  15.365  13.665 -0.0141 -0.0420 -0.0276
 3157W        W22691  14.538  14.362   3.408  0.0289  0.1586  0.2388
 3158W        W22692   1.615   3.620   0.356 -0.0975  0.2207 -0.1278
 3159W        W22693   3.772   4.868  16.138 -0.2134 -0.0002 -0.1196
 3160W        W22694  10.423  16.549   2.539 -0.0682  0.0701  0.2043
 3161W        W22695   0.710   0.024  12.565 -0.2944  0.0833  0.1017
 3162W        W22696   9.326   0.233   2.678 -0.1867 -0.0869 -0.2065
 3163W        W22697  10.368   9.698  15.174 -0.1939 -0.0958  0.4038
 3164W        W22698  14.739   4.046   3.428 -0.0805 -0.5027  0.2295
 3165W        W22699  15.543   8.084   2.010  0.0681 -0.2533  0.0574
 3166W        W22700   3.541  16.660   2.675 -0.1533  0.1162  0.0166
 3167W        W22701   2.328  13.740  13.936 -0.1006 -0.1944 -0.1716
 3168W        W22702   8.654   9.213   0.383  0.0495 -0.2602 -0.0289
 3169W        W22703   4.758  16.941   5.832  0.1851 -0.1349 -0.0853
 3170W        W22704   3.043  10.233   2.544 -0.1540 -0.1630 -0.1602
 3171W        W22705   6.369  17.065   1.358  0.0374 -0.2418 -0.0253
 3172W        W22706   0.834  13.470   3.044  0.3451 -0.2484 -0.2290
 3173W        W22707  15.708  10.877   3.417  0.0911 -0.2069 -0.0708
 3174W        W22708   4.057   1.903  14.876  0.0046 -0.0088 -0.1301
 3175W        W22709  12.793   9.136   1.406 -0.0595 -0.0577 -0.1985
 3176W        W22710  14.486   5.882  12.267  0.1029 -0.1659  0.1837
 3177W        W22711  11.082  16.631  15.360  0.5253 -0.2131  0.1321
 3178W        W22712  17.320  16.400   0.835  0.2511  0.0462 -0.0504
 3179W        W22713  14.425  11.758   0.530  0.1694 -0.1556 -0.1370
 3180W        W22714   1.821  11.597   2.387  0.0237  0.0315  0.1254
 3181W        W22715  15.080  12.525   0.751  0.2768 -0.1106  0.1367
 3182W        W22716   1.944   3.773   4.375 -0.1389 -0.1267 -0.1693
 3183W        W22717  15.736  10.902  17.029 -0.0552 -0.0975  0.0822
 3184W        W22718  13.539   0.113  15.693 -0.0449 -0.0536 -0.3635
 3185W        W22719   5.228  15.763  13.339 -0.1448  0.3810  0.1056
 3186W        W22720  14.555   1.165   0.633 -0.0127 -0.2772  0.0916
 3187W        W22721  13.803  16.610   3.755 -0.3038  0.0569  0.0022
 3188W        W22722   4.231   8.577  13.213 -0.2303 -0.0183  0.0069
 3189W        W22723  10.473   4.716   3.552  0.0705  0.0659 -0.1450
 3190W        W22724   1.671   1.356  14.217 -0.1861  0.0516  0.5502
 3191W        W22725   5.602   6.710  16.469 -0.0120 -0.4527  0.3062
 3192W        W22726  12.399  16.291  14.561 -0.3377  0.5372  0.0114
 3193W        W22727  16.927   8.578   3.693 -0.0954 -0.0901  0.0725
 3194W        W22728  16.377  15.980   1.893 -0.2042  0.3669 -0.1480
 3195W        W22729   7.642   8.613  12.144  0.1605 -0.2384 -0.0453
 3196W        W22730  11.605   2.137  15.404  0.3890  0.4038 -0.2175
 3197W        W22731   4.812   9.457  14.742  0.3156 -0.0396  0.4393
 3198W        W22732   3.774  14.314   0.194  0.1055 -0.4112  0.0612
 3199W        W22733   2.406   6.059   2.124 -0.2457  0.1378 -0.1598
 3200W        W22734   8.079   5.012   1.772 -0.0002 -0.2813  0.2980
 3201W        W22735   9.513   4.194  15.124 -0.0716  0.0425 -0.0016
 3202W        W22736   2.483   2.266  14.045  0.2529 -0.2921 -0.0449
 3203W        W22737   1.325  14.696   2.265  0.2853  0.0372  0.1045
 3204W        W22738  12.209  14.030   5.179  0.1508  0.1673  0.2547
 3205W        W22739   8.621   2.088  15.162 -0.0814 -0.3771  0.1743
 3206W        W22740   0.613   4.824   0.358 -0.2720  0.1728  0.5341
 3207W        W22741   7.856  12.981   2.065  0.0828  0.4650 -0.1383
 3208W        W22742   2.264   2.235   1.753  0.1390 -0.0339 -0.0301
 3209W        W22743   0.916  15.634  15.839 -0.0254  0.0347  0.1024
 3210W        W22744  10.443  10.798  13.127  0.1281  0.0959 -0.0678
 3211W        W22745  14.782   1.654   1.492  0.0320  0.3907 -0.0182
 3212W        W22746   9.149   6.490   4.055 -0.0846 -0.1676  0.2463
 3213W        W22747  15.809   5.007   2.749  0.1048 -0.0323  0.0045
 3214W        W22748  16.422  15.440  12.246  0.0650  0.0068 -0.3734
 3215W        W22749  13.972  17.599  15.824 -0.1699 -0.1615  0.1259
 3216W        W22750  12.157  10.148  13.818 -0.0887  0.0255  0.0452
 3217W        W22751  14.919   2.770  12.780  0.3005 -0.1707 -0.2420
 3218W        W22752   4.836   4.421   1.437 -0.0180 -0.0793 -0.0204
 3219W        W22753   0.134   5.646   3.094 -0.0242 -0.1984 -0.0572
 3220W        W22754   0.396  16.583  15.770 -0.0654  0.0831 -0.1132
 3221W        W22755  10.142   0.453   3.286 -0.1024 -0.0950 -0.1746
 3222W        W22756  13.935  17.327   0.696  0.0006  0.0392 -0.1235
 3223W        W22757  14.555   6.096   2.097  0.1753  0.2537 -0.1851
 3224W        W22758   0.736   9.268   2.019 -0.1308 -0.0162 -0.0044
 3225W        W22759   1.941   2.522   5.530 -0.0426 -0.1332  0.2368
 3226W        W22760   0.724   1.986  13.468 -0.1839 -0.0319  0.1941
 3227W        W22761   8.985   7.951   1.981 -0.1350 -0.0064  0.0175
 3228W        W22762  17.347   6.946  14.862  0.0919 -0.0223  0.4601
 3229W        W22763  17.460  14.323   0.044 -0.1620 -0.1416  0.0453
 3230W        W22764   3.224   2.162   2.474  0.0837 -0.0564 -0.2353
 3231W        W22765  11.230   3.159  14.823 -0.1638  0.1464  0.2344
 3232W        W22766   7.973  16.651   4.616  0.0208  0.1983 -0.0320
 3233W        W22767  14.072   3.196  16.552 -0.0653 -0.1786  0.0789
 3234W        W22768  12.744   7.169   3.520 -0.1796 -0.0528 -0.4275
 3235W        W22769   1.313   2.493   0.359 -0.2067  0.0306 -0.1938
 3236W        W22770   4.020   2.031  15.411  0.1855 -0.0334  0.0447
 3237W        W22771   6.127  16.767  16.757 -0.0718 -0.0918  0.1872
 3238W        W22772   3.287   7.622  12.382  0.2470 -0.1373  0.0296
 3239W        W22773   9.856   5.291   2.999 -0.2509 -0.4225  0.0150
 3240W        W22774   8.091   1.435  16.212  0.0587  0.2712 -0.1831
 3241W        W22775   8.665   8.994  13.609 -0.3082  0.2935  0.0077
 3242W        W22776   1.917   0.584   2.521 -0.2658  0.0895  0.3022
 3243W        W22777  15.520   6.730  14.931 -0.1325 -0.1177  0.0486
 3244W        W22778   9.503  16.687   3.461  0.2212 -0.0715  0.2816
 3245W        W22779  13.070  14.678  14.545  0.1474  0.0597  0.4119
 3246W        W22780   0.496   1.687   2.259  0.1611  0.2018 -0.0341
 3247W        W22781  16.411  16.417   2.104  0.2788  0.1589 -0.0778
 3248W        W22782  12.635   5.912  14.267  0.0370 -0.3662 -0.1233
 3249W        W22783   0.260   9.976   0.788  0.2172 -0.1190 -0.0669
 3250W        W22784   0.087   6.756  12.059 -0.1821  0.1631 -0.1106
 3251W        W22785  12.912   7.933   0.565 -0.0473 -0.1487  0.1797
 3252W        W22786  11.439   5.863  14.655 -0.0434  0.2514  0.2476
 3253W        W22787   1.379  11.223  13.581 -0.0934 -0.0607 -0.2849
 3254W        W22788   3.087  15.657   3.157 -0.3395  0.0209  0.0624
 3255W        W22789  10.067   4.864   0.605  0.0969 -0.0167 -0.2850
 3256W        W22790   0.471   9.774   2.069  0.2655 -0.2773 -0.0794
 3257W        W22791   3.459   3.432   4.210  0.1261 -0.3299  0.0475
 3258W        W22792  12.684   8.176  12.694 -0.2995 -0.1134  0.0226
 3259W        W22793   2.208  11.989  15.657 -0.1898 -0.0407 -0.0457
 3260W        W22794   8.564   6.296   3.356 -0.0892  0.0392  0.3502
 3261W        W22795  10.864   6.318  17.011  0.3284 -0.0831  0.0184
 3262W        W22796   2.149   5.427  13.301  0.0506 -0.2458 -0.2054
 3263W        W22797   1.391   3.205   0.658 -0.0363 -0.0358  0.1161
 3264W        W22798   7.130  16.640  15.758  0.0548  0.2359 -0.0043
 3265W        W22799   5.153  15.648   3.780 -0.2657  0.3977  0.0883
 3266W        W22800  10.423   7.191   4.314 -0.1426 -0.0827  0.0034
 3267W        W22801   7.888  13.184  14.975 -0.1682 -0.2495  0.0279
 3268W        W22802  11.751  12.178  14.636 -0.1705 -0.0656 -0.0321
 3269W        W22803   6.438  14.350   1.815  0.2114  0.1352  0.0561
 3270W        W22804   1.607   4.389   4.941 -0.1334 -0.1681 -0.1765
 3271W        W22805  14.609  13.559  15.076 -0.3241 -0.1394  0.2844
 3272W        W22806   1.806   9.910  13.742 -0.2759  0.5996  0.1466
 3273W        W22807   2.588  12.040   0.631  0.1448  0.0538 -0.2074
 3274W        W22808   0.126  13.562  13.379  0.0348  0.1309  0.0854
 3275W        W22809   9.291   6.658   0.816 -0.1417  0.1747 -0.0458
 3276W        W22810   7.437   3.327  13.460 -0.1003 -0.0440 -0.0133
 3277W        W22811   9.128   3.942   1.128 -0.1067 -0.0255  0.0104
 3278W        W22812  10.265   0.982   0.638 -0.0932 -0.1973 -0.0867
 3279W        W22813   5.644   1.682   0.722  0.1637 -0.2831 -0.0598
 3280W        W22814   3.076  11.528  13.640  0.0306 -0.0006 -0.2747
 3281W        W22815  15.479  14.673   3.214 -0.2030  0.1954 -0.2435
 3282W        W22816   0.050   6.225   1.388  0.0830 -0.3808 -0.2975
 3283W        W22817   0.921  15.054  16.974 -0.1778 -0.1250  0.1513
 3284W        W22818  17.338   1.421  14.415  0.0539  0.0363 -0.0804
 3285W        W22819  10.639   1.294   2.332 -0.0142 -0.0047  0.3855
 3286W        W22820  14.264   0.882  14.494 -0.0010  0.0195 -0.3913
 3287W        W22821   4.601   4.557  15.062 -0.2184 -0.0501  0.0413
 3288W        W22822   1.623   7.835   4.731 -0.2414  0.1190  0.0693
 3289W        W22823   6.942   5.798   3.022 -0.0328  0.1355  0.0623
 3290W        W22824   4.690  17.243   0.007 -0.1173 -0.2274  0.0744
 3291W        W22825  12.751   1.765  13.652 -0.0286 -0.1189 -0.2121
 3292W        W22826   0.963  14.933  12.803  0.3481 -0.2209  0.2952
 3293W        W22827   1.316  13.616  12.925  0.2439  0.2336  0.0156
 3294W        W22828   8.630   6.438  15.329  0.1807  0.0479  0.4467
 3295W        W22829  15.319  13.682  16.949 -0.1309 -0.1819  0.0282
 3296W        W22830   3.491   6.825   0.457  0.1059 -0.0864 -0.2870
 3297W        W22831  17.493   5.262  14.912 -0.0204 -0.3834  0.0916
 3298W        W22832   7.139  13.897   0.010 -0.2047  0.1493  0.1599
 3299W        W22833  12.575   9.923  16.785 -0.1053 -0.0667 -0.4726
 3300W        W22834   3.532   1.276   1.810  0.2547 -0.1675  0.1983
 3301W        W22835  12.974  15.995   2.434  0.0012  0.0681 -0.0504
 3302W        W22836  10.404   2.845   2.180  0.0735 -0.2734  0.0459
 3303W        W22837   8.402   6.374   2.339 -0.0450 -0.0471 -0.0628
 3304W        W22838  10.388  14.381  14.202 -0.0470 -0.0308  0.3652
 3305W        W22839  17.098   0.948   0.960  0.0201  0.1892  0.1933
 3306W        W22840  11.589   6.240  13.636 -0.3033 -0.3594 -0.0849
 3307W        W22841   3.567   2.661  12.727 -0.0318  0.1157  0.2553
 3308W        W22842   5.658   6.538  15.956 -0.0293  0.2826  0.0624
 3309W        W22843  12.533   5.604   3.656 -0.0935 -0.1490  0.0283
 3310W        W22844  10.856  16.278  13.228 -0.1124 -0.1699  0.2172
 3311W        W22845  10.828   9.777  15.699 -0.0845 -0.3455  0.1019
 3312W        W22846  11.078   3.642   2.230 -0.0436 -0.1007  0.1337
 3313W        W22847   6.519  13.569  12.746 -0.2243  0.1492  0.0650
 3314W        W22848   0.393  15.638  15.748 -0.1568 -0.0586  0.1459
 3315W        W22849   9.116   9.385   2.581  0.2215  0.0927 -0.0499
 3316W        W22850  13.356  13.310   0.966  0.1628  0.0608  0.1721
 3317W        W22851   2.607   9.110  12.822  0.2670 -0.0614  0.0017
 3318W        W22852   9.883   8.176  15.147  0.0923 -0.2537 -0.2128
 3319W        W22853   0.395   6.256   4.993 -0.1069 -0.0619  0.0913
 3320W        W22854  11.023   7.076   3.374 -0.3595  0.0478  0.0910
 3321W        W22855   9.646   4.532   0.521  0.1972  0.2110 -0.2604
 3322W        W22856  15.786  12.570   1.318 -0.0682  0.0395 -0.1020
 3323W        W22857   1.812   1.810   5.018 -0.2395  0.1344  0.0617
 3324W        W22858   6.503   9.106   4.610  0.1874 -0.0224  0.0004
 3325W        W22859   7.974   2.111   3.845 -0.1629 -0.0990 -0.1117
 3326W        W22860   2.032   0.122   4.889 -0.0297 -0.2268 -0.0206
 3327W        W22861   5.765  17.534   3.261 -0.3121  0.1178 -0.0260
 3328W        W22862   5.701   1.168   0.497  0.0596 -0.1354 -0.0380
 3329W        W22863  16.546   8.481   4.422  0.2914 -0.3358  0.0069
 3330W        W22864  14.186  13.009   4.750  0.0364  0.1432 -0.2624
 3331W        W22865  15.912   7.216  14.059  0.2341 -0.0467 -0.1585
 3332W        W22866   4.776   1.539   0.878  0.0280  0.1003  0.2655
 3333W        W22867  15.465   9.369   1.824 -0.0201  0.1740  0.1935
 3334W        W22868   6.286   8.720   5.023 -0.3311 -0.1114  0.1496
 3335W        W22869  17.526   7.168  13.326  0.0050 -0.1299  0.1886
 3336W        W22870   7.121   4.957   2.782  0.1271  0.1322 -0.1214
 3337W        W22871   9.016   7.657   2.371  0.0439 -0.0914  0.0929
 3338W        W22872   0.358  12.205  15.180 -0.0244  0.0982  0.1270
 3339W        W22873   8.506  12.333  13.970 -0.3045  0.2497 -0.0101
 3340W        W22874   9.334   8.471  12.905  0.0989 -0.0836 -0.0349
 3341W        W22875   4.656  15.335   1.554  0.2954  0.1281  0.0848
 3342W        W22876   9.034  12.268  16.811 -0.1342  0.2027  0.2184
 3343W        W22877   6.705   4.023   4.827 -0.1608 -0.3224 -0.1070
 3344W        W22878  12.195  14.601   1.666 -0.0818 -0.1819 -0.0198
 3345W        W22879  14.880  10.018  14.555  0.0227 -0.2065  0.2524
 3346W        W22880   7.144  15.655   0.774 -0.0206 -0.0840  0.0242
 3347W        W22881  12.991   7.979  16.641  0.3962 -0.1074 -0.1354
 3348W        W22882   2.942   5.389  13.852  0.0825  0.0862  0.1327
 3349W        W22883  12.936   5.275   1.687  0.1175  0.2425 -0.0235
 3350W        W22884  17.364  11.278  12.280 -0.0495  0.0975  0.2723
 3351W        W22885   4.535  12.805  13.715 -0.2383  0.0494  0.0696
 3352W        W22886   8.004   6.931  15.027  0.0954 -0.1785  0.1604
 3353W        W22887  11.130  11.307   4.093  0.1430  0.1543  0.2335
 3354W        W22888   8.185   8.769  14.638  0.3144  0.0512 -0.0469
 3355W        W22889   1.549   7.911  15.106  0.0448 -0.2256  0.0679
 3356W        W22890   9.414   4.760   4.302  0.0393  0.1210  0.0764
 3357W        W22891  12.724   0.807  14.721 -0.1955  0.2887  0.2003
 3358W        W22892  16.959   1.447   3.836  0.0626  0.1503 -0.1115
 3359W        W22893  12.780   2.819  17.062 -0.0890 -0.2150 -0.1814
 3360W        W22894  10.470   9.479   0.409 -0.0538 -0.1249  0.0259
 3361W        W22895  11.894   1.274   2.844 -0.0080  0.0049 -0.0324
 3362W        W22896   7.681  15.195  12.156 -0.0467 -0.0090 -0.0098
 3363W        W22897  13.970   9.240   0.813 -0.3445  0.2012  0.1339
 3364W        W22898  10.311  17.334   4.963 -0.2870  0.0810 -0.1389
 3365W        W22899   0.718   2.510   3.437 -0.0152  0.2025 -0.1627
 3366W        W22900  12.667  16.949   3.219  0.0301  0.3419  0.2903
 3367W        W22901   4.658   7.548   1.695  0.2448 -0.3369 -0.2441
 3368W        W22902  14.665  11.579   5.013  0.1393  0.0365  0.1120
 3369W        W22903   6.964   6.041   1.337 -0.1592 -0.2262 -0.3092
 3370W        W22904   4.268   7.508  12.681 -0.0492 -0.0092 -0.1081
 3371W        W22905   6.863  10.176  14.322  0.1041 -0.2405 -0.2236
 3372W        W22906  11.867   9.507   0.380  0.1406  0.1302 -0.1022
 3373W        W22907   2.327   2.560  15.076 -0.2323 -0.3199  0.1793
 3374W        W22908   4.885  11.098   4.982  0.0234 -0.0911 -0.5503
 3375W        W22909   6.396  11.756  14.049 -0.2072  0.1201  0.1303
 3376W        W22910  10.288   9.356   2.565  0.2313  0.2557  0.1788
 3377W        W22911  12.397  15.807  14.731 -0.1617 -0.0543 -0.0505
 3378W        W22912  13.513  12.267  15.087  0.0025  0.0899 -0.3255
 3379W        W22913  16.435   4.468   0.248 -0.1454  0.0895  0.0358
 3380W        W22914  17.571  14.046  16.639  0.2133  0.2152 -0.0159
 3381W        W22915  10.840   3.435  15.564 -0.1550 -0.0190  0.1342
 3382W        W22916   1.026   6.343   5.035 -0.0779 -0.0851  0.2835
 3383W        W22917   3.784  17.531  14.880 -0.1058 -0.1381 -0.2042
 3384W        W22918  12.970   5.254   1.125 -0.3185 -0.2242 -0.1984
 3385W        W22919   4.011  13.883  15.380 -0.2313  0.0445 -0.1063
 3386W        W22920   6.563   2.811  14.787 -0.0866  0.3066  0.2926
 3387W        W22921  11.692   8.740   2.259 -0.1555  0.2919  0.4183
 3388W        W22922  11.947   2.073   4.213  0.1011 -0.0602 -0.3348
 3389W        W22923   9.535  13.035  14.584  0.0000 -0.0444 -0.0881
 3390W        W22924   1.621  11.186  16.396 -0.0531 -0.0251 -0.0482
 3391W        W22925   7.560  14.139  13.078 -0.1363 -0.1323  0.0348
 3392W        W22926   5.095   1.627   2.243 -0.1003 -0.0548  0.2268
 3393W        W22927   8.347   4.699  12.571 -0.0619  0.0971 -0.0702
 3394W        W22928  17.185  12.571  15.321  0.1002  0.1947  0.2382
 3395W        W22929   7.032   0.436   4.679 -0.1280  0.1546  0.2946
 3396W        W22930  13.399   9.150  13.030 -0.2014  0.2516  0.2010
 3397W        W22931   6.185  17.626   2.166 -0.0789  0.0170 -0.2117
 3398W        W22932   8.117  17.528   2.153 -0.3158  0.0023 -0.1684
 3399W        W22933  15.223   9.337   0.289  0.0300 -0.1785  0.1931
 3400W        W22934   4.724  12.628  16.289  0.1091 -0.4459  0.0918
 3401W        W22935   2.831   1.258   3.553 -0.3106  0.0674 -0.0665
 3402W        W22936   3.890  12.545  11.732  0.0238 -0.0331  0.1344
 3403W        W22937  17.164   9.799  16.203 -0.0278  0.0706 -0.0019
 3404W        W22938   7.513  17.209   0.695 -0.0041 -0.4468  0.1219
 3405W        W22939  17.484  17.418  14.134  0.1121 -0.1879  0.1307
 3406W        W22940   8.564   2.540   6.076 -0.0554  0.3546  0.3984
 3407W        W22941  15.013   6.681  13.772 -0.2652 -0.1978 -0.0401
 3408W        W22942   3.423  15.252   0.067 -0.1309  0.0177 -0.0197
 3409W        W22943   3.354   5.138   2.123 -0.1947 -0.0316 -0.1313
 3410W        W22944   0.506   6.080  16.141 -0.2151  0.0416  0.0944
 3411W        W22945  15.610   3.276  12.870 -0.0196 -0.0251 -0.0884
 3412W        W22946   5.571  11.710   0.124 -0.1338 -0.2182 -0.0995
 3413W        W22947  10.822   7.626   0.167 -0.2138  0.1133  0.1604
 3414W        W22948  14.815   9.299   4.002  0.1530  0.3839 -0.0777
 3415W        W22949   3.541  10.895  16.038 -0.2040 -0.0364 -0.1320
 3416W        W22950   5.014  13.169   3.564  0.1188  0.0510  0.0254
 3417W        W22951   1.379  13.802   1.270 -0.2299 -0.0120 -0.0880
 3418W        W22952  16.263   3.609  13.570 -0.0582  0.1977  0.2304
 3419W        W22953   7.542   8.625  15.252  0.1060 -0.2534 -0.2697
 3420W        W22954   0.628   2.641  16.959  0.2521  0.0630  0.0318
 3421W        W22955  10.362  15.353  16.409  0.1486  0.0290 -0.2079
 3422W        W22956   1.179  15.408  13.053  0.0307  0.2717  0.0268
 3423W        W22957  10.355  10.026  15.786 -0.0431 -0.2211  0.2542
 3424W        W22958   9.986  10.699   3.668  0.1810 -0.2275 -0.1257
 3425W        W22959  11.490   4.515  15.245 -0.0084 -0.1246 -0.1870
 3426W        W22960   0.956  13.536   0.387  0.2484  0.3623  0.1961
 3427W        W22961   1.958  11.258   0.782  0.0807  0.0137 -0.0682
 3428W        W22962  11.664  13.885   0.617 -0.0373  0.0865 -0.1664
 3429W        W22963  10.057   7.983   0.054 -0.0620  0.0697  0.0661
 3430W        W22964  11.613  14.812   4.796 -0.0686 -0.1916  0.0810
 3431W        W22965   2.210   7.613   2.109 -0.0141  0.2323 -0.3513
 3432W        W22966   5.065  10.541   1.752 -0.1976 -0.0462  0.2348
 3433W        W22967  15.205  10.586  14.825 -0.0672  0.3322  0.0328
 3434W        W22968   8.186   6.383   4.620 -0.1802  0.0911 -0.2559
 3435W        W22969  10.876   9.318  12.995 -0.3326 -0.4127 -0.1395
 3436W        W22970   2.602  10.005  13.756 -0.0859 -0.2250  0.1317
 3437W        W22971  15.849  10.812   4.831  0.0227 -0.0184 -0.1576
 3438W        W22972   2.355   7.086   0.248 -0.1788  0.3514 -0.1392
 3439W        W22973   0.627   8.028  12.482 -0.0384  0.0453  0.1126
 3440W        W22974   9.829   8.268  13.047 -0.1764 -0.1131  0.0543
 3441W        W22975  14.414  17.142   3.178 -0.2536  0.0500 -0.0785
 3442W        W22976   4.191   1.125   4.429 -0.2155 -0.1453 -0.2871
 3443W        W22977   6.948   6.500  16.588 -0.0560  0.1720 -0.0529
 3444W        W22978   8.362   4.238   2.729  0.4053  0.0074  0.2866
 3445W        W22979   8.936  12.618  15.962 -0.0362  0.0954  0.3285
 3446W        W22980   0.052   4.135  15.185 -0.0018  0.0719 -0.0271
 3447W        W22981   6.395  15.893   3.529 -0.2177  0.1472 -0.1723
 3448W        W22982   6.781  16.828   1.709 -0.1968  0.1490  0.1322
 3449W        W22983  11.369  16.988  15.170 -0.0311 -0.1599  0.0559
 3450W        W22984  12.265  15.317   4.695  0.0982 -0.0083 -0.2596
 3451W        W22985  10.902  12.059  14.209  0.0224 -0.0788 -0.1516
 3452W        W22986  12.655  10.867   4.226 -0.2216 -0.0583 -0.1601
 3453W        W22987   2.086  10.973   2.760  0.1320 -0.1074  0.3177
 3454W        W22988   3.714  12.833   1.834  0.0445  0.0428 -0.0345
 3455W        W22989   6.066  10.788  15.871 -0.2333  0.0251  0.0309
 3456W        W22990  16.352   7.256   5.234 -0.0810 -0.1277  0.0150
 3457W        W22991  13.121   4.809   0.965 -0.1525 -0.1972 -0.1274
 3458W        W22992  10.229  10.289   2.645 -0.3427 -0.1783 -0.1752
 3459W        W22993  12.633   9.483  16.444 -0.1854  0.0022  0.0060
 3460W        W22994   3.772  12.209  16.666  0.0501 -0.1326 -0.0251
 3461W        W22995   7.906   2.745  14.491  0.1828  0.4453  0.4571
 3462W        W22996   1.762   8.456  12.796 -0.0865 -0.3322  0.1998
 3463W        W22997   1.581   9.605  16.328 -0.2867  0.2228  0.2339
 3464W        W22998  10.532  10.562   1.690  0.1888  0.1187 -0.0320
 3465W        W22999  16.867  14.024   3.426  0.1384  0.1250  0.2390
 3466W        W23000   7.915   8.261   2.832  0.0789 -0.4233  0.1747
 3467W        W23001  13.657   2.098  12.574 -0.3032 -0.2468 -0.2298
 3468W        W23002   5.732   3.197  16.283  0.2420 -0.2047  0.0020
 3469W        W23003   0.439   7.599   1.355 -0.2506  0.1979 -0.1639
 3470W        W23004  15.344   9.083  15.051 -0.2031 -0.0099  0.3617
 3471W        W23005  10.417   2.728  12.113  0.2004  0.0316  0.1597
 3472W        W23006   0.878   2.946  13.982 -0.0649  0.2453  0.2677
 3473W        W23007   0.479   7.628  15.401  0.0287  0.1172  0.0605
 3474W        W23008  17.647   2.764  16.381 -0.1454 -0.2196 -0.0456
 3475W        W23009   6.114   0.675  12.391 -0.3817 -0.1320 -0.0259
 3476W        W23010  15.210  11.093   2.326  0.0181 -0.0594  0.0379
 3477W        W23011  11.395  16.117  13.691 -0.1438  0.2489 -0.2337
 3478W        W23012  13.660  14.837   4.869 -0.2584 -0.2538 -0.1156
 3479W        W23013   9.022  13.075   1.925  0.2355 -0.2234  0.1032
 3480W        W23014  12.483   0.178  13.808  0.0633 -0.4153 -0.0825
 3481W        W23015   8.823  11.217   3.363  0.1368 -0.1307  0.0619
 3482W        W23016   0.187  13.810   5.063 -0.0795  0.3440  0.0983
 3483W        W23017  11.252   8.772  15.113 -0.2421  0.0390 -0.1258
 3484W        W23018  12.044  10.765   0.629  0.0193 -0.2550 -0.1172
 3485W        W23019  17.098  13.232  14.073 -0.0985 -0.1363  0.3744
 3486W        W23020   0.281  11.729  12.887 -0.1892 -0.1802 -0.0772
 3487W        W23021  10.553   5.658   4.022 -0.2430 -0.1210 -0.0464
 3488W        W23022  11.429   4.479   3.769  0.0237 -0.0526 -0.0685
 3489W        W23023   7.679  11.944  15.682 -0.2287  0.1046  0.4805
 3490W        W23024   7.074   9.701   0.965 -0.4175  0.2398 -0.0604
 3491W        W23025   2.299  14.074  14.355 -0.1814 -0.1231  0.0537
 3492W        W23026  16.248   4.603   3.010  0.1272  0.0084 -0.1008
 3493W        W23027   6.892   0.996   3.290  0.1092  0.1048 -0.1037
 3494W        W23028   1.825  15.359  12.357 -0.3168 -0.0341 -0.0072
 3495W        W23029   1.526  12.796  13.226  0.1166 -0.1103  0.0844
 3496W        W23030   4.516  14.624   0.344 -0.0183 -0.3667  0.0519
 3497W        W23031  15.591   5.745  15.164  0.1310 -0.1009 -0.2827
 3498W        W23032  11.744  16.770   2.176  0.0999  0.1025 -0.1479
 3499W        W23033   4.078   9.219   4.798  0.0240  0.0913  0.0368
 3500W        W23034  14.102   4.074   4.459  0.0652 -0.1850 -0.0658
 3501W        W23035  11.788  14.679  14.645 -0.0394  0.1964 -0.0748
 3502W        W23036   1.274   4.942   4.272  0.0614 -0.2060  0.2150
 3503W        W23037   4.720   8.806   4.051  0.0426 -0.0747 -0.0033
 3504W        W23038   2.298   9.142   1.410 -0.1385 -0.1862 -0.0244
 3505W        W23039  16.224   2.318   1.788  0.0022 -0.1299  0.0143
 3506W        W23040   7.517  13.164  14.306  0.1798  0.0242 -0.2095
 3507W        W23041  12.568   3.179  14.605  0.0704  0.2324 -0.2328
 3508W        W23042   0.447  10.246   3.962  0.0224  0.2154  0.0155
 3509W        W23043  14.737  10.253  12.510  0.1611  0.0634 -0.0821
 3510W        W23044  13.233  12.493  14.298  0.1169  0.2237  0.3520
 3511W        W23045   7.277   1.931  12.064 -0.0757  0.0827  0.1236
 3512W        W23046   6.042   1.388   2.351  0.1054 -0.1432 -0.1889
 3513W        W23047   4.229  15.259  15.450  0.1562  0.0926  0.2167
 3514W        W23048  12.924  14.459  12.965 -0.1118 -0.0527 -0.1356
 3515W        W23049   9.074   6.968   2.609 -0.0438  0.0026  0.0171
 3516W        W23050   0.294   2.772   2.213 -0.1078 -0.0077 -0.0817
 3517W        W23051   1.110  13.396   5.935  0.2798  0.0561 -0.0085
 3518W        W23052   5.015  10.872  13.378  0.1276  0.2052 -0.1644
 3519W        W23053   4.075   1.081   3.243  0.2089  0.1025  0.0237
 3520W        W23054   7.832  14.932  12.889  0.0140 -0.1365 -0.0361
 3521W        W23055   8.279  12.746  14.543  0.2413 -0.2292  0.2344
 3522W        W23056   5.752  16.563  16.434  0.1313  0.0112 -0.0397
 3523W        W23057  12.084   7.981   4.629 -0.1339  0.0040  0.2075
 3524W        W23058  17.038  16.682  13.521  0.0337 -0.0354  0.1736
 3525W        W23059  14.992  11.146   0.302  0.0054  0.1831  0.2307
 3526W        W23060   3.769  15.159   3.848 -0.1627 -0.3690  0.0953
 3527W        W23061   2.320  16.007  16.771 -0.0174 -0.0442  0.1656
 3528W        W23062   1.908   1.852   2.673 -0.1874 -0.2084  0.1951
 3529W        W23063  14.643   8.462   0.513  0.0914  0.0183  0.3641
 3530W        W23064  15.369   5.185  13.724 -0.2958 -0.4017  0.1859
 3531W        W23065   3.474   4.260  15.148  0.1828 -0.0040 -0.0356
 3532W        W23066  13.355  12.040   1.087 -0.1355 -0.0039  0.0607
 3533W        W23067   1.822  10.660   2.447 -0.0741  0.2344  0.2479
 3534W        W23068  10.498   2.618  15.717  0.0874 -0.0273 -0.2818
 3535W        W23069   3.998  17.048  15.770  0.0519  0.2284 -0.0644
 3536W        W23070   4.162   0.413   1.501  0.3185  0.1677 -0.2398
 3537W        W23071  16.337  11.064  15.904 -0.1682  0.0305 -0.1373
 3538W        W23072  11.513   7.827  11.767 -0.1382  0.2481  0.1595
 3539W        W23073   1.854  14.680   2.630 -0.3683 -0.0046  0.2947
 3540W        W23074   8.451  15.501  16.133 -0.1207  0.0947 -0.2554
 3541W        W23075   8.083   2.530   0.834 -0.1905 -0.0585 -0.3276
 3542W        W23076   7.888  12.288  15.249 -0.1096  0.0093 -0.2185
 3543W        W23077  13.148   2.699   3.853  0.4514 -0.0319 -0.3506
 3544W        W23078   0.793   7.540  12.496 -0.0509 -0.0987  0.2140
 3545W        W23079   9.212  14.023  12.780  0.1652  0.1520  0.2957
 3546W        W23080  12.001  17.087   5.149  0.4308 -0.0025 -0.1050
 3547W        W23081   8.141  12.516  13.112  0.2439 -0.0804  0.0728
 3548W        W23082   3.678  14.074  14.590  0.0601  0.0551  0.3005
 3549W        W23083   1.284   5.169  15.849  0.1227 -0.1574  0.1896
 3550W        W23084   3.568  15.562  13.095 -0.0594  0.0272 -0.0073
 3551W        W23085   6.195  15.517   0.549 -0.3893  0.2215 -0.2156
 3552W        W23086   3.276  16.464   2.007  0.2028 -0.1095 -0.0064
 3553W        W23087   4.063   8.517  16.095  0.0250 -0.1147 -0.0563
 3554W        W23088   4.200   7.142   1.426  0.3026  0.3001 -0.0274
 3555W        W23089   3.756  12.856  12.727  0.0465 -0.0532 -0.0662
 3556W        W23090  10.410  17.078   2.469  0.3222 -0.0756  0.0818
 3557W        W23091   0.373   1.324  16.352  0.1582  0.2084 -0.1975
 3558W        W23092   3.251   5.349  14.333 -0.0303  0.0494 -0.1405
 3559W        W23093  10.291  10.524   2.196  0.0210  0.2506 -0.0345
 3560W        W23094   2.521   9.183   0.936 -0.0060 -0.1147  0.2783
 3561W        W23095   6.393  14.130  15.767  0.2545  0.2810 -0.2105
 3562W        W23096   9.675  13.147  13.813 -0.0845 -0.0492  0.0140
 3563W        W23097   2.368  11.665  16.005 -0.0047 -0.1355  0.0918
 3564W        W23098   1.522   2.138  17.051 -0.0329 -0.2502 -0.1763
 3565W        W23099   6.911   7.885  16.806  0.1355  0.1256  0.0770
 3566W        W23100   0.643  15.285  16.057  0.0909  0.2072  0.3056
 3567W        W23101  13.403  11.044   0.962  0.1441 -0.1550 -0.2046
 3568W        W23102   1.539   2.620   3.243  0.0682  0.0306  0.1321
 3569W        W23103   3.451  14.693   1.463 -0.3163  0.1697 -0.2282
 3570W        W23104  15.200   2.956   4.065 -0.3694 -0.1736 -0.2582
 3571W        W23105   8.680   0.588  13.848 -0.0805  0.2460  0.0981
 3572W        W23106  16.070  10.093  15.075  0.0290  0.0478 -0.2033
 3573W        W23107  15.271  17.072   1.755 -0.2234 -0.0803 -0.3829
 3574W        W23108  13.708  15.382  14.305 -0.0230  0.0429 -0.0445
 3575W        W23109   7.008  14.922  12.675 -0.1202  0.2761  0.0557
 3576W        W23110  14.665   7.196   4.259  0.1669  0.1391  0.0625
 3577W        W23111   4.741  11.925   2.127  0.0350  0.0932  0.1264
 3578W        W23112   7.410   9.448  15.586  0.2717  0.0865 -0.0230
 3579W        W23113  14.465   9.579  16.280 -0.1190  0.2002 -0.0371
 3580W        W23114  12.474  14.309   3.872 -0.0040  0.0014 -0.0560
 3581W        W23115   2.927   0.805   3.868  0.2539 -0.2483 -0.1244
 3582W        W23116   0.328   2.217   4.267  0.0616  0.0155 -0.0710
 3583W        W23117  11.011  14.709   1.727 -0.0477  0.0509  0.2687
 3584W        W23118   8.527  10.391  11.777 -0.0868  0.0227  0.0494
 3585W        W23119   3.615  13.841  15.129 -0.0243  0.0180  0.3071
 3586W        W23120   9.499   9.929  12.058  0.0297  0.0603 -0.1544
 3587W        W23121   4.408   3.966   2.871 -0.0104  0.2065  0.2476
 3588W        W23122  15.621  17.284   4.591  0.1404  0.1103 -0.3393
 3589W        W23123  14.917   2.365   1.612  0.0092  0.1299 -0.0163
 3590W        W23124  16.298   2.692   5.241  0.1167  0.1732 -0.0978
 3591W        W23125  10.580  14.504   2.530 -0.0352  0.1954 -0.0504
 3592W        W23126   7.108   3.602   5.210  0.0336  0.0281 -0.1039
 3593W        W23127  13.604   3.102   3.211  0.0732  0.3900  0.1085
 3594W        W23128  11.078  13.337  13.771 -0.2269  0.1874 -0.2557
 3595W        W23129  12.501  10.527  14.248 -0.1292 -0.1527  0.3110
 3596W        W23130  15.407   1.001   0.305 -0.0923 -0.0852 -0.1406
 3597W        W23131   8.020   4.642   0.120  0.2170 -0.1658  0.2650
 3598W        W23132   4.848  11.139   4.269 -0.2113 -0.0787 -0.1195
 3599W        W23133  11.528   1.106  16.178 -0.2414 -0.0463 -0.0316
 3600W        W23134   1.319  16.568  14.694  0.2800  0.0489  0.0029
 3601W        W23135  15.749  16.780  14.826 -0.0417  0.0749  0.0214
 3602W        W23136   6.125  13.137  13.166  0.2196 -0.0661 -0.0526
 3603W        W23137   7.098  13.425  13.960  0.1039  0.0282 -0.1018
 3604W        W23138   5.418  13.979   3.840 -0.2057  0.0002 -0.1950
 3605W        W23139   4.029   8.968   0.196  0.1933 -0.0747  0.2083
 3606W        W23140   6.608   0.387  16.527  0.0087  0.1245  0.3265
 3607W        W23141  12.621  15.868  15.355  0.2807  0.5278 -0.1327
 3608W        W23142   0.536   0.730  15.648 -0.0511 -0.0698 -0.0791
 3609W        W23143   6.389  16.098  15.517  0.1865  0.3481 -0.0937
 3610W        W23144   2.985  11.761   1.569  0.1244  0.0495  0.1727
 3611W        W23145   0.929   1.042   3.243 -0.0809 -0.1512  0.0088
 3612W        W23146   6.259  13.143   2.574 -0.2969  0.1425  0.0923
 3613W        W23147  12.292   6.059   1.877  0.0547  0.0661  0.1002
 3614W        W23148  16.544  17.364   0.437 -0.1431  0.1225 -0.1954
 3615W        W23149  10.769   5.729  13.099  0.0488  0.2009  0.1149
 3616W        W23150   2.962  12.547  13.239  0.0764 -0.0752  0.0916
 3617W        W23151  13.953  13.197  14.429 -0.0722 -0.0585 -0.0553
 3618W        W23152   5.275  11.504  14.353 -0.0465  0.0570  0.0085
 3619W        W23153  13.640   1.385   1.243 -0.1506 -0.1335  0.0191
 3620W        W23154   6.629  15.496  13.343  0.0140  0.1553  0.1922
 3621W        W23155   2.654  13.430   2.718 -0.0853  0.0311 -0.0543
 3622W        W23156  17.588  15.567  12.541  0.2100 -0.4574  0.0437
 3623W        W23157   9.786   2.145   1.248 -0.1373  0.1821  0.1324
 3624W        W23158   4.079  13.526  11.988 -0.0299 -0.1866 -0.1231
 3625W        W23159  15.187   1.668  16.309  0.1719  0.1868 -0.0996
 3626W        W23160  15.471   2.247  13.265 -0.2909 -0.1580 -0.0322
 3627W        W23161   9.501   0.610  15.105 -0.0923  0.1946  0.1718
 3628W        W23162  13.502  15.354  15.669  0.0043 -0.2798  0.0497
 3629W        W23163   5.556   3.123   1.178  0.0555 -0.0076  0.0399
 3630W        W23164   2.459   0.027   0.647  0.0478  0.0171 -0.2243
 3631W        W23165  10.448   7.166  12.165  0.0062  0.0472 -0.1625
 3632W        W23166   8.983   0.949  12.117 -0.0141  0.0572  0.1572
 3633W        W23167   2.862  10.936   2.542  0.0442  0.1846 -0.0686
 3634W        W23168  12.818  11.900   3.197  0.0659  0.0590  0.2084
 3635W        W23169   3.051   5.880   0.313 -0.1852  0.0085  0.2842
 3636W        W23170  13.730  13.145   5.435  0.0753  0.2902 -0.1997
 3637W        W23171  17.373   4.828   2.707 -0.0159  0.0290 -0.0970
 3638W        W23172   3.875  12.265   4.855  0.1859  0.1598  0.1334
 3639W        W23173  15.376   7.107   3.328  0.0772  0.3855 -0.1711
 3640W        W23174   3.966  13.193   1.408  0.1835  0.0863 -0.0757
 3641W        W23175   9.219   0.531   4.647  0.1222 -0.0102  0.1368
 3642W        W23176  12.436   3.252   1.124  0.0776  0.0751  0.1386
 3643W        W23177  15.542   7.602  12.315  0.0942 -0.1634  0.2057
 3644W        W23178  13.239  12.989   5.425 -0.0820  0.2431 -0.0103
 3645W        W23179   0.801  14.724  15.190  0.0058 -0.0677 -0.0374
 3646W        W23180   4.332   1.125  14.976  0.2376 -0.0960 -0.0166
 3647W        W23181  17.157  10.722  15.952 -0.1338  0.0511  0.1348
 3648W        W23182  11.370   8.867   0.866 -0.1069  0.1133  0.0203
 3649W        W23183   6.147   0.323   4.308  0.0035  0.1082 -0.2333
 3650W        W23184   9.316   7.039  14.778  0.2518 -0.1367  0.0454
 3651W        W23185  15.876  15.566   4.645  0.0442 -0.0022 -0.0058
 3652W        W23186  16.094   5.619  16.760 -0.0192  0.2363  0.2244
 3653W        W23187  11.576  11.449  13.271  0.4684 -0.0039  0.0831
 3654W        W23188  14.447   4.888   0.901 -0.2685 -0.1274  0.0881
 3655W        W23189  17.548   6.599   2.277 -0.1751 -0.0438 -0.2595
 3656W        W23190   6.187   7.739  14.350  0.0851  0.2243  0.2163
 3657W        W23191   5.948  14.665   4.541 -0.2208  0.0221 -0.3220
 3658W        W23192   8.836   0.560   4.316  0.0032 -0.0575  0.0220
 3659W        W23193  10.483   9.806   2.701 -0.0996 -0.1109 -0.0399
 3660W        W23194  11.134   3.669   4.740  0.0474  0.1813  0.1426
 3661W        W23195  13.989   3.570   0.749 -0.2698 -0.0466  0.1385
 3662W        W23196  12.344  15.660   3.322 -0.1117  0.0388  0.0161
 3663W        W23197  11.171   5.312  15.663  0.0401  0.2058  0.0525
 3664W        W23198  11.276  14.290  15.536 -0.1113  0.1559  0.0309
 3665W        W23199   6.045   5.619   1.008  0.1840  0.4591 -0.4376
 3666W        W23200   8.379   5.482   2.080 -0.1018  0.0882 -0.2131
 3667W        W23201   7.681   2.883   3.129 -0.0307 -0.2826 -0.1863
 3668W        W23202   4.910  15.388  14.930 -0.3452 -0.4259 -0.0745
 3669W        W23203  14.908   7.554  13.236  0.2079 -0.0985  0.1208
 3670W        W23204   0.577   3.158   4.157 -0.0144 -0.0382  0.0281
 3671W        W23205   2.033  16.598  16.796  0.6071  0.0791 -0.0009
 3672W        W23206  15.918  12.887   0.965  0.2828  0.0009  0.3667
 3673W        W23207   5.936   2.424   1.960  0.1218  0.1414 -0.2447
 3674W        W23208   7.644   3.153  12.987  0.0604 -0.2488 -0.2681
 3675W        W23209  11.733  10.203   2.713 -0.0567  0.0128 -0.0793
 3676W        W23210   6.492   4.407   4.061 -0.1558  0.0082 -0.4845
 3677W        W23211   4.538  16.012   1.942  0.2769  0.1855  0.3685
 3678W        W23212   1.590  14.311   2.424  0.1879  0.1074 -0.0219
 3679W        W23213  16.035  16.421  14.549  0.1374 -0.0651 -0.1748
 3680W        W23214  14.507  13.974   3.725 -0.0578 -0.3011 -0.0000
 3681W        W23215  15.946   5.206   0.739  0.1966  0.3619  0.2589
 3682W        W23216   3.543   9.772   2.145  0.0144  0.0579  0.1639
 3683W        W23217   2.966  11.417   1.140  0.2732 -0.2003  0.1291
 3684W        W23218  13.199  12.133   2.859 -0.0467 -0.4659  0.0233
 3685W        W23219   7.533   0.928   3.873 -0.0150  0.1114  0.0285
 3686W        W23220  12.882  11.793   5.184  0.1034 -0.2982  0.1222
 3687W        W23221   1.010   2.408   4.690 -0.1523  0.1694  0.2613
 3688W        W23222  10.577  17.375   1.480  0.0275  0.0852  0.1701
 3689W        W23223   2.706   8.957  12.332 -0.3654 -0.1058  0.1639
 3690W        W23224   4.601   6.474  11.563  0.2469 -0.1200 -0.0220
 3691W        W23225  11.659   8.036   0.236  0.0918  0.1308 -0.0375
 3692W        W23226  10.697   4.188  13.513  0.0821  0.0650  0.2450
 3693W        W23227   0.138  10.811  12.359  0.0147  0.0096  0.1028
 3694W        W23228  15.438   9.225  12.365 -0.0147  0.0690  0.1183
 3695W        W23229   1.524   7.032   3.148  0.2686  0.3998 -0.0457
 3696W        W23230  14.451  16.482  14.006 -0.0747 -0.0010  0.2938
 3697W        W23231   2.338   5.757  12.875 -0.1417  0.0871  0.3348
 3698W        W23232   5.707  11.248   4.009  0.1296  0.0635 -0.1029
 3699W        W23233   6.203   7.923   2.404 -0.1570  0.0182 -0.0010
 3700W        W23234  13.258   6.125   3.484  0.2726 -0.3083 -0.0351
 3701W        W23235  11.645   3.678  16.564  0.3923  0.1065 -0.0278
 3702W        W23236   8.823   3.762  12.293 -0.0451 -0.1073  0.2578
 3703W        W23237   4.199   4.710   0.311 -0.1204 -0.1759  0.0676
 3704W        W23238   4.133  10.651   4.786  0.0340 -0.0316  0.1157
 3705W        W23239   9.987   0.098   2.844  0.0638 -0.0515 -0.2012
 3706W        W23240   0.464   0.657   3.322  0.0561  0.0542 -0.1272
 3707W        W23241  15.145   3.793  14.431  0.2260  0.1058 -0.0446
 3708W        W23242   4.078  17.605  13.369  0.2575  0.0646  0.1363
 3709W        W23243  15.273   0.819   3.253  0.2207 -0.0838  0.0208
 3710W        W23244  15.291   9.769   2.648 -0.3334 -0.4138  0.1256
 3711W        W23245   7.985  13.154  14.493  0.0617  0.0899  0.0850
 3712W        W23246  16.769   0.406  14.144 -0.0927 -0.3955 -0.2551
 3713W        W23247   3.870  14.844  12.435  0.2594 -0.0869  0.1580
 3714W        W23248  16.556  15.927   2.931  0.6038  0.0402 -0.1195
 3715W        W23249  13.626   5.169  14.627 -0.3029  0.1605 -0.1030
 3716W        W23250  14.215   2.642   2.973 -0.1158 -0.0369 -0.1581
 3717W        W23251   3.504  13.884   3.159 -0.4888  0.1184 -0.0298
 3718W        W23252   8.653  16.174   0.717  0.2062 -0.0740 -0.1247
 3719W        W23253  11.033   4.201  16.113  0.0286  0.0786  0.1575
 3720W        W23254   1.649  13.954   0.860  0.0208  0.0385 -0.1437
 3721W        W23255   0.983  16.293   1.354  0.1989 -0.0174 -0.3150
 3722W        W23256  12.930  10.570   0.310 -0.2248  0.0072  0.1054
 3723W        W23257   9.157  10.794  11.032 -0.0281 -0.1570 -0.1545
 3724W        W23258   3.605   2.007  15.092  0.0583  0.0897  0.1793
 3725W        W23259   8.716  10.121   0.363 -0.1628 -0.2019 -0.1710
 3726W        W23260  11.936   5.371  16.168 -0.0901 -0.0192  0.4061
 3727W        W23261   3.318   0.542   2.973  0.2724  0.0617  0.0813
 3728W        W23262   4.966   0.354  16.796 -0.2238  0.0285 -0.2214
 3729W        W23263  15.597  10.448  12.759  0.0009  0.1158  0.2780
 3730W        W23264  10.131   8.826   0.055 -0.0485  0.0510  0.1902
 3731W        W23265  15.247   1.906   1.475  0.0366  0.0455  0.3294
 3732W        W23266   4.785   1.770  16.092  0.1856  0.0824  0.1150
 3733W        W23267   8.953   8.859   1.779 -0.1496  0.0452  0.0037
 3734W        W23268  13.553  16.213  15.680 -0.1728  0.0082 -0.1470
 3735W        W23269  13.865   7.999   3.459  0.2292  0.2721  0.1555
 3736W        W23270   8.262   3.161   1.539 -0.0446 -0.2717 -0.0171
 3737W        W23271   5.587  16.944  13.500  0.1111 -0.0390  0.0602
 3738W        W23272  15.660  15.700  16.707 -0.3145 -0.0224  0.3645
 3739W        W23273   0.422  13.983   0.710  0.2801 -0.0063  0.0163
 3740W        W23274  16.634   7.601  15.926  0.1355  0.0760 -0.0113
 3741W        W23275   2.780   7.220   0.053  0.1119  0.2597 -0.2786
 3742W        W23276   3.592  14.817   2.703 -0.1859  0.1331 -0.3063
 3743W        W23277   2.607  11.160   4.621 -0.1118 -0.1050 -0.4584
 3744W        W23278  12.689  10.850   0.834  0.2339  0.2025  0.0645
 3745W        W23279   1.397   6.473  16.010  0.1905  0.1150 -0.2577
 3746W        W23280  12.038   4.062  14.477 -0.2276  0.2784 -0.1342
 3747W        W23281  14.997  16.090   4.348 -0.1769 -0.1916 -0.0116
 3748W        W23282   8.218  15.005  16.544  0.0772 -0.3023  0.1038
 3749W        W23283  15.098   2.442  12.457  0.1102  0.4292  0.0213
 3750W        W23284   6.204  12.864   4.139 -0.0720 -0.1509  0.1397
 3751W        W23285   1.866   8.960   1.626  0.0615  0.2007 -0.2717
 3752W        W23286  10.771   1.743   5.436  0.2440  0.1931  0.1861
 3753W        W23287   0.698   8.946  12.195 -0.4239  0.0056 -0.3058
 3754W        W23288   5.063   1.042   3.494  0.1044  0.0427 -0.0991
 3755W        W23289   1.307   7.933  13.525  0.2558 -0.1968  0.2657
 3756W        W23290   1.401  13.306   0.398 -0.0102 -0.0319  0.0201
 3757W        W23291  17.496   8.337  13.672  0.0884 -0.0724 -0.1419
 3758W        W23292   8.391   4.523  16.845  0.0540  0.2100  0.1109
 3759W        W23293  12.213   2.972   4.845  0.1085  0.0316 -0.1254
 3760W        W23294  16.495   1.292  13.401  0.1826 -0.1199 -0.0761
 3761W        W23295   8.675   8.797   4.024  0.3553 -0.0072 -0.0133
 3762W        W23296  12.357  16.050   4.278  0.2731 -0.2270  0.1743
 3763W        W23297  11.374   0.437  13.168 -0.1656 -0.0858 -0.3450
 3764W        W23298   0.182   9.856   4.207 -0.1713  0.3220  0.2388
 3765W        W23299   2.084   5.008  13.427  0.1152  0.0764  0.0472
 3766W        W23300   0.809   4.610  14.028  0.2012 -0.2792 -0.0001
 3767W        W23301  13.814  15.469   0.744 -0.0215 -0.2180  0.1947
 3768W        W23302  11.792   0.633  12.335 -0.0498 -0.0883 -0.0036
 3769W        W23303   2.003   5.901  12.484  0.0776  0.3341  0.1607
 3770W        W23304   1.498  16.037  13.839  0.1667 -0.1274  0.0626
 3771W        W23305   1.509   3.863  15.004 -0.0529 -0.0788 -0.0460
 3772W        W23306   0.094  12.167   5.001 -0.2727 -0.1032 -0.3169
 3773W        W23307   5.040  12.875  12.256 -0.1628 -0.0043 -0.0570
 3774W        W23308   1.420   9.223  15.500  0.0894  0.2510  0.1576
 3775W        W23309   4.015   8.312  15.074 -0.3590 -0.2974  0.1825
 3776W        W23310  10.894  12.795   0.685  0.1761  0.1381  0.4183
 3777W        W23311   2.256   7.443  16.419 -0.0682 -0.1264 -0.2170
 3778W        W23312   1.011   5.353  15.464 -0.3382 -0.0216  0.1428
 3779W        W23313   7.089   7.325   2.250  0.4718  0.1731  0.2369
 3780W        W23314   4.470   7.229   4.465  0.0267  0.3305 -0.1831
 3781W        W23315  17.397   8.241   1.085 -0.0346  0.1737 -0.2984
 3782W        W23316  17.584   3.519   0.377 -0.0032 -0.1546 -0.3195
 3783W        W23317  13.265   5.123  13.652  0.1423 -0.3423 -0.0818
 3784W        W23318   3.641  17.430   4.076 -0.1472 -0.2209  0.1163
 3785W        W23319   2.358  16.258  14.213  0.0666 -0.2167 -0.0542
 3786W        W23320  10.996  15.746  15.259  0.1209  0.2091 -0.1845
 3787W        W23321   3.642   3.718   1.192 -0.4376 -0.0237 -0.0071
 3788W        W23322  10.240  17.508   2.270 -0.1602  0.1349  0.0613
 3789W        W23323  15.398  15.548   4.962  0.3988  0.0677 -0.1968
 3790W        W23324  12.049  14.343  12.995  0.1416  0.0225  0.1476
 3791W        W23325   4.607  15.090  13.385 -0.0277 -0.0519  0.3926
 3792W        W23326  13.614   6.285  15.537  0.1592  0.2631  0.3863
 3793W        W23327  12.130   3.420   5.076 -0.0346 -0.0583  0.0441
 3794W        W23328  12.621  11.765   4.674  0.0777  0.2183  0.0239
 3795W        W23329   8.175  10.700  16.685  0.2722 -0.0953  0.0104
 3796W        W23330  15.184  17.555  12.627 -0.1853 -0.0339 -0.2796
 3797W        W23331  17.270   2.326  16.700 -0.1721  0.0364 -0.2949
 3798W        W23332  13.895   0.452   1.809  0.1448  0.1833 -0.0324
 3799W        W23333   5.440   0.899  11.866 -0.0939  0.0854 -0.1951
 3800W        W23334  15.830  15.304  15.548  0.2068 -0.0093 -0.0531
 3801W        W23335   8.207  16.592  12.770 -0.2217 -0.1623 -0.0643
 3802W        W23336   8.055   7.194   3.579 -0.1028 -0.2774  0.0236
 3803W        W23337   3.280   6.133   1.578 -0.4992  0.1400 -0.0945
 3804W        W23338  16.939  15.520   4.232  0.0157 -0.1329  0.2809
 3805W        W23339   8.270  10.165   0.607  0.1807  0.2357 -0.3461
 3806W        W23340   8.408   4.608  15.396 -0.1026  0.0634  0.1602
 3807W        W23341   1.365   9.361   3.892  0.2611  0.1404  0.2212
 3808W        W23342   3.825   6.904   0.037  0.0788  0.1681 -0.0613
 3809W        W23343  12.548   2.217  15.770 -0.0005  0.0901  0.2112
 3810W        W23344   6.550  14.913   3.911  0.0704  0.1703  0.2017
 3811W        W23345  10.455  14.044  13.363  0.1291 -0.0593 -0.2108
 3812W        W23346   9.618   4.192  16.955 -0.1439 -0.0905 -0.1289
 3813W        W23347   0.964   2.092  14.831  0.3257 -0.2995 -0.1372
 3814W        W23348  16.835   0.905   3.674 -0.1351  0.1227  0.2693
 3815W        W23349   4.881   2.318  14.666 -0.0720 -0.1921 -0.2641
 3816W        W23350  10.891   3.747   4.313 -0.0973  0.0167  0.1704
 3817W        W23351   7.924  13.384  13.502 -0.1816  0.0495 -0.0954
 3818W        W23352   7.830  13.769  12.722  0.0333 -0.0689  0.2543
 3819W        W23353  10.192   1.618  14.322 -0.3660  0.0833 -0.3779
 3820W        W23354  13.883   0.597   4.670  0.3424  0.1411  0.0964
 3821W        W23355  11.838  12.656  16.323 -0.1236  0.0441 -0.2077
 3822W        W23356  10.277  13.079  15.533  0.3205 -0.2234 -0.2645
 3823W        W23357   5.942  16.232  12.614 -0.2543 -0.1208 -0.0411
 3824W        W23358   6.846  16.269   3.741  0.1145 -0.1748 -0.2725
 3825W        W23359  17.526  14.867  15.807  0.2347  0.0520 -0.1725
 3826W        W23360  15.220   2.562   3.500 -0.0202 -0.0671  0.0556
 3827W        W23361   0.884   8.770   2.142  0.1167 -0.0127 -0.2636
 3828W        W23362  15.299  14.368   4.658 -0.1076  0.0165  0.0401
 3829W        W23363   5.045  15.804  15.344 -0.2749 -0.0778  0.0856
 3830W        W23364  15.126  13.552  15.230  0.5578  0.0773 -0.0006
 3831W        W23365  11.491   4.651  13.928 -0.1209  0.0336 -0.1112
 3832W        W23366  16.733  11.267   1.451  0.2000  0.1320 -0.0451
 3833W        W23367   4.266   2.864   1.214  0.0408  0.1423  0.0323
 3834W        W23368  11.602  14.136  14.059 -0.2097  0.0168  0.0282
 3835W        W23369  15.857   4.975   4.234 -0.1989  0.1787 -0.1084
 3836W        W23370   1.379   9.882   0.194  0.3078  0.0505 -0.2153
 3837W        W23371  17.118   8.667  14.187 -0.0093 -0.2346 -0.3759
 3838W        W23372  12.558  10.651  17.011  0.0145  0.1511  0.1741
 3839W        W23373  11.949   9.420  14.489 -0.2836 -0.1204 -0.0189
 3840W        W23374   9.467   4.938   1.891  0.0933  0.4677  0.0553
 3841W        W23375  15.380  17.081  15.710 -0.0719  0.4169 -0.1071
 3842W        W23376   2.925   9.839   1.568 -0.1184 -0.1457 -0.0949
 3843W        W23377  17.415   9.587  13.955  0.3551  0.2765  0.1311
 3844W        W23378  13.972   6.696   4.347  0.0175  0.1003 -0.4905
 3845W        W23379  13.239  16.618  15.008  0.0692  0.2056  0.1351
 3846W        W23380   3.744   9.095   0.617 -0.1895 -0.1589 -0.1226
 3847W        W23381   3.597  16.465   3.196  0.0264  0.0509  0.0926
 3848W        W23382   2.542   2.000   5.568  0.1648 -0.0165  0.0454
 3849W        W23383  14.066  11.207  12.975  0.5441  0.0269  0.0457
 3850W        W23384   0.777   2.977   2.195  0.0643 -0.0686 -0.3562
 3851W        W23385   3.005   0.201   3.934 -0.4684 -0.1159  0.1189
 3852W        W23386  10.204  12.079  15.783 -0.0511  0.0506 -0.0168
 3853W        W23387  13.494  10.937   2.412  0.0855 -0.1889  0.1488
 3854W        W23388   7.396  17.283   1.959  0.3718 -0.0506 -0.1514
 3855W        W23389  14.498  11.642   4.100  0.0442  0.3989 -0.1035
 3856W        W23390   1.770  11.575  15.935  0.0794 -0.1455  0.3186
 3857W        W23391   6.852   1.569   2.716 -0.1725 -0.0788  0.0862
 3858W        W23392  13.229   9.316   0.248  0.0212  0.2257 -0.2694
 3859W        W23393   7.084   2.177   0.048  0.1811  0.0610 -0.0304
 3860W        W23394  16.620  11.823  11.963  0.2570  0.0197 -0.0327
 3861W        W23395   0.832   9.947  16.653  0.1412  0.1581 -0.3222
 3862W        W23396  15.361  14.630   3.763  0.2629  0.3091 -0.2405
 3863W        W23397   4.067  17.585   3.880 -0.1213 -0.1053  0.0748
 3864W        W23398   9.784   4.253   4.085  0.1866  0.1230  0.1404
 3865W        W23399  16.823   2.410  17.040  0.2667 -0.2149  0.0803
 3866W        W23400   8.705  10.943   2.846  0.0232  0.1513 -0.1264
 3867W        W23401  17.042  17.172   0.575 -0.0570  0.0311  0.0554
 3868W        W23402   6.059   9.986   3.508  0.0217  0.1219  0.0457
 3869W        W23403   4.273   0.028   0.582  0.0550 -0.1661 -0.1188
 3870W        W23404  13.729   7.730  16.335  0.0079  0.2192  0.2443
 3871W        W23405   2.033   8.248   2.448 -0.1689  0.2197 -0.3460
 3872W        W23406   6.685  16.010  13.322  0.1620  0.0684  0.1661
 3873W        W23407  13.826   7.363  15.041 -0.0074 -0.1869 -0.1653
 3874W        W23408  13.116  14.384  14.991  0.0016  0.1992  0.2422
 3875W        W23409   7.433   0.742   1.283 -0.0230  0.0974 -0.1192
 3876W        W23410  10.347   4.061  16.499  0.2450  0.2037  0.0397
 3877W        W23411   5.654   7.189  14.182 -0.4268  0.2727  0.0642
 3878W        W23412   2.875   7.695   1.498 -0.0462  0.0562  0.0666
 3879W        W23413   1.234   1.936  14.393  0.2776 -0.1433 -0.3003
 3880W        W23414   4.659  16.476   2.131  0.1874 -0.4277 -0.0809
 3881W        W23415   8.934   1.102  15.028  0.1003  0.1007  0.0269
 3882W        W23416   5.140  15.114   4.617  0.3194 -0.0010  0.1238
 3883W        W23417   5.142   9.860  16.089 -0.1084  0.0461  0.0626
 3884W        W23418   8.262   8.068   1.125 -0.1686  0.0385  0.0047
 3885W        W23419  14.405   8.447   2.009  0.2034 -0.0561 -0.1782
 3886W        W23420   7.827  14.759   3.850  0.3138  0.1101 -0.0470
 3887W        W23421   7.701   7.279   3.223  0.2481 -0.1912 -0.2362
 3888W        W23422   7.153   3.073   4.450  0.0324 -0.0676 -0.0609
 3889W        W23423   7.169   6.470   1.059  0.1438  0.0869 -0.0878
 3890W        W23424   3.247   5.016   4.527 -0.0523  0.1882  0.0267
 3891W        W23425  17.066   3.590   0.224  0.0899  0.2063 -0.1994
 3892W        W23426   8.604  12.861   4.654  0.1220  0.0261  0.0523
 3893W        W23427  15.828  15.364   2.715 -0.1714 -0.1936 -0.0970
 3894W        W23428  10.992  15.041   2.442 -0.0218  0.0410 -0.2261
 3895W        W23429   6.196   9.548   0.907 -0.2289  0.1818 -0.0958
 3896W        W23430  11.677  13.499   1.336 -0.1451 -0.0699  0.1175
 3897W        W23431  12.917  15.064   4.389  0.1398 -0.1729 -0.0830
 3898W        W23432  15.467   0.315   4.578  0.2996 -0.2137 -0.3482
 3899W        W23433  17.387  16.025   3.574  0.1383  0.0592  0.2147
 3900W        W23434  10.228  11.692  14.790 -0.1280 -0.0910 -0.1818
 3901W        W23435   9.606   7.439  13.083  0.1359  0.0838 -0.0070
 3902W        W23436  16.040   2.206   3.352 -0.1062  0.3110 -0.1075
 3903W        W23437  11.455  16.516   0.432 -0.0541  0.1172 -0.1153
 3904W        W23438  14.461   3.199   3.259 -0.1156 -0.1792 -0.0905
 3905W        W23439   8.875  14.832  15.410  0.0682 -0.2283  0.0277
 3906W        W23440  17.206  13.890   1.719  0.0171  0.0007  0.0107
 3907W        W23441   7.947  15.591  13.141  0.1616 -0.0142  0.1652
 3908W        W23442   1.603   7.029   4.601  0.4282  0.0874  0.1512
 3909W        W23443  11.265   5.691  13.010  0.0737  0.1589  0.1431
 3910W        W23444  11.078  15.523   2.752  0.0392  0.1025 -0.1210
 3911W        W23445   9.471  10.862   4.563  0.0264 -0.0672 -0.2171
 3912W        W23446   3.098  12.855  14.147  0.2343  0.0185 -0.2207
 3913W        W23447  17.467  17.378  13.516  0.1294  0.0172 -0.1120
 3914W        W23448   8.499   8.648  13.243  0.0109  0.0263  0.2401
 3915W        W23449   1.215   4.110  16.502 -0.1187  0.1655  0.0067
 3916W        W23450   2.147  16.119  12.755 -0.0124  0.0347 -0.0356
 3917W        W23451   1.426   1.069   3.548 -0.0442  0.0784 -0.0500
 3918W        W23452  14.421  10.797   1.752  0.1606 -0.1401  0.0578
 3919W        W23453   5.997  16.202   1.017 -0.3156 -0.2154 -0.0025
 3920W        W23454  15.341   8.831   1.828 -0.1774 -0.1070  0.1586
 3921W        W23455   6.350   2.150  12.139  0.1166  0.3969  0.2174
 3922W        W23456   2.416   7.581   2.628  0.0109  0.2652  0.2175
 3923W        W23457  15.468  11.128  14.070 -0.1318  0.1296  0.0676
 3924W        W23458  11.452  15.379  14.949 -0.1625 -0.0888  0.1800
 3925W        W23459   6.838  14.123  15.580 -0.1762  0.0967 -0.2837
 3926W        W23460  16.777   8.167  12.718 -0.1101 -0.2730 -0.0676
 3927W        W23461  16.052   4.804  15.870 -0.0674  0.1149  0.1283
 3928W        W23462   6.134  11.965   5.011 -0.1334 -0.2467  0.2221
 3929W        W23463   8.097  14.477  12.864 -0.3305 -0.1612 -0.1229
 3930W        W23464   1.013  16.937  13.666  0.1922 -0.2628  0.0399
 3931W        W23465  15.916   0.741   3.894  0.2594 -0.0166  0.0047
 3932W        W23466  16.223   8.446   2.791  0.1032  0.1260  0.2559
 3933W        W23467  17.168   9.629  12.135  0.0592  0.0584  0.0425
 3934W        W23468   5.098   6.500   4.804  0.1191  0.1360  0.0582
 3935W        W23469   6.726  16.724  12.095  0.3531 -0.1021 -0.2207
 3936W        W23470   8.890  14.372   2.480 -0.0139  0.1944 -0.1179
 3937W        W23471   0.148  16.196   0.414  0.2536  0.1980 -0.0565
 3938W        W23472   6.903  15.383  12.645  0.4049 -0.0538 -0.1226
 3939W        W23473  15.606  11.272  14.552 -0.0071  0.0209 -0.1160
 3940W        W23474   3.111   5.941   4.465  0.2694 -0.1000 -0.0725
 3941W        W23475   0.943  10.111   3.933 -0.1802  0.0260  0.5557
 3942W        W23476   1.857   9.939  15.481  0.1849  0.0407  0.2717
 3943W        W23477  17.096  16.079   4.092  0.2277  0.3617  0.0227
 3944W        W23478   9.284   6.860  15.787  0.2391 -0.2242 -0.0466
 3945W        W23479   2.871  17.657   0.932  0.0013 -0.0479  0.0937
 3946W        W23480  12.825   3.584  13.843  0.0150 -0.2245 -0.1612
 3947W        W23481  16.935   2.459   4.479 -0.2239  0.0643 -0.0063
 3948W        W23482  15.893  10.375  11.841 -0.0470 -0.1606 -0.1217
 3949W        W23483   0.192   5.646   2.533 -0.0719  0.1076  0.0435
 3950W        W23484   2.312   2.146  12.449  0.1228 -0.1594  0.0314
 3951W        W23485   3.948  16.743   0.321  0.0077 -0.0881 -0.1929
 3952W        W23486   3.047   6.158  11.761  0.2065  0.0459  0.0764
 3953W        W23487   4.984   8.923  15.201  0.3500  0.2425  0.0817
 3954W        W23488   9.694   1.693   2.632 -0.0987  0.3255 -0.1191
 3955W        W23489   1.321   0.715   1.210 -0.0955  0.0751 -0.1368
 3956W        W23490   3.149  12.682   2.659  0.0379  0.0360 -0.2903
 3957W        W23491  17.511   6.761  10.920 -0.0534 -0.0627 -0.1095
 3958W        W23492   1.143  10.206   4.434 -0.0942  0.0725 -0.3101
 3959W        W23493   8.812   3.159  16.445  0.0765  0.1011  0.0135
 3960W        W23494   2.527   5.123  14.116  0.1886  0.1609 -0.2077
 3961W        W23495   6.859  17.389   2.987  0.1982  0.2760  0.2258
 3962W        W23496   1.475   7.344   3.532  0.1837 -0.2356 -0.2751
 3963W        W23497   3.982  13.920  15.894 -0.1245 -0.1529  0.1703
 3964W        W23498  10.172   6.716  15.034 -0.1893  0.0892 -0.1598
 3965W        W23499   2.812  16.242  16.965 -0.0764  0.0666 -0.0186
 3966W        W23500  16.794   4.541   4.380  0.1764  0.0109  0.0130
 3967W        W23501   2.169  17.299  13.266 -0.0323 -0.0299 -0.1173
 3968W        W23502   6.328   7.438   2.719  0.0224 -0.0650 -0.2849
 3969W        W23503   7.711   7.727  15.262 -0.2533  0.0465 -0.0612
 3970W        W23504  13.876  15.851   2.635  0.1569  0.0517 -0.3799
 3971W        W23505  15.844  11.601   3.904  0.0010  0.2538 -0.3998
 3972W        W23506  11.223   4.377  16.977 -0.0721  0.0066 -0.1348
 3973W        W23507   5.790   5.598   3.633 -0.1874 -0.2821 -0.0910
 3974W        W23508  14.026  17.166   3.953 -0.3278  0.3120  0.0312
 3975W        W23509  13.320   3.923  12.171 -0.1418  0.1272 -0.1703
 3976W        W23510  10.858  11.762  12.637  0.0319 -0.1207 -0.3686
 3977W        W23511   3.305  14.241   0.510 -0.1414  0.0348  0.2504
 3978W        W23512   6.125  12.465   2.382  0.0483 -0.2019  0.2065
 3979W        W23513  16.035   2.918   4.514 -0.2145 -0.2457 -0.1859
 3980W        W23514   5.363   7.712   4.638  0.1776  0.1341  0.0501
 3981W        W23515   5.177  11.616  12.836  0.0524  0.0200  0.6714
 3982W        W23516   8.483   2.106  13.072 -0.0289  0.1246 -0.0494
 3983W        W23517   4.565   3.326  16.873  0.0008 -0.1913  0.1508
 3984W        W23518  15.232  11.666   0.668 -0.0363 -0.3361  0.0040
 3985W        W23519   9.688   1.201   1.287  0.1879 -0.0974 -0.1489
 3986W        W23520  12.360  12.591   0.570 -0.1648 -0.1380  0.1216
 3987W        W23521  13.603  11.991   4.987 -0.1884 -0.4737 -0.2024
 3988W        W23522   8.837  16.064  13.354  0.3975 -0.0208  0.1609
 3989W        W23523   7.821   6.144  14.877  0.0686 -0.0298 -0.3096
 3990W        W23524  11.785   3.278  12.667 -0.0267 -0.2958  0.0364
 3991W        W23525  11.242  15.573   3.276  0.3109 -0.1929 -0.0812
 3992W        W23526  12.859   6.520  13.110 -0.1550 -0.1433  0.3243
 3993W        W23527  10.580  15.071   2.771  0.1361  0.1161  0.1592
 3994W        W23528  11.416  17.084  13.786  0.1800 -0.2482 -0.2447
 3995W        W23529   3.880  11.683  12.482 -0.2119  0.2495  0.1903
 3996W        W23530   8.932   0.032   4.303  0.1352 -0.1884  0.1509
 3997W        W23531   0.772   5.430  16.355 -0.1711  0.0039 -0.2883
 3998W        W23532  11.751  10.381  16.179  0.0684 -0.3120  0.0298
 3999W        W23533  13.667   5.164   3.539 -0.0734  0.1820 -0.3304
 4000W        W23534   6.525   7.581  12.597  0.3341 -0.0750  0.3018
 4001W        W23535   8.720   0.312  12.592  0.0518  0.1645 -0.1970
 4002W        W23536  14.186   7.789   4.482  0.0307 -0.0122 -0.4191
 4003W        W23537  14.309   3.787   3.416 -0.2455  0.0999 -0.2158
 4004W        W23538   9.718   1.667  13.016 -0.0571 -0.0971  0.4007
 4005W        W23539   1.836   0.228   5.315 -0.1280  0.0414  0.1300
 4006W        W23540   2.757  17.138   4.443 -0.2858  0.0058 -0.0901
 4007W        W23541   2.530   6.697   4.768  0.0999 -0.1662 -0.0784
 4008W        W23542   3.582   5.232  13.282 -0.0022 -0.1873  0.2170
 4009W        W23543   3.658   3.818   1.744 -0.0973  0.0607  0.3147
 4010W        W23544   7.007   0.955  12.544 -0.0254 -0.0443  0.2088
 4011W        W23545  13.938   1.727   4.887  0.3004  0.1825 -0.0937
 4012W        W23546  11.168  17.116   1.509  0.3150  0.0252 -0.0481
 4013W        W23547  14.247  11.317  16.121 -0.0202 -0.2482 -0.0353
 4014W        W23548  13.704  12.971  16.044 -0.3742  0.3185  0.1303
 4015W        W23549   8.567   2.999  13.685  0.0687 -0.1088 -0.0774
 4016W        W23550   7.886   1.205   1.023 -0.4143 -0.0926 -0.1642
 4017W        W23551   9.815  16.830  14.553  0.1310  0.4910 -0.0651
 4018W        W23552  13.201   8.896  16.742 -0.1363  0.1276  0.0592
 4019W        W23553  13.743  10.156  16.944 -0.0767  0.5334 -0.0597
 4020W        W23554   8.935   0.872  15.792 -0.0681  0.2691 -0.2071
 4021W        W23555   2.127   6.323   3.149 -0.1072 -0.1993  0.0387
 4022W        W23556   3.281   5.658  13.326  0.2555 -0.0196  0.0163
 4023W        W23557   1.250   6.368  12.826 -0.2176 -0.0702  0.2001
 4024W        W23558   1.929  14.659   1.615 -0.0031 -0.2389 -0.1440
 4025W        W23559  17.296   5.604   2.397 -0.3709  0.0387 -0.1830
 4026W        W23560   0.307  13.942   2.147  0.2694  0.0295 -0.1404
 4027W        W23561  17.546  13.214   3.263  0.2913  0.1473  0.0560
 4028W        W23562  12.812  16.215  14.906  0.0255 -0.0361 -0.4034
 4029W        W23563  16.109  10.363   2.242  0.2072 -0.0936 -0.1037
 4030W        W23564  11.160  11.059  15.650  0.2147  0.0680  0.1485
 4031W        W23565   1.178   6.050  15.936  0.2469  0.1082 -0.0829
 4032W        W23566   9.818  16.734   1.092 -0.0948  0.0141  0.3396
 4033W        W23567  17.515   8.600  12.280  0.0405 -0.0994 -0.1357
 4034W        W23568   1.423   0.541   0.238  0.0273 -0.0632  0.2250
 4035W        W23569  10.870  11.078   0.330  0.2202  0.0264 -0.3500
 4036W        W23570   4.872   7.471   4.579  0.3895  0.3850 -0.1046
 4037W        W23571   0.976   0.605   0.834 -0.1296  0.3083 -0.0471
 4038W        W23572  11.403  11.631  11.819  0.0654  0.1828 -0.2454
 4039W        W23573  17.300  15.556   0.192  0.1369 -0.3200 -0.0512
 4040W        W23574   5.737  10.837  13.805  0.0743 -0.0514 -0.1967
 4041W        W23575  13.080   3.974   5.185  0.2435 -0.1441 -0.1821
 4042W        W23576   5.135  11.844  12.284 -0.1770 -0.0541  0.2680
 4043W        W23577  14.925  16.573  13.781  0.0637 -0.0702  0.1460
 4044W        W23578  13.391  15.162   2.075  0.1610 -0.1319  0.0651
 4045W        W23579  15.048  14.770  13.980  0.0283 -0.0901  0.1511
 4046W        W23580   7.811   6.407   2.986 -0.1490  0.4112  0.2687
 4047W        W23581   0.133   2.330   3.367  0.2493  0.0717 -0.1059
 4048W        W23582   6.754  17.505   0.750 -0.2009 -0.0854 -0.4247
 4049W        W23583   8.870  13.536   0.375  0.0115 -0.0405 -0.1843
 4050W        W23584   3.734   5.210   4.738 -0.2183 -0.0673 -0.1880
 4051W        W23585  13.461   3.341   0.128 -0.2716  0.1324 -0.1096
 4052W        W23586   8.882  14.877   2.722  0.1904  0.1743  0.3765
 4053W        W23587  10.412   8.847  12.267  0.0523 -0.3006  0.2716
 4054W        W23588  10.005  16.686   2.745 -0.1074 -0.0911  0.1853
 4055W        W23589   5.623   9.081  16.065  0.0627 -0.0587 -0.3419
 4056W        W23590   6.163   6.108  13.609 -0.0807 -0.2539 -0.1232
 4057W        W23591   0.062   3.046   2.873  0.0827  0.2059  0.1752
 4058W        W23592  12.359  15.102   4.295 -0.0027 -0.0387 -0.2442
 4059W        W23593   9.711   2.343  16.334  0.0430 -0.3544  0.0943
 4060W        W23594   1.164  13.386   4.252  0.1767  0.0892 -0.1706
 4061W        W23595   2.188   3.061  14.918  0.2589 -0.0508  0.1713
 4062W        W23596   4.537   5.003  14.822  0.0350 -0.1040 -0.0153
 4063W        W23597   4.489  13.459  14.301  0.0693 -0.1904 -0.4132
 4064W        W23598   2.444   9.163  16.924  0.1358 -0.0639  0.0309
 4065W        W23599   0.112  17.309   3.365  0.0132  0.1707 -0.2759
 4066W        W23600   6.240   8.300   4.617 -0.0679 -0.3370  0.0280
 4067W        W23601   7.118   2.543  14.691  0.0810  0.1145 -0.1953
 4068W        W23602   7.063   0.215  14.747 -0.1794 -0.0375  0.0783
 4069W        W23603   3.045  10.247  12.038 -0.2396  0.1030  0.1964
 4070W        W23604  11.100  14.385  15.072  0.1260 -0.1562  0.2668
 4071W        W23605  14.008   3.452   3.322  0.0580 -0.0641 -0.2640
 4072W        W23606   2.851  13.140   2.404 -0.1718  0.2652 -0.2323
 4073W        W23607  12.616  11.717   0.121  0.1586 -0.1210  0.1400
 4074W        W23608   0.299  12.882  11.638  0.1719  0.0534  0.1722
 4075W        W23609   5.322   7.334   0.113 -0.2096  0.2650 -0.0564
 4076W        W23610   4.731  12.626   0.536  0.0208 -0.1308  0.0615
 4077W        W23611  11.562   1.947  12.383 -0.1429  0.0435  0.0966
 4078W        W23612  12.807  10.870   3.423  0.1117 -0.3072 -0.2872
 4079W        W23613  14.910  13.533  14.642 -0.3582  0.0071  0.0133
 4080W        W23614   5.250   2.457   1.288  0.1199  0.0849  0.1625
 4081W        W23615   3.122   3.923  12.848  0.1915 -0.2686  0.1017
 4082W        W23616  13.265  12.431   1.989  0.2198 -0.1600 -0.1542
 4083W        W23617   0.112  15.271  13.250 -0.0466 -0.3880  0.1600
 4084W        W23618  14.556  13.795  13.183 -0.0159 -0.2464 -0.1717
 4085W        W23619   6.551   3.277  15.010 -0.1049 -0.0838 -0.1784
 4086W        W23620   4.550   1.315  12.825 -0.1512  0.5642 -0.0435
 4087W        W23621   1.556   6.628   2.802 -0.1131  0.2152 -0.0700
 4088W        W23622   0.906  11.359  12.422  0.1804 -0.0839  0.0983
 4089W        W23623   5.842  11.601  15.703 -0.0674 -0.1771  0.2392
 4090W        W23624  16.624   3.774  15.039 -0.0749  0.0648 -0.2271
 4091W        W23625  16.408  17.389  15.566 -0.3101  0.1577 -0.1991
 4092W        W23626   5.570  14.936  14.437 -0.1718  0.1246 -0.0986
 4093W        W23627  17.161  16.363   1.841  0.2125 -0.1645  0.2940
 4094W        W23628   0.385  17.546   1.026 -0.0349 -0.2153  0.2024
 4095W        W23629   4.474  13.785   4.146 -0.0913  0.0062  0.2421
 4096W        W23630  14.755   4.570   3.220 -0.1383 -0.1028  0.1265
 4097W        W23631   5.741  10.880  15.006 -0.0359 -0.0570  0.0740
 4098W        W23632  17.231  10.907   4.379  0.0861 -0.1554 -0.1689
 4099W        W23633   7.577   3.594   2.569 -0.2944  0.2579 -0.0714
 4100W        W23634  17.198   0.036   3.940  0.1074 -0.2641 -0.0821
 4101W        W23635  11.544   4.024  14.325  0.0163  0.1376  0.0961
 4102W        W23636   3.379  16.117  13.887 -0.0813 -0.0347  0.0006
 4103W        W23637   4.414  10.619   3.380 -0.1959 -0.0667  0.0968
 4104W        W23638  11.528   1.171   3.188 -0.0132 -0.3215 -0.1354
 4105W        W23639  14.811  16.036  16.754 -0.0509  0.0814 -0.0191
 4106W        W23640   6.231  14.223   4.262 -0.0126 -0.3319  0.2023
 4107W        W23641   6.814  13.549   0.284  0.0224 -0.1788  0.0577
 4108W        W23642  14.382  10.851  14.151 -0.0518 -0.0789  0.1244
 4109W        W23643   0.319  14.215  16.430 -0.0656 -0.1823 -0.2511
 4110W        W23644  13.624   1.610  13.606  0.0133 -0.0372 -0.1501
 4111W        W23645  11.887   0.454   2.406  0.1341 -0.0901 -0.1592
 4112W        W23646   4.816  13.993  16.663  0.0530  0.1029 -0.1241
 4113W        W23647  13.182   7.241   4.921 -0.1169 -0.1561 -0.1348
 4114W        W23648   9.939   4.687  16.755  0.2662 -0.3410 -0.1610
 4115W        W23649  16.258  17.149  14.422 -0.0818 -0.0547 -0.0763
 4116W        W23650  14.422   8.308  13.763  0.0425  0.0708 -0.1043
 4117W        W23651  15.028  17.240   0.772  0.3537 -0.0592  0.3896
 4118W        W23652  14.063   8.570  12.635 -0.0526  0.1005 -0.0811
 4119W        W23653   3.772  13.522  14.105 -0.1177 -0.2019  0.1007
 4120W        W23654   7.984  13.810  14.446 -0.2316  0.1598 -0.2622
 4121W        W23655   9.673  15.934  12.972  0.2023  0.1412 -0.1862
 4122W        W23656  14.519  16.748  15.817  0.1201  0.4130 -0.1900
 4123W        W23657  11.112  10.838  16.639 -0.3170 -0.1641  0.0162
 4124W        W23658  17.013  17.285   3.834  0.3349 -0.1642 -0.1059
 4125W        W23659   1.171  11.178  16.931  0.0882  0.1990  0.3034
 4126W        W23660  10.422   5.262   2.127 -0.2209  0.5625  0.1661
 4127W        W23661   5.058  16.913  12.116 -0.1810 -0.3339 -0.0018
 4128W        W23662   4.305   4.039  13.596  0.1861 -0.1451 -0.0128
 4129W        W23663   3.869   3.183   4.219 -0.2814 -0.0173  0.1382
 4130W        W23664  14.326  10.060   4.215  0.0242  0.0922  0.0167
 4131W        W23665  14.522   7.110   0.318 -0.0195 -0.2893 -0.0957
 4132W        W23666   0.949  16.618  13.181 -0.0444 -0.1503  0.2384
 4133W        W23667  11.918   7.218  15.209 -0.2324 -0.0360  0.0642
 4134W        W23668   0.551  11.107   4.168  0.1608  0.1093 -0.0081
 4135W        W23669   4.811   4.003  15.689 -0.0295 -0.0173  0.2825
 4136W        W23670   3.036  14.787   3.458  0.4092  0.2495 -0.0983
 4137W        W23671   6.735   3.430   0.539 -0.2716 -0.3838 -0.0544
 4138W        W23672   9.140   1.681  16.676 -0.1011  0.0333  0.0961
 4139W        W23673   5.765   7.068  16.069  0.0690  0.2066 -0.0527
 4140W        W23674   5.639  16.438   1.254  0.2914 -0.4025  0.2745
 4141W        W23675  13.414  14.336  13.058 -0.1176 -0.0687 -0.0178
 4142W        W23676   6.618   3.873  12.470  0.1836 -0.0470 -0.2623
 4143W        W23677   3.319  14.017   2.340 -0.2200 -0.0837  0.0624
 4144W        W23678  16.803   6.481   1.214 -0.2814 -0.0207  0.0895
 4145W        W23679   0.724  13.008  11.376 -0.1466  0.2354  0.1846
 4146W        W23680  11.712  15.351   1.272  0.0654  0.2198  0.2853
 4147W        W23681   4.818  13.508  12.119 -0.2364  0.3186  0.1102
 4148W        W23682  14.466  11.997   0.082  0.1522  0.2691 -0.0034
 4149W        W23683   3.136   1.123   0.083 -0.3996  0.0158 -0.0129
 4150W        W23684  15.675  11.366   3.465  0.2388  0.0209 -0.2082
 4151W        W23685   3.249   6.529  12.037  0.0222  0.0799 -0.1005
 4152W        W23686   5.868  15.282   2.079  0.2366  0.3557  0.3525
 4153W        W23687  10.488   8.189   1.868 -0.0126  0.3653  0.0878
 4154W        W23688   7.268   3.365  15.045  0.0476 -0.3276 -0.2327
 4155W        W23689  14.250   4.543   2.702  0.0316 -0.0986  0.0205
 4156W        W23690   3.190  11.451  15.398  0.1822  0.1799 -0.2967
 4157W        W23691  11.923   2.073   2.574 -0.0743 -0.4048 -0.0372
 4158W        W23692   7.456   1.964  16.070  0.2187  0.0576 -0.3325
 4159W        W23693  11.793   2.643  15.335 -0.1547  0.2008  0.0433
 4160W        W23694   5.170  12.276   4.317 -0.4840  0.1706 -0.0343
 4161W        W23695  17.102   8.185  16.517 -0.1854  0.1333 -0.0290
 4162W        W23696  12.320   0.236   0.684  0.0420 -0.0540  0.0402
 4163W        W23697   8.215   5.990   2.023  0.0073  0.0744 -0.2420
 4164W        W23698   9.218   1.315  14.146  0.0269  0.1106 -0.1838
 4165W        W23699   7.686   5.137  15.011  0.0340 -0.1912 -0.2801
 4166W        W23700   0.820  14.535   3.904  0.1038 -0.0049 -0.1493
 4167W        W23701   3.637   0.037  16.480  0.1405  0.2997  0.2047
 4168W        W23702   4.494  11.521  15.528  0.0163 -0.0555  0.1517
 4169W        W23703   9.756   7.626  15.947 -0.1924 -0.0296  0.3320
 4170W        W23704   9.147   9.269   1.648 -0.1613  0.0363  0.3775
 4171W        W23705   3.603  13.615  16.618 -0.3192  0.0903 -0.0780
 4172W        W23706  16.062   4.153  12.878  0.2126 -0.2612  0.2198
 4173W        W23707  16.182   1.813   1.098  0.2191 -0.2312  0.2900
 4174W        W23708  10.468  16.158   2.008 -0.0683 -0.1006 -0.0857
 4175W        W23709   0.168  11.045   1.570  0.0079 -0.1958  0.0868
 4176W        W23710  16.940  11.037   3.929  0.0064 -0.3847 -0.0964
 4177W        W23711   3.637  10.152   4.458 -0.1169 -0.0288 -0.2496
 4178W        W23712   0.942   2.406   3.024 -0.0217 -0.1773 -0.0782
 4179W        W23713   6.583   4.135  15.885 -0.0094 -0.1246  0.0811
 4180W        W23714  10.686  14.095  13.796 -0.0649  0.1187 -0.0991
 4181W        W23715  10.600  13.449   1.597 -0.0633 -0.2086  0.4427
 4182W        W23716   1.185   2.227  13.442 -0.0108 -0.0425 -0.1862
 4183W        W23717  12.170   7.768   2.732 -0.0179 -0.0379 -0.2065
 4184W        W23718   8.510   6.633   1.255 -0.0327 -0.1364  0.1564
 4185W        W23719  11.685   5.372  15.577 -0.0160 -0.1523 -0.1409
 4186W        W23720   1.991   7.279   2.953 -0.0632 -0.2330 -0.1912
 4187W        W23721  12.408  12.845   4.137 -0.2480  0.1949 -0.3120
 4188W        W23722   5.271   8.923  16.480 -0.3357 -0.3718  0.1327
 4189W        W23723  15.431   4.111  12.225  0.0423 -0.1927  0.0203
 4190W        W23724   7.080  15.683  16.110  0.6062 -0.0025 -0.3374
 4191W        W23725  13.436   5.586  14.859  0.0019 -0.0163 -0.1668
 4192W        W23726   7.128   1.405  14.437  0.1583  0.1249  0.3951
 4193W        W23727  11.628  15.054  17.072  0.2749 -0.4175 -0.0269
 4194W        W23728  14.231   0.922   1.863  0.0841 -0.0845  0.0889
 4195W        W23729  15.835  11.673   2.885  0.0751  0.0886 -0.0637
 4196W        W23730   7.732  12.222  12.886 -0.3208 -0.1260  0.1701
 4197W        W23731   9.630  10.472   3.991  0.2187  0.0570  0.0521
 4198W        W23732  14.174   9.041  12.819  0.1146 -0.1447  0.0534
 4199W        W23733   9.388  12.166   0.177  0.0476  0.0609  0.0999
 4200W        W23734  13.010   9.084   3.643  0.1148  0.3163 -0.1206
 4201W        W23735   5.221   0.972   1.085  0.0137 -0.1953 -0.3246
 4202W        W23736  15.813  13.577  13.441  0.3844 -0.1259 -0.1842
 4203W        W23737  10.084   1.306  15.586  0.1530 -0.0040  0.0386
 4204W        W23738  17.368   2.675   4.959  0.0674  0.0175  0.0070
 4205W        W23739   8.657   1.060   4.173  0.1747 -0.0260 -0.3471
 4206W        W23740   2.387   8.968   2.939 -0.1560  0.2372 -0.4156
 4207W        W23741   0.303   3.766  15.486 -0.0453  0.0455 -0.0835
 4208W        W23742   1.614   5.522  15.980 -0.3642  0.2329  0.0277
 4209W        W23743   6.986   5.144   1.061 -0.1079  0.2595 -0.2255
 4210W        W23744  15.399   2.563  14.142  0.1251  0.0673  0.1301
 4211W        W23745   2.752   3.420  13.478 -0.1356 -0.0029  0.0386
 4212W        W23746  13.160   7.903   2.194 -0.3028 -0.1982  0.0668
 4213W        W23747   3.973  10.537   2.423 -0.1783  0.0990  0.2644
 4214W        W23748   7.050  14.028  12.037 -0.0949 -0.2448  0.0731
 4215W        W23749   4.551   4.886   4.220  0.0346 -0.2983 -0.0243
 4216W        W23750  13.660   8.761  12.990 -0.2222 -0.0050 -0.0112
 4217W        W23751   5.766   0.758   1.717 -0.0621  0.0457 -0.1641
 4218W        W23752   0.941  14.946  12.201  0.0272  0.0347 -0.0937
 4219W        W23753   5.154  16.886  15.824  0.1286 -0.0712 -0.1030
 4220W        W23754   2.574  13.416  13.541  0.0162  0.2483 -0.0057
 4221W        W23755   9.258  16.106   2.766 -0.1380  0.0818 -0.0158
 4222W        W23756  10.943   5.366   0.864  0.0043  0.1196 -0.1503
 4223W        W23757  13.858  13.603  12.440  0.2582 -0.1660  0.0857
 4224W        W23758  12.686  17.391   1.951  0.1431 -0.1729  0.0589
 4225W        W23759  14.090  15.045   4.829 -0.0203  0.1497  0.3696
 4226W        W23760  10.314   0.874  16.946 -0.0582  0.1783  0.3303
 4227W        W23761   9.775   9.067   1.268 -0.1605  0.0183 -0.1569
 4228W        W23762  15.985   8.522   4.966  0.0125  0.0580  0.0610
 4229W        W23763   8.585   0.269   3.938 -0.2005  0.0063  0.5064
 4230W        W23764   0.132   3.928   4.716 -0.1581 -0.1099 -0.0165
 4231W        W23765  13.070   5.698   5.594 -0.5786 -0.2840 -0.0019
 4232W        W23766   5.297  11.232  14.999 -0.0760  0.1785  0.1206
 4233W        W23767  12.203   2.865   3.374  0.0556 -0.0251  0.2242
 4234W        W23768  15.975   5.696  16.241  0.0736  0.0584 -0.0260
 4235W        W23769  14.655   0.748  15.243 -0.0708 -0.0313 -0.1982
 4236W        W23770   1.812  13.868   2.626 -0.1462  0.0935  0.0887
 4237W        W23771   0.819  11.363  15.712  0.3149 -0.3011 -0.2080
 4238W        W23772  16.966   1.506   0.319 -0.0373  0.1225  0.0486
 4239W        W23773  16.479   8.539   2.377 -0.2298 -0.2834 -0.1148
 4240W        W23774   6.943   3.649  12.175 -0.0740  0.1245  0.0604
 4241W        W23775   5.626  17.275  14.968  0.1934  0.0102  0.1323
 4242W        W23776   7.261  16.978  13.767 -0.3143  0.2486 -0.2283
 4243W        W23777   9.322   9.035  15.487  0.0270 -0.2609 -0.0304
 4244W        W23778   2.122   7.615  13.634  0.0718  0.0624 -0.0006
 4245W        W23779   7.701   8.887  13.463 -0.0230  0.1132 -0.0122
 4246W        W23780  13.069   1.790   3.516 -0.0262 -0.2296  0.2468
 4247W        W23781   6.795   8.298  14.812  0.0590  0.0539 -0.0267
 4248W        W23782  13.367   7.759   0.428 -0.0557 -0.1012  0.0898
 4249W        W23783   2.982   6.198  12.272 -0.2874  0.1304 -0.0126
 4250W        W23784   1.280   9.551   5.207 -0.0226  0.2285  0.0575
 4251W        W23785   2.738   2.341   4.163 -0.1462 -0.0204 -0.0806
 4252W        W23786  13.167   5.242  16.810  0.0006 -0.2717  0.3559
 4253W        W23787   9.529  14.257  15.828 -0.0314 -0.0877 -0.0771
 4254W        W23788  16.288  13.767  13.689  0.0083  0.1950  0.5797
 4255W        W23789   5.571   5.599   1.781 -0.1930  0.0040  0.2112
 4256W        W23790   8.670  15.146   1.550  0.0077 -0.2664  0.2190
 4257W        W23791  10.426  12.695  13.470  0.1021  0.2211 -0.2302
 4258W        W23792   4.743   0.196   3.655 -0.1602 -0.2393  0.0579
 4259W        W23793  15.629   6.631  12.545  0.1049 -0.3238  0.2156
 4260W        W23794   7.856  12.114   1.179 -0.0595  0.0946  0.0627
 4261W        W23795   8.248  12.136   1.478 -0.1629 -0.0636 -0.1612
 4262W        W23796   2.317  12.572  14.438 -0.1269  0.0346 -0.0172
 4263W        W23797  10.330   1.710  14.815 -0.0731  0.0004 -0.0446
 4264W        W23798   8.128  12.257  12.506  0.0537 -0.3814  0.0091
 4265W        W23799  12.245  17.085  15.618  0.1524 -0.0669 -0.0131
 4266W        W23800   2.336   3.199   0.799 -0.0096 -0.0179 -0.0991
 4267W        W23801  16.161   4.032   0.116 -0.1685  0.2425  0.0103
 4268W        W23802  14.197  10.581   4.090 -0.2066 -0.0750 -0.2088
 4269W        W23803  14.614   0.221  16.713 -0.2661  0.0579 -0.1064
 4270W        W23804   8.105   6.720  13.149 -0.0255 -0.3575  0.0445
 4271W        W23805   8.712   9.299   3.428  0.0183 -0.1089 -0.1844
 4272W        W23806   7.414  11.790   2.010 -0.0635  0.2777  0.0998
 4273W        W23807   1.716   2.708   0.641 -0.1798  0.0784  0.2702
 4274W        W23808   1.483  12.955   3.016  0.4654 -0.0977  0.1337
 4275W        W23809   1.252  11.266   2.523 -0.0102  0.0841 -0.0722
 4276W        W23810   7.208  13.713  16.362  0.1087  0.1217  0.2049
 4277W        W23811   2.081   6.573  13.357  0.0019  0.0500 -0.0803
 4278W        W23812   0.534   0.313  14.628 -0.0517 -0.0649  0.0272
 4279W        W23813  16.105   4.387   3.436  0.0138  0.0994 -0.1881
 4280W        W23814   6.500  10.554  15.542 -0.0645 -0.2789  0.1364
 4281W        W23815   7.223  17.502  16.648 -0.0112 -0.1332  0.0700
 4282W        W23816   9.279  10.496  16.946  0.0136 -0.0777  0.1818
 4283W        W23817   1.854  14.076   0.405 -0.3088  0.2142 -0.0664
 4284W        W23818  11.535   0.555   0.910  0.1599 -0.0274 -0.0381
 4285W        W23819   6.120   3.986   4.735 -0.0187 -0.1941 -0.0418
 4286W        W23820   5.234   4.254   4.178 -0.0472 -0.1818  0.1473
 4287W        W23821   8.067   4.186   5.207 -0.2419  0.2816  0.0758
 4288W        W23822  15.314  17.554   1.718 -0.0965 -0.1637 -0.0552
 4289W        W23823  13.488  15.712  15.004  0.2458  0.1325 -0.0455
 4290W        W23824   3.875   7.297  12.348 -0.2677 -0.0772  0.4330
 4291W        W23825   2.882   5.053  14.520 -0.2559 -0.0589  0.0371
 4292W        W23826   2.730   6.903  13.523 -0.3047 -0.0363  0.0511
 4293W        W23827   0.860  11.391   4.486  0.2902 -0.2576 -0.1999
 4294W        W23828  15.261   3.913  13.561  0.0083 -0.2321  0.0537
 4295W        W23829   2.113  16.204   3.047 -0.2688 -0.1662  0.1837
 4296W        W23830   7.826  13.387   4.400  0.0034 -0.2655  0.1443
 4297W        W23831  12.228  10.270  16.925 -0.1242  0.0203 -0.0867
 4298W        W23832   8.949   7.468  13.844  0.3925  0.2230 -0.0344
 4299W        W23833  10.411  11.065  15.020  0.2474 -0.1357  0.0737
 4300W        W23834   5.665  13.965   3.339  0.1915  0.1803 -0.0384
 4301W        W23835   3.631  13.040  15.492  0.0307  0.1550  0.1329
 4302W        W23836  14.880   4.624   4.272  0.2018 -0.0667 -0.0915
 4303W        W23837  11.308  17.297  14.717 -0.0537 -0.1462  0.3550
 4304W        W23838  11.117   8.975  12.818  0.1950 -0.0568  0.0948
 4305W        W23839  12.818   5.993  12.941 -0.2368  0.0539 -0.0418
 4306W        W23840  10.798   3.432  14.781  0.0975 -0.1972  0.3115
 4307W        W23841  16.799   1.370   0.807  0.1863  0.0723  0.0944
 4308W        W23842   4.091  10.719   4.241  0.5196 -0.1072 -0.2416
 4309W        W23843   5.550   6.517   2.875 -0.2579  0.5243 -0.2946
 4310W        W23844   9.663   8.580   2.715  0.1134  0.0365  0.4595
 4311W        W23845   8.799   1.601  12.834  0.2168 -0.1460 -0.2900
 4312W        W23846   5.265   2.229   0.683  0.0501 -0.3494 -0.1970
 4313W        W23847   2.225  16.791  16.389  0.0715 -0.0592 -0.0007
 4314W        W23848   1.598   3.722  12.582 -0.4569 -0.0327 -0.1166
 4315W        W23849   2.522  10.441   0.977 -0.0506 -0.2275  0.2075
 4316W        W23850  12.198   6.531   4.823 -0.1605  0.3572  0.0951
 4317W        W23851   3.716  12.430  14.399 -0.0076 -0.2875  0.1398
 4318W        W23852   7.394  16.923   1.081 -0.0646 -0.2648 -0.2547
 4319W        W23853   4.297   9.701   2.790  0.0003  0.1583 -0.0603
 4320W        W23854   0.223   1.337   1.780 -0.2236 -0.0730 -0.0371
 4321W        W23855   7.916  15.584  14.613  0.1939  0.1465  0.0126
 4322W        W23856   6.845  10.418   3.914  0.2494 -0.2022  0.1829
 4323W        W23857   1.287   4.875   0.430 -0.3152  0.1381  0.0791
 4324W        W23858  13.151   5.031  15.951  0.0940 -0.2120 -0.0456
 4325W        W23859   4.166  13.000   2.677  0.1652  0.0236 -0.0445
 4326W        W23860  17.077  10.810   3.402  0.2043  0.0195  0.1693
 4327W        W23861   9.407   3.075   1.067  0.1035 -0.1340 -0.0682
 4328W        W23862   2.309   1.665  15.120  0.1597 -0.4722 -0.0202
 4329W        W23863   9.448   0.808  13.479  0.0132  0.3630  0.0405
 4330W        W23864   9.553  17.228  16.902  0.1059 -0.3725  0.0339
 4331W        W23865   9.298  11.362   3.674 -0.1984  0.2497  0.0903
 4332W        W23866   4.050  17.438  14.422  0.3348 -0.1796 -0.3502
 4333W        W23867  12.795   6.129   1.940 -0.1317  0.2835  0.0205
 4334W        W23868  16.967   1.357  13.483  0.1466 -0.1106  0.0398
 4335W        W23869  16.635   4.007  14.528 -0.1082  0.3840 -0.1072
 4336W        W23870   3.491  13.227   1.705  0.4603  0.2378  0.0838
 4337W        W23871  14.816  12.979   0.956  0.1571 -0.1853 -0.0677
 4338W        W23872  15.455  16.263   4.401 -0.1116 -0.2638  0.0407
 4339W        W23873   6.564  14.241  16.325 -0.0699 -0.2553  0.2755
 4340W        W23874   6.679  16.304   2.660 -0.1189  0.1272  0.0324
 4341W        W23875   8.712   6.212  15.912  0.0942 -0.2818  0.0247
 4342W        W23876  11.248   4.866  13.550 -0.0394 -0.0810  0.1796
 4343W        W23877  15.062   4.807  14.675 -0.2875  0.4209 -0.1055
 4344W        W23878  16.300  10.253   1.763 -0.1804 -0.3763  0.2489
 4345W        W23879   2.754  15.112  12.615 -0.1464 -0.3286  0.2931
 4346W        W23880   3.233   9.391  13.725  0.1317  0.3236 -0.0860
 4347W        W23881  12.907   9.312  14.426 -0.1791 -0.0498  0.0849
 4348W        W23882  10.559  15.225   2.245 -0.0836 -0.3250 -0.2669
 4349W        W23883   0.396   2.735   3.807 -0.0617 -0.1833 -0.1492
 4350W        W23884  17.193  15.841   2.592  0.0701 -0.0378 -0.0347
 4351W        W23885   0.621  12.705   4.833 -0.2085 -0.0689  0.2309
 4352W        W23886  14.298   0.325   3.162  0.0073 -0.2804  0.0841
 4353W        W23887  16.318   2.707  16.924  0.0892  0.0350  0.2143
 4354W        W23888  11.634   0.066  16.269 -0.2900  0.0152 -0.1011
 4355W        W23889  11.130  12.469   0.315 -0.3300 -0.4497 -0.0593
 4356W        W23890   4.312   0.234   1.071 -0.3957 -0.0098 -0.0286
 4357W        W23891   2.751   4.088  13.672  0.0990  0.0099 -0.1814
 4358W        W23892   1.635   3.684  14.555 -0.0299 -0.0753  0.2822
 4359W        W23893   8.683   3.900   0.969 -0.1147  0.2709  0.0922
 4360W        W23894  16.912   9.202  12.906  0.1932  0.0121 -0.0499
 4361W        W23895   5.516   2.489  13.230  0.0786  0.3582 -0.2423
 4362W        W23896   6.554   5.186   1.950  0.3123  0.1406 -0.2118
 4363W        W23897  13.927   5.998   1.075 -0.1902 -0.3236  0.0193
 4364W        W23898   1.435  10.196  15.544  0.3986 -0.0797  0.0363
 4365W        W23899   2.277   5.955  14.362  0.1131 -0.1927 -0.0670
 4366W        W23900  13.911  11.079   0.891  0.3086 -0.1283 -0.0379
 4367W        W23901   8.110  12.574   1.233  0.2733  0.0901 -0.1277
 4368W        W23902   6.661   7.668   3.977  0.3947 -0.0962 -0.1253
 4369W        W23903   8.681  15.180   0.528  0.1032  0.1917  0.0475
 4370W        W23904  15.855   3.437   4.483 -0.0280 -0.2671  0.3054
 4371W        W23905   5.471   5.771   0.242 -0.0997 -0.0117  0.2504
 4372W        W23906   8.956   9.058  16.172  0.0899 -0.1283  0.0904
 4373W        W23907  15.931  13.823  14.749 -0.1892  0.2188 -0.1395
 4374W        W23908   1.782  16.335   1.769 -0.1028  0.0338  0.0540
 4375W        W23909   6.023  15.745   1.840  0.2858  0.1303 -0.2630
 4376W        W23910  16.595  12.374  15.487  0.0659  0.2574  0.1546
 4377W        W23911   9.172   5.895   0.699  0.0091 -0.2320 -0.1519
 4378W        W23912   8.188  13.495  11.822  0.0239  0.0416  0.0357
 4379W        W23913  12.215   1.818   3.919 -0.2641  0.0590 -0.2321
 4380W        W23914   4.837   0.385   4.677 -0.2058  0.0005 -0.0320
 4381W        W23915   5.908   1.083  13.748 -0.0953  0.0077 -0.1186
 4382W        W23916  16.795  15.808  14.659  0.2577 -0.2472  0.1142
 4383W        W23917   4.526  15.553   3.342 -0.3662  0.0911 -0.0060
 4384W        W23918  15.423  12.472  14.058 -0.0599  0.1704  0.0146
 4385W        W23919   8.927  12.563   3.542  0.0165 -0.4421 -0.1128
 4386W        W23920   1.261   0.336   3.531  0.1371  0.1447  0.2068
 4387W        W23921   8.943   7.324   5.355 -0.1555  0.1776  0.1489
 4388W        W23922   1.277   0.051   3.055  0.0834 -0.0785  0.2626
 4389W        W23923  12.949  17.142   1.643 -0.1337  0.3372 -0.1502
 4390W        W23924  12.996  16.420  16.468  0.4699 -0.1304 -0.1977
 4391W        W23925   9.660   3.472   3.129  0.2820 -0.0801 -0.1307
 4392W        W23926   3.524   9.756  13.509  0.2009 -0.0150 -0.0087
 4393W        W23927  13.713  13.078  15.494 -0.3478 -0.0173 -0.0131
 4394W        W23928  10.794   7.983   4.343 -0.0438  0.1206  0.3200
 4395W        W23929   0.094   6.121   2.353 -0.1045 -0.2226 -0.1038
 4396W        W23930   7.744  10.721   1.498  0.3554  0.1581 -0.2694
 4397W        W23931   2.890   7.810  14.486 -0.0315  0.0806 -0.0378
 4398W        W23932   4.765  12.513  15.825 -0.2252 -0.0158 -0.0875
 4399W        W23933   8.219   9.025   2.389  0.0948 -0.1829  0.0555
 4400W        W23934   7.156   0.668   2.786  0.3581  0.0376  0.0732
 4401W        W23935  13.378  14.797  12.290  0.1058  0.1969  0.1623
 4402W        W23936   2.396  15.732  14.968  0.4461 -0.1322 -0.0008
 4403W        W23937  12.907   4.712   0.385 -0.0894  0.1861 -0.2045
 4404W        W23938   9.674   7.746   4.010 -0.1627 -0.2819  0.2204
 4405W        W23939  14.587  13.014   3.880 -0.3074  0.1762 -0.2366
 4406W        W23940   1.435   0.699  15.519  0.1282 -0.0866  0.0751
 4407W        W23941  16.706   7.380   3.696  0.1208 -0.2232  0.0108
 4408W        W23942   1.288   6.229   2.759  0.1360  0.3184  0.2089
 4409W        W23943  13.970  16.164   2.239 -0.1484  0.0945  0.3179
 4410W        W23944   2.035  12.908  12.929  0.1180 -0.3245 -0.0753
 4411W        W23945   1.005  13.672   0.969  0.1025  0.3173 -0.0290
 4412W        W23946   5.361  14.252  15.765  0.0011  0.2744  0.1101
 4413W        W23947   9.140   1.849   0.885  0.1090  0.1751 -0.0112
 4414W        W23948   3.451  10.514   1.311  0.3055  0.0861 -0.1516
 4415W        W23949   7.628  15.895   4.098 -0.2376 -0.3150  0.0986
 4416W        W23950   4.343   6.038  16.991 -0.4320  0.1347  0.1466
 4417W        W23951  12.709   0.046   1.072 -0.0934  0.1363  0.1455
 4418W        W23952   2.158   1.745   1.838  0.0371  0.0751  0.1238
 4419W        W23953   6.636   4.315  12.885  0.1461 -0.0624  0.0055
 4420W        W23954   8.920  11.904   0.114 -0.3786 -0.3688  0.0430
 4421W        W23955   2.342   8.690  12.208  0.0404 -0.4548  0.0028
 4422W        W23956  11.133  13.021  15.934  0.2983  0.0200 -0.0843
 4423W        W23957  11.794   2.089   3.605 -0.1474  0.2861  0.2686
 4424W        W23958   6.791  10.739  15.209  0.2546  0.0538  0.2497
 4425W        W23959   2.080   7.618  14.884  0.1677  0.0827  0.1002
 4426W        W23960  15.421   4.935   3.952  0.1535  0.2949 -0.0088
 4427W        W23961   7.158   4.343   2.019  0.1207 -0.0312 -0.1278
 4428W        W23962   7.199   6.017  15.820 -0.1504 -0.1006 -0.3623
 4429W        W23963   2.590  17.654   2.499 -0.2673  0.0071 -0.0138
 4430W        W23964  17.291   9.010  13.139  0.0243  0.0117  0.0915
 4431W        W23965  12.234  12.133  12.242 -0.2593 -0.0299 -0.0228
 4432W        W23966   4.570   2.395  14.248 -0.1513  0.1979  0.1694
 4433W        W23967  12.513   9.330   1.060 -0.1086 -0.3723  0.1635
 4434W        W23968   8.175   9.363   1.516  0.1477 -0.0981 -0.1071
 4435W        W23969  11.377  11.399   2.498 -0.0320  0.2445 -0.2794
 4436W        W23970   6.699   6.698   4.282  0.0100 -0.0002 -0.1674
 4437W        W23971   8.547  15.756  12.196 -0.2959  0.0156  0.0396
 4438W        W23972   8.960   6.558   2.236 -0.0368 -0.1809 -0.0322
 4439W        W23973   1.235  16.458   0.958  0.1756 -0.1526 -0.0322
 4440W        W23974  11.953   3.854  14.945 -0.3349 -0.1543  0.2278
 4441W        W23975   9.985  15.213  12.671 -0.1213  0.1409  0.2187
 4442W        W23976   3.187  16.462  14.295 -0.0732 -0.0172  0.4962
 4443W        W23977   3.851  14.432   3.820  0.1466 -0.0113  0.2396
 4444W        W23978   4.817   7.891   2.043  0.2928  0.1540  0.0727
 4445W        W23979  16.069   8.265   0.264  0.0337 -0.2297  0.0515
 4446W        W23980  17.048   3.581   1.510 -0.1179  0.0413  0.2111
 4447W        W23981   6.784   4.630   3.699 -0.1239  0.0744 -0.0055
 4448W        W23982  14.774   8.028   1.998  0.2221  0.0137  0.0113
 4449W        W23983  11.743  10.603  11.936  0.1117  0.1038 -0.0801
 4450W        W23984   3.482  17.102   2.426  0.1922 -0.1786  0.0553
 4451W        W23985   9.074   3.935  12.710  0.2184 -0.1126 -0.0848
 4452W        W23986  14.945   6.076   6.081  0.1315 -0.0971  0.1471
 4453W        W23987  10.919  13.560  14.519  0.1975  0.0167 -0.1789
 4454W        W23988  14.849   0.784   1.900  0.1474 -0.0998 -0.0611
 4455W        W23989   9.107   1.122  13.152 -0.0565  0.2447  0.0959
 4456W        W23990   1.559   6.499  13.405  0.0425 -0.1218  0.1464
 4457W        W23991   3.611   0.312   0.158 -0.3847 -0.0440 -0.0370
 4458W        W23992  10.148  12.510  14.339  0.0455  0.1144 -0.1040
 4459W        W23993   2.631  15.687   3.379 -0.0623  0.0111 -0.0305
 4460W        W23994  15.669   0.076  12.811 -0.0747 -0.2179  0.3497
 4461W        W23995   4.034   8.219  14.542 -0.0365 -0.1141 -0.1881
 4462W        W23996   5.722  16.125  16.242 -0.0250 -0.0455 -0.0715
 4463W        W23997   7.588  12.714  16.600 -0.1153  0.2277  0.0061
 4464W        W23998   3.375   9.434  15.298  0.1763 -0.0420  0.0225
 4465W        W23999  12.250  14.122   0.935 -0.0291  0.1170 -0.0799
 4466W        W24000  13.941   5.014   0.880  0.1088 -0.4319  0.1267
 4467W        W24001  11.298  12.154  13.880 -0.1485  0.0047  0.1940
 4468W        W24002  12.092   9.859   2.623  0.0517 -0.1849 -0.2346
 4469W        W24003   4.658   5.765   2.318 -0.1987  0.0910 -0.0287
 4470W        W24004  10.712  11.282   5.005  0.0748  0.0912 -0.0813
 4471W        W24005   1.264   0.651   3.173  0.2096  0.0912  0.1759
 4472W        W24006  13.172  12.042   3.880  0.2205 -0.1075 -0.1127
 4473W        W24007  11.797  14.505   4.445  0.0819  0.1778  0.0802
 4474W        W24008   2.443  14.874  14.741 -0.0085  0.0668  0.1678
 4475W        W24009  16.907   0.991   0.468 -0.2572 -0.2874 -0.4270
 4476W        W24010   1.315  13.519   1.725 -0.4398  0.4669 -0.0177
 4477W        W24011  13.313  15.585   1.710  0.4877  0.0699 -0.1377
 4478W        W24012  11.967   1.924   2.087 -0.2410  0.0638  0.0501
 4479W        W24013  16.083  13.105   2.936 -0.0677 -0.3959 -0.2437
 4480W        W24014   9.271  10.414  12.181  0.0832  0.0293 -0.0442
 4481W        W24015   1.120  11.866   3.724 -0.0735  0.1732  0.0241
 4482W        W24016  11.644   5.792   2.771 -0.0949 -0.1053  0.0210
 4483W        W24017   6.248  13.651   3.081  0.0103  0.2340 -0.0161
 4484W        W24018   3.895   4.886  12.789 -0.0526  0.0920 -0.0134
 4485W        W24019   4.445   4.078  15.092 -0.0529  0.1371  0.0249
 4486W        W24020  12.135   9.341  13.013  0.2685 -0.1127 -0.2658
 4487W        W24021   2.812  11.984  15.098  0.1706 -0.2698  0.0026
 4488W        W24022   2.202  17.217   0.615  0.0825 -0.0050 -0.3108
 4489W        W24023  11.126   7.069   0.920 -0.0561 -0.1992 -0.2206
 4490W        W24024  17.311  10.633   2.820  0.0655 -0.0207 -0.0658
 4491W        W24025   7.590   4.161  12.898 -0.1393  0.1182  0.0365
 4492W        W24026  17.144  11.337   2.116  0.1399 -0.0358 -0.0427
 4493W        W24027  12.728   8.093   0.051 -0.3002  0.0259 -0.1459
 4494W        W24028   4.719   6.535  11.081  0.1590  0.0850 -0.1799
 4495W        W24029   9.411   1.918  14.039  0.1166 -0.2616 -0.1988
 4496W        W24030  10.416   5.983   3.690 -0.0320  0.3739 -0.1784
 4497W        W24031  14.938   7.629   3.638  0.0229  0.0164 -0.0493
 4498W        W24032   8.093   5.203   0.292  0.2070 -0.1755  0.1254
 4499W        W24033   5.513  13.930  14.460  0.2013 -0.1686  0.0453
 4500W        W24034   2.291   2.506   3.490 -0.3325  0.0554  0.0182
 4501W        W24035   5.588   9.562  16.931 -0.4034  0.0360  0.0150
 4502W        W24036  15.451   5.644  13.538 -0.1344 -0.4219  0.0539
 4503W        W24037  16.336  16.183  16.613  0.1281  0.2184  0.1205
 4504W        W24038  15.740   3.631  14.965 -0.1392  0.3336  0.1028
 4505W        W24039   0.512  12.189   2.779 -0.0687 -0.1620 -0.0890
 4506W        W24040   7.992   3.785  13.654  0.2199 -0.0504 -0.0218
 4507W        W24041   1.379  11.275   2.024  0.1347  0.0154  0.2886
 4508W        W24042  12.788   8.231   1.878  0.1931  0.1860 -0.1003
 4509W        W24043  17.618   4.976  12.632 -0.4302 -0.0977  0.2545
 4510W        W24044  16.901   3.545   4.418 -0.3037 -0.1919  0.1038
 4511W        W24045   8.891  17.468   1.935 -0.0070  0.3477  0.0248
 4512W        W24046  12.446   9.354   4.269  0.1537  0.2777  0.0457
 4513W        W24047   9.248  10.511   1.029 -0.0591 -0.1670 -0.1789
 4514W        W24048   8.889  10.413  15.216  0.1841 -0.0885  0.3000
 4515W        W24049  14.925   5.476   1.881 -0.0567 -0.3805  0.1856
 4516W        W24050  10.036  15.352   2.012  0.1482 -0.0585  0.1320
 4517W        W24051   1.882  12.177   1.686  0.0019  0.4344  0.0941
 4518W        W24052   9.040  13.945  16.970  0.1288 -0.1531 -0.2172
 4519W        W24053   7.557  15.887  15.169 -0.1223  0.0240  0.0878
 4520W        W24054   9.351  10.355   4.933  0.0733 -0.1921 -0.0948
 4521W        W24055   5.043   6.292   3.577 -0.2070 -0.1572  0.3334
 4522W        W24056  16.205  10.517   0.342 -0.0158  0.1616 -0.0502
 4523W        W24057  10.320  11.707  16.195  0.1230  0.0531  0.0750
 4524W        W24058   6.772  14.361   1.439  0.2364  0.0305  0.0451
 4525W        W24059  14.690  12.087   2.621  0.1577 -0.0842 -0.0752
 4526W        W24060  12.604  13.932   0.603 -0.4390 -0.1821 -0.0726
 4527W        W24061   4.210  15.562   0.269 -0.2179 -0.1383  0.0681
 4528W        W24062  11.537   6.861   4.194  0.0911  0.2053  0.0402
 4529W        W24063   5.441   5.834  14.294 -0.0960 -0.0846  0.2441
 4530W        W24064   4.569   2.865   3.505  0.0832  0.2816 -0.1271
 4531W        W24065  16.239  16.672  13.176 -0.0485  0.0175 -0.0425
 4532W        W24066  14.291   8.175  13.183 -0.0360  0.0005  0.0958
 4533W        W24067  16.363   5.070   4.104  0.1639  0.0644 -0.0558
 4534W        W24068   6.800   8.930  12.266  0.2473 -0.1463 -0.2420
 4535W        W24069  16.554   5.476   4.314  0.0764 -0.0648 -0.0614
 4536W        W24070  16.655   3.863  13.117  0.2034 -0.2263  0.1816
 4537W        W24071   3.848  14.401   1.631 -0.1418  0.0816 -0.1133
 4538W        W24072   3.396  13.042   0.786  0.0029  0.0036  0.0495
 4539W        W24073   1.836  16.461   2.318 -0.0359  0.0368  0.0375
 4540W        W24074   4.749   5.226  13.754 -0.0701 -0.1223  0.1582
 4541W        W24075  10.992  15.249  12.154  0.0836  0.2225  0.3393
 4542W        W24076  17.467   6.645  16.614  0.0159 -0.3602  0.0748
 4543W        W24077   4.817  10.627  12.996 -0.4374 -0.1026  0.2601
 4544W        W24078   1.858  12.792  15.766  0.1961  0.0434 -0.3678
 4545W        W24079   4.850  16.790  15.387  0.2037 -0.1877 -0.0225
 4546W        W24080   3.191   3.828  15.080 -0.1754  0.2666 -0.3271
 4547W        W24081  13.165   3.930   1.910 -0.3395 -0.1208 -0.1749
 4548W        W24082  15.491   3.052  13.987  0.2528  0.0774  0.3131
 4549W        W24083   0.952   3.459   2.279 -0.0294  0.0801  0.3328
 4550W        W24084   8.564   0.234  14.241  0.1135  0.0344  0.2405
 4551W        W24085   6.388  14.447   3.794  0.1678 -0.0843  0.0016
 4552W        W24086  17.177   6.810   4.373 -0.1117  0.2574 -0.2482
 4553W        W24087   8.267   6.950   0.965  0.4225 -0.1777  0.1383
 4554W        W24088   7.733  12.244  16.756  0.0575  0.1678 -0.2210
 4555W        W24089  15.428  12.955  14.319  0.0158  0.3696  0.2194
 4556W        W24090  12.647   4.012   3.076 -0.1775 -0.0587  0.0488
 4557W        W24091   4.328   8.597   1.838  0.0575  0.0075 -0.0017
 4558W        W24092   5.204  17.415  12.719 -0.2171 -0.2915 -0.2037
 4559W        W24093   1.353  12.963  15.853  0.1760 -0.0113 -0.1926
 4560W        W24094  14.861  16.847   3.983 -0.2080 -0.1951  0.0226
 4561W        W24095  10.152   0.191  13.736 -0.1537  0.1968  0.2281
 4562W        W24096   1.626  14.105  17.016 -0.0854 -0.0699  0.2000
 4563W        W24097  14.291  16.145   3.790  0.1053  0.1034 -0.1475
 4564W        W24098  13.155   1.364   1.006 -0.0540  0.4174  0.1633
 4565W        W24099   2.989   5.696   1.594  0.1266 -0.1539  0.3424
 4566W        W24100  11.233  14.154  16.962 -0.0427 -0.0990 -0.1725
 4567W        W24101   8.996  13.045  14.672 -0.1923  0.2251  0.1556
 4568W        W24102  13.460   6.844   4.463 -0.0867  0.2223 -0.0467
 4569W        W24103  11.540  16.949  14.344 -0.1628 -0.5327  0.0969
 4570W        W24104  16.852   5.907  15.149 -0.1282 -0.0754 -0.1212
 4571W        W24105   7.777   6.381  15.584  0.3050 -0.2309 -0.0504
 4572W        W24106  11.806  15.459  16.469  0.1162 -0.0026 -0.1478
 4573W        W24107   0.390  13.540  14.796 -0.0103 -0.0433 -0.3086
 4574W        W24108  15.914   5.976   0.047 -0.0487  0.1525  0.1390
 4575W        W24109  17.046   9.675   3.947 -0.1217 -0.3061 -0.2123
 4576W        W24110  17.167   9.142  14.018 -0.2001  0.1529  0.0588
 4577W        W24111   3.100  15.459  16.753  0.2472 -0.0621 -0.2191
 4578W        W24112  13.973   2.975   5.359 -0.2051 -0.1270  0.1753
 4579W        W24113  11.536  16.244   4.176  0.1008 -0.3098 -0.0591
 4580W        W24114  17.427   5.848   0.168 -0.1904  0.0494  0.1991
 4581W        W24115  10.910   2.920  15.659 -0.1755 -0.0738  0.0966
 4582W        W24116   0.116   1.515   1.322  0.1088 -0.0147 -0.1596
 4583W        W24117   1.581   7.950  12.552 -0.0094  0.1393  0.1155
 4584W        W24118   4.787  13.440  14.791  0.2821  0.0979  0.1491
 4585W        W24119  15.622   5.083   4.656 -0.0247 -0.1158 -0.1648
 4586W        W24120  17.626   8.342  15.822  0.0640 -0.3073  0.1307
 4587W        W24121   5.513  12.764   4.861  0.0335  0.2021 -0.4169
 4588W        W24122  16.461   9.128   3.214  0.1779 -0.0272  0.2800
 4589W        W24123  10.638  17.094  14.240 -0.0439  0.1557 -0.1144
 4590W        W24124   0.202  12.592  13.905  0.0979 -0.0564  0.1262
 4591W        W24125   3.175   5.200  14.913 -0.3209  0.3256  0.0332
 4592W        W24126  14.393   6.420   4.333 -0.1372 -0.0381  0.2221
 4593W        W24127   6.133   3.090  14.581 -0.1951  0.1074  0.2770
 4594W        W24128  14.541   7.794   1.186 -0.0424  0.1220 -0.0224
 4595W        W24129   6.137  14.915  14.651  0.1451  0.0820  0.1227
 4596W        W24130  11.034  17.163   2.771  0.4386 -0.2346 -0.1221
 4597W        W24131   5.086  10.352   5.533 -0.3037  0.1774 -0.2979
 4598W        W24132  15.559   0.498   3.592  0.1186 -0.0282  0.1290
 4599W        W24133  13.185  14.510   4.558  0.0529  0.0422 -0.3354
 4600W        W24134  16.830   6.938   0.121  0.0765  0.0653  0.0628
 4601W        W24135   3.780  13.095   3.526 -0.0616 -0.0858 -0.0940
 4602W        W24136   0.281   9.269   0.110 -0.2477 -0.3060 -0.3499
 4603W        W24137  14.152   0.200  13.375  0.1711 -0.1841  0.2225
 4604W        W24138   3.547  15.537  12.546  0.0677 -0.1501  0.2176
 4605W        W24139  16.025   3.307  15.447  0.3254  0.4041 -0.1546
 4606W        W24140   5.980   5.426   4.130 -0.0274 -0.0255  0.0014
 4607W        W24141   0.794   3.151  16.938  0.0147 -0.2496  0.4181
 4608W        W24142  10.458  12.516   5.460  0.0769 -0.0285  0.3218
 4609W        W24143   6.717  12.635   0.600  0.1084  0.0147 -0.0786
 4610W        W24144   0.503  13.244  13.331 -0.0897 -0.1293 -0.2852
 4611W        W24145  16.540  16.776  16.836 -0.1013 -0.0496  0.0969
 4612W        W24146  12.789   1.367   1.501  0.2611 -0.2284 -0.4282
 4613W        W24147  12.976   7.644   3.739  0.2240  0.1442  0.2607
 4614W        W24148   9.070   2.967  16.059  0.1655  0.0324 -0.1014
 4615W        W24149  12.090  16.781  16.404 -0.1574 -0.0175  0.1576
 4616W        W24150  16.089   9.100   0.616 -0.1000  0.0764  0.1945
 4617W        W24151  12.800   3.544  14.849 -0.0086  0.2308 -0.4492
 4618W        W24152  10.342   4.387  11.821  0.1698  0.0866  0.0264
 4619W        W24153  17.124   0.311   3.028  0.1865 -0.0261 -0.1906
 4620W        W24154  13.212   6.842   3.528 -0.1678 -0.0303 -0.1783
 4621W        W24155   7.491  13.007   1.734  0.0411  0.1419  0.1144
 4622W        W24156   1.780  10.600  14.093 -0.1275 -0.0071 -0.0071
 4623W        W24157  14.075  10.555  14.371 -0.2536 -0.2346  0.1013
 4624W        W24158   7.068   3.004  13.286  0.2606  0.0180  0.0571
 4625W        W24159  15.499  16.072  16.447 -0.1261  0.1060  0.1678
 4626W        W24160   5.652   1.562   0.231 -0.0742  0.0609  0.1431
 4627W        W24161  16.308   3.216  17.071 -0.1442  0.0132 -0.1138
 4628W        W24162   3.845   5.525  15.754  0.0098 -0.0059 -0.2439
 4629W        W24163   9.465  11.168   3.229  0.1517  0.1573  0.2441
 4630W        W24164   0.415   6.500   1.580  0.1335  0.0915  0.2543
 4631W        W24165   9.616   5.401  15.561  0.0532  0.3328  0.0710
 4632W        W24166   6.613   5.890   1.693  0.1941  0.0448  0.0058
 4633W        W24167  11.038   3.093   0.345  0.1536  0.0777  0.1780
 4634W        W24168  14.783  13.819  16.009 -0.3763 -0.1171 -0.1003
 4635W        W24169   5.923   9.007   5.156 -0.1111 -0.0958 -0.0802
 4636W        W24170   3.123   7.093  16.179  0.1551 -0.0133  0.0914
 4637W        W24171  16.890  11.765   3.807  0.0994 -0.2167  0.0879
 4638W        W24172  15.345   3.017  12.522 -0.3565  0.0071  0.1689
 4639W        W24173  12.732  11.952  15.167  0.0071  0.1685 -0.2328
 4640W        W24174  10.319  17.602  16.498  0.3375  0.1263  0.3132
 4641W        W24175   7.029   5.256   2.293  0.0575  0.0372  0.3955
 4642W        W24176  14.609   8.635  16.221 -0.1262  0.1875 -0.0981
 4643W        W24177   3.591   6.113   4.096  0.2703 -0.0653 -0.2052
 4644W        W24178  13.716   0.022  13.143 -0.1353  0.1927  0.0759
 4645W        W24179   1.463  12.799   0.230 -0.0476 -0.2581  0.1339
 4646W        W24180  13.205  10.249  13.533  0.2360  0.2974 -0.3162
 4647W        W24181   9.172   0.768   3.976 -0.0700 -0.1024  0.0566
 4648W        W24182  13.013  17.242  13.146 -0.0688  0.0988  0.0511
 4649W        W24183  11.832  10.630  14.538 -0.0595  0.0387  0.2855
 4650W        W24184   8.138   1.720  14.306  0.1666 -0.0056 -0.1647
 4651W        W24185   2.981   7.946   4.479  0.0647 -0.0118  0.1559
 4652W        W24186  16.380   5.213  15.046 -0.1200 -0.1591 -0.5153
 4653W        W24187   3.126   1.028   2.296 -0.1152  0.1901  0.1218
 4654W        W24188   6.182  11.559   3.983  0.0335 -0.0938  0.1625
 4655W        W24189  16.813   4.258  13.385  0.1010  0.4795 -0.0194
 4656W        W24190   9.839  15.613   3.421 -0.0504  0.1202  0.0804
 4657W        W24191   7.796  12.171   1.875  0.1386  0.0607 -0.1418
 4658W        W24192   0.008  13.542   1.459  0.1354  0.0978 -0.1728
 4659W        W24193   3.282   7.056  15.313  0.3253 -0.0529 -0.2573
 4660W        W24194  11.187   4.881   4.970 -0.2113 -0.0604 -0.1626
 4661W        W24195  17.211   0.291   4.907  0.0124  0.1112 -0.5000
 4662W        W24196   6.128  11.362   0.078  0.1541  0.0968 -0.1341
 4663W        W24197   1.086   3.655   1.393  0.0004 -0.2489  0.0071
 4664W        W24198  14.721   7.570  12.049 -0.0795 -0.0124 -0.0079
 4665W        W24199  15.599  10.747  15.147  0.1207  0.1598 -0.0622
 4666W        W24200   5.964  12.018   3.991 -0.0291  0.0691  0.0202
 4667W        W24201   8.318   4.504  13.068  0.0684 -0.1073  0.0898
 4668W        W24202   8.032   3.845  12.873 -0.2841  0.3515 -0.2683
 4669W        W24203   6.332  11.506  13.477 -0.0727  0.2464 -0.0318
 4670W        W24204   6.263  16.608  12.802 -0.1317 -0.2068  0.0568
 4671W        W24205   7.493  10.111  14.914  0.1036 -0.1030  0.0651
 4672W        W24206   3.095   1.533   0.785  0.1709 -0.0490  0.1023
 4673W        W24207  17.078   9.665   0.694 -0.0562  0.1443 -0.0071
 4674W        W24208   9.543  16.241  16.129 -0.1022  0.2784  0.0573
 4675W        W24209   9.007  13.998   3.264 -0.0671 -0.0247 -0.0740
 4676W        W24210  13.505   9.009   2.977 -0.1880  0.1113 -0.0299
 4677W        W24211   6.036   1.155   4.709  0.2455  0.1805  0.2135
 4678W        W24212  11.066   1.538   2.575  0.0021 -0.2585 -0.2596
 4679W        W24213   8.396  13.513  16.643  0.3182 -0.1323 -0.1612
 4680W        W24214   0.124  11.179  11.987 -0.0980 -0.0947  0.1795
 4681W        W24215   7.139   6.795  14.126  0.0193 -0.3372  0.0461
 4682W        W24216   3.147   9.139   3.638  0.0617  0.1610 -0.0787
 4683W        W24217  15.439   7.333  13.308 -0.3281  0.0001 -0.2567
 4684W        W24218  15.426  16.555   4.980 -0.0431 -0.1228  0.0164
 4685W        W24219  13.009  14.494  12.108 -0.1539 -0.0212  0.2273
 4686W        W24220   1.327   8.300   4.543  0.0823 -0.2615 -0.0128
 4687W        W24221   4.089  14.048  13.498  0.1507 -0.2879 -0.1207
 4688W        W24222  12.058  11.122  15.503  0.2717 -0.3457  0.2121
 4689W        W24223  12.756  11.763   2.258 -0.0624  0.1325  0.0484
 4690W        W24224  11.679  11.493  12.712 -0.1804 -0.0696 -0.1626
 4691W        W24225  11.622  11.395  16.254  0.0651 -0.2928 -0.1508
 4692W        W24226  17.081   7.248   4.067  0.0638  0.1584 -0.0334
 4693W        W24227   0.809   7.947  16.278  0.0292 -0.1782 -0.0420
 4694W        W24228  12.545   4.854   0.680 -0.0301  0.0645 -0.1591
 4695W        W24229  11.820  13.781   4.874  0.1617  0.0284  0.2944
 4696W        W24230  14.809   5.993   4.552  0.4433  0.1524  0.0903
 4697W        W24231  11.024   4.759  12.987 -0.3045  0.1269 -0.2942
 4698W        W24232  14.392  10.982   3.659 -0.2141  0.3452 -0.0135
 4699W        W24233   5.070  16.893  14.475  0.0220  0.0360  0.1847
 4700W        W24234  16.523   5.569  15.360 -0.0808  0.0527  0.1412
 4701W        W24235   1.946   4.526   3.212  0.0841 -0.2703 -0.0604
 4702W        W24236  12.669  13.698   2.624 -0.1390 -0.2719  0.1186
 4703W        W24237  12.428   7.086   4.361  0.3825  0.0391  0.2692
 4704W        W24238  13.969   7.846  11.744 -0.3356 -0.3564 -0.1896
 4705W        W24239   9.306   3.335  13.379  0.0129 -0.2710  0.1771
 4706W        W24240   9.504   8.193  13.929 -0.2164  0.0678  0.1843
 4707W        W24241   8.209   2.172  15.463  0.3877 -0.0513  0.2405
 4708W        W24242   5.875   9.229  12.058  0.2606 -0.1431  0.2157
 4709W        W24243  16.667  11.814   0.190 -0.2068 -0.3834  0.0273
 4710W        W24244   6.182   0.960   2.079 -0.0185  0.3356 -0.0643
 4711W        W24245   7.473  12.932  14.774  0.0214  0.0348  0.0516
 4712W        W24246   5.993   2.183   1.402 -0.1380  0.0437  0.1860
 4713W        W24247  12.719  12.172  16.363 -0.2852 -0.1518 -0.2454
 4714W        W24248  10.475  14.589  16.649 -0.2373  0.1238 -0.1988
 4715W        W24249   8.323  15.147  13.853  0.1120  0.0317  0.0393
 4716W        W24250   6.085  12.952   2.016 -0.0655 -0.1301 -0.1470
 4717W        W24251   5.222  13.241  13.148 -0.4341 -0.0116  0.1110
 4718W        W24252   8.169  11.447   2.232 -0.2412 -0.2184 -0.2118
 4719W        W24253   8.102   0.650   0.027 -0.2679  0.1655 -0.3020
 4720W        W24254  12.610  14.558  15.537  0.0538 -0.1729  0.2935
 4721W        W24255  14.172   9.286  14.869 -0.2598 -0.1995 -0.0332
 4722W        W24256   3.064   4.324   3.107  0.0243 -0.3938  0.0324
 4723W        W24257   2.334   0.544   0.475 -0.4530  0.0919  0.4260
 4724W        W24258  15.539   4.850  14.491  0.0536  0.1450  0.1947
 4725W        W24259  15.560  13.962  11.052  0.0671  0.1641  0.0684
 4726W        W24260  14.624   9.367   0.246 -0.0916 -0.1535  0.2020
 4727W        W24261  16.575   8.919  15.133  0.0770  0.1568 -0.2054
 4728W        W24262   2.103   1.401   2.831 -0.0074 -0.2565 -0.0336
 4729W        W24263  13.571   5.447  17.005 -0.3790  0.1036 -0.1733
 4730W        W24264   2.119  10.136   1.083  0.1261  0.0641 -0.0466
 4731W        W24265  13.040  13.797  16.233  0.0510  0.0661 -0.2234
 4732W        W24266  13.404   7.377  12.750 -0.0905 -0.2064 -0.0832
 4733W        W24267  11.587   0.793  12.788  0.0187  0.2086  0.1941
 4734W        W24268  16.802   8.133   4.770 -0.0671  0.0578  0.0585
 4735W        W24269  14.699  13.012   4.555  0.0673  0.0120  0.2283
 4736W        W24270  13.033  16.729  12.962  0.0188  0.0786 -0.1490
 4737W        W24271  14.017  16.199  14.017 -0.0784  0.2142 -0.1606
 4738W        W24272  10.891   2.541  16.220 -0.1483 -0.0117 -0.1979
 4739W        W24273   4.768  14.638   1.677 -0.0977  0.2125  0.2279
 4740W        W24274   3.074   2.657  15.928 -0.0194 -0.1280  0.0422
 4741W        W24275   6.321  11.044   3.270 -0.1005 -0.1709 -0.3479
 4742W        W24276   5.328   0.764  16.947  0.2028  0.2496  0.2239
 4743W        W24277  12.979   3.405   4.805 -0.0138  0.2631 -0.0808
 4744W        W24278   1.926   5.563  14.336  0.0434 -0.0660  0.0907
 4745W        W24279   9.101   5.071   2.444 -0.0722  0.2367 -0.0247
 4746W        W24280   4.331  10.811   2.826 -0.0048 -0.0032  0.1668
 4747W        W24281   7.373   8.806  13.026  0.0168 -0.1606 -0.0145
 4748W        W24282   5.656   6.952  12.953 -0.0478 -0.2272 -0.1380
 4749W        W24283   8.316  15.229  14.416  0.0578  0.2178 -0.0738
 4750W        W24284   8.804  14.665   1.285 -0.1215  0.0866 -0.2352
 4751W        W24285   0.071  17.045   1.687  0.2999  0.0506 -0.0785
 4752W        W24286   2.719  15.490  16.166  0.1620  0.0518 -0.0891
 4753W        W24287  15.212  10.389  15.950 -0.3040  0.0885 -0.0138
 4754W        W24288   8.409   8.900  14.187  0.1275 -0.0655  0.1205
 4755W        W24289  16.440  12.135  16.346  0.1209 -0.0916 -0.0953
 4756W        W24290  15.606   4.776  15.067 -0.2818 -0.3095 -0.1183
 4757W        W24291  14.468  16.139  15.958  0.2549  0.5213 -0.1239
 4758W        W24292   8.012   8.263   1.981 -0.0999  0.3353  0.1014
 4759W        W24293  13.951  10.998   1.748 -0.0002 -0.0268  0.0104
 4760W        W24294   9.419   6.360   4.842 -0.3781  0.0393  0.0260
 4761W        W24295  11.791   1.920  12.947  0.0943 -0.2393  0.0864
 4762W        W24296   1.554  17.654   2.184  0.1832 -0.1017 -0.2032
 4763W        W24297  15.542  16.615  15.714  0.1729  0.0654 -0.1959
 4764W        W24298  12.345  11.286   6.484 -0.0113  0.3420  0.0348
 4765W        W24299  17.279   6.447  12.712  0.0166 -0.2056  0.0383
 4766W        W24300   0.272   0.323   3.648 -0.3742 -0.2161 -0.1891
 4767W        W24301  12.610  11.533   1.475 -0.2037 -0.0420 -0.0016
 4768W        W24302  15.625   4.651  12.957 -0.0109  0.0718 -0.1947
 4769W        W24303  15.732   7.910   0.117 -0.1854 -0.0554 -0.1986
 4770W        W24304  16.361  14.000   0.454  0.0560 -0.1577 -0.0868
 4771W        W24305   0.286  11.985   2.149 -0.1322 -0.0296 -0.1846
 4772W        W24306  13.906   2.235   0.760  0.0546 -0.1356 -0.0821
 4773W        W24307   0.732   2.576  15.593  0.1323  0.0638  0.2016
 4774W        W24308  17.349   4.351   2.978  0.1792 -0.2975  0.0306
 4775W        W24309  13.492   8.288   5.431 -0.3339  0.0519 -0.2886
 4776W        W24310  15.635   1.383   0.006  0.0509 -0.3728  0.0644
 4777W        W24311  15.071  14.550   4.213  0.3471  0.1406 -0.1082
 4778W        W24312   1.435   9.127  14.146  0.1308  0.1622 -0.3218
 4779W        W24313   4.842   7.391  15.521  0.2770 -0.4203 -0.0195
 4780W        W24314   3.320   5.914   4.950 -0.1150  0.0677 -0.0986
 4781W        W24315   1.618  10.763   4.131 -0.1016 -0.1411 -0.0596
 4782W        W24316   4.453  12.941  15.895 -0.3245  0.1300 -0.2189
 4783W        W24317   6.098  11.916   2.754 -0.1266 -0.1034  0.0927
 4784W        W24318   8.196   7.867   4.232  0.1267  0.0714  0.2102
 4785W        W24319  13.473   0.160   3.528 -0.1266 -0.0495 -0.0894
 4786W        W24320   7.849   9.963   2.858 -0.0941 -0.1018  0.1091
 4787W        W24321   7.608  17.538   2.342  0.0513  0.0943  0.1349
 4788W        W24322   2.431   4.773  14.473  0.1079 -0.1714 -0.0220
 4789W        W24323   1.954  17.596  15.694 -0.0095 -0.0781  0.0537
 4790W        W24324   3.538   9.548   0.963  0.0626 -0.2570  0.4415
 4791W        W24325  16.224  15.659   4.193 -0.0712 -0.1104 -0.3761
 4792W        W24326  15.644  16.769  12.458 -0.0764  0.0269  0.2925
 4793W        W24327   7.880  17.510   1.532 -0.5683 -0.0432 -0.3392
 4794W        W24328  11.111  12.082  15.739 -0.0344  0.5181 -0.2253
 4795W        W24329   2.819   6.453  13.699  0.1139 -0.1910 -0.0437
 4796W        W24330   2.156  11.502  12.217 -0.3421 -0.0814 -0.3801
 4797W        W24331  11.758  13.426  16.464  0.3346 -0.0046  0.2234
 4798W        W24332  16.616   5.115  16.014 -0.2742 -0.0460 -0.3402
 4799W        W24333   9.205  15.578  15.923  0.3184 -0.0464  0.0239
 4800W        W24334   4.510  10.008   1.256  0.2426  0.4031  0.1312
 4801W        W24335  13.244  16.862  12.144  0.0955  0.2203  0.1818
 4802W        W24336   6.194   5.305  16.344 -0.0473 -0.0293 -0.0001
 4803W        W24337   0.107  15.410   2.064  0.2318 -0.0667 -0.1070
 4804W        W24338   9.224   3.377   2.881 -0.2101 -0.1637 -0.1531
 4805W        W24339   0.965   1.449   2.868 -0.1591  0.2684  0.1261
 4806W        W24340   4.086  16.346  11.809  0.2292 -0.1358 -0.0945
 4807W        W24341   2.207  15.232   2.725  0.0480 -0.1748 -0.1157
 4808W        W24342  14.919   5.635   3.858 -0.1630  0.3076 -0.0888
 4809W        W24343   4.921   8.229  16.064  0.1935  0.1450 -0.2120
 4810W        W24344  10.506   3.098   1.063  0.3554 -0.3382  0.2376
 4811W        W24345  16.067   5.394   4.391 -0.0815  0.1841 -0.0619
 4812W        W24346  10.952  12.905  13.517 -0.1419 -0.2757 -0.0370
 4813W        W24347   7.148   1.972  13.035 -0.0003 -0.0685  0.2722
 4814W        W24348  11.470   6.927   1.321  0.0715 -0.0274 -0.0244
 4815W        W24349   0.094   6.827  12.539  0.2906  0.1713 -0.3189
 4816W        W24350   8.581   5.398   0.497  0.0126 -0.0007  0.1793
 4817W        W24351   0.338   5.519   1.314 -0.1543 -0.0899  0.0909
 4818W        W24352  16.722  10.823  13.413 -0.0861  0.2031 -0.1459
 4819W        W24353  13.389  14.167  16.503 -0.1312 -0.0410 -0.0812
 4820W        W24354   7.222  15.606   2.987 -0.0653  0.0273  0.1223
 4821W        W24355  11.899  11.114  14.551  0.0666  0.1531 -0.2282
 4822W        W24356  13.231   1.360   2.541 -0.1269 -0.1873 -0.3162
 4823W        W24357   9.512   5.937  13.555  0.5165 -0.3572 -0.2503
 4824W        W24358   9.465  16.511  14.778  0.0205  0.0587  0.3073
 4825W        W24359   2.700   4.870   3.564 -0.1888  0.0505 -0.0862
 4826W        W24360   5.644   0.444  14.530 -0.0301 -0.1332  0.2288
 4827W        W24361   0.124   5.375  15.568 -0.0941  0.0967  0.1065
 4828W        W24362   1.038  10.353   0.724 -0.1851 -0.0993  0.0346
 4829W        W24363   4.068   2.595   5.239 -0.1872  0.0271 -0.1139
 4830W        W24364   3.735   7.214   0.653  0.1967 -0.0446 -0.1042
 4831W        W24365   8.286   7.378   4.240  0.0635  0.2413 -0.3474
 4832W        W24366  12.072  10.559   5.095  0.0785  0.0941 -0.1829
 4833W        W24367   9.750   1.619   4.086 -0.2235 -0.1673  0.1021
 4834W        W24368   3.043  15.735   4.260 -0.1863  0.2066  0.1903
 4835W        W24369   7.910  16.375  15.368 -0.0239  0.0591  0.2199
 4836W        W24370   6.429  11.979  14.901 -0.2532 -0.3031  0.1887
 4837W        W24371   8.656  14.995  12.918  0.1805 -0.1215  0.0762
 4838W        W24372  13.735  16.499  12.230  0.2541 -0.1651 -0.2293
 4839W        W24373  10.118   7.416   0.677 -0.2770 -0.0493  0.2253
 4840W        W24374   8.366  11.856  13.567 -0.0534 -0.0893  0.1256
 4841W        W24375   2.023   0.244   3.757 -0.3221 -0.0444  0.2760
 4842W        W24376  17.613   3.255   5.136 -0.2211 -0.1441 -0.3561
 4843W        W24377   9.980  16.082  12.599  0.0293 -0.0956  0.2482
 4844W        W24378   7.630   5.085  16.501 -0.1556  0.0221 -0.1566
 4845W        W24379  17.459  14.751   5.204 -0.0152  0.2436 -0.1456
 4846W        W24380   6.463   8.729   1.516  0.1599 -0.0455  0.3149
 4847W        W24381  17.549  10.398  12.526  0.1841 -0.1131 -0.1649
 4848W        W24382   6.485  15.909   0.092 -0.2600  0.2087 -0.1704
 4849W        W24383   0.460   9.030  12.604 -0.3126  0.0717 -0.0986
 4850W        W24384   1.064   7.193  12.866 -0.1552 -0.0429  0.1746
 4851W        W24385   7.691   6.800   1.777  0.2636 -0.0383 -0.0481
 4852W        W24386   5.026   3.330  13.541  0.1094 -0.0032  0.0454
 4853W        W24387  17.342   6.131  16.792 -0.0935 -0.0073 -0.1425
 4854W        W24388   5.510  16.978   1.211  0.0283 -0.0075 -0.0886
 4855W        W24389   7.814  14.264  16.425 -0.1536 -0.0342  0.1726
 4856W        W24390   9.027   7.675   4.725  0.1315 -0.1672  0.2375
 4857W        W24391  16.061  16.641  16.865 -0.2939 -0.3221  0.1930
 4858W        W24392  14.788   2.713  16.379 -0.0468  0.2261 -0.0848
 4859W        W24393  16.803   2.395  16.018  0.3432  0.1043 -0.0897
 4860W        W24394  12.645  11.056  11.794 -0.3421  0.0534 -0.1013
 4861W        W24395   6.556   8.724   2.109 -0.2607  0.0795  0.0277
 4862W        W24396  12.834   3.106   0.846  0.1277  0.1851  0.4103
 4863W        W24397  16.426   2.257   1.236 -0.3175  0.0849 -0.0522
 4864W        W24398   2.978  10.498   1.167  0.1860 -0.1711  0.3355
 4865W        W24399  15.180  17.216  12.214 -0.0362  0.2853  0.2889
 4866W        W24400   9.656  13.775  13.011 -0.1885 -0.1512 -0.1427
 4867W        W24401  17.073   9.893  14.167 -0.0699 -0.1479 -0.0167
 4868W        W24402  17.363   3.242   1.495  0.3204 -0.0342  0.0506
 4869W        W24403  11.949   2.578   2.539 -0.1065 -0.2062 -0.2114
 4870W        W24404   2.443  16.592  14.921 -0.1835 -0.3340  0.2175
 4871W        W24405  11.759   7.771  15.220 -0.0959  0.1579  0.3208
 4872W        W24406   4.518  17.185  12.673  0.1401  0.0607  0.1217
 4873W        W24407   3.164   5.468   0.604 -0.1180  0.0924  0.1462
 4874W        W24408   0.318   4.545   0.021  0.0054  0.2049  0.0553
 4875W        W24409  10.206  12.589  15.767  0.0831  0.1088 -0.1380
 4876W        W24410   8.611  15.103   3.547  0.0606  0.4595 -0.0664
 4877W        W24411  16.320   0.628   0.092  0.1730  0.0512 -0.1197
 4878W        W24412   0.569  16.139   2.559  0.2177  0.0964 -0.1954
 4879W        W24413  15.044  11.709  12.292  0.1803  0.0308  0.0357
 4880W        W24414   4.347   3.649  16.138 -0.0261  0.1657 -0.0007
 4881W        W24415   4.302  10.212   1.751 -0.0268  0.1710 -0.1534
 4882W        W24416   0.870   1.221  16.598  0.0604  0.2421  0.1281
 4883W        W24417   1.832   3.364   0.910 -0.2117 -0.1362  0.0950
 4884W        W24418   0.411   1.692  13.873  0.0923  0.0822  0.1255
 4885W        W24419   8.974   0.198  16.245  0.1252 -0.1404  0.1499
 4886W        W24420   1.680  12.144   5.813  0.2091 -0.1102 -0.0427
 4887W        W24421  15.128   1.813   4.820 -0.3228  0.1839 -0.0173
 4888W        W24422  13.010  13.136  15.521 -0.0867  0.0895  0.1319
 4889W        W24423  16.094  16.353  15.519  0.0905  0.0957  0.0918
 4890W        W24424  14.445   1.907   4.071  0.2505 -0.1448  0.2148
 4891W        W24425  10.978  12.611  13.939  0.2966  0.1592  0.2378
 4892W        W24426  10.534   0.064   3.208  0.1622  0.0069  0.0007
 4893W        W24427   8.832  14.799  12.412  0.0526  0.1938 -0.2343
 4894W        W24428   4.060   1.337  16.155  0.1476 -0.0443 -0.0501
 4895W        W24429  11.239   1.005  15.394 -0.1327  0.1642 -0.3139
 4896W        W24430  13.914   5.303  12.427 -0.0526 -0.2373  0.0474
 4897W        W24431  15.384   3.226   4.445 -0.1883 -0.4081  0.0087
 4898W        W24432   2.123   7.160  12.780  0.2060  0.0471 -0.2076
 4899W        W24433   4.606   0.002  16.710  0.0525  0.0972 -0.0665
 4900W        W24434   5.706   9.066  14.682 -0.0096 -0.1330  0.3131
 4901W        W24435  11.798   7.238  12.565  0.2971 -0.3464 -0.1148
 4902W        W24436   7.613   1.498  12.206 -0.2011  0.2358 -0.2891
 4903W        W24437  10.529  13.784  11.739 -0.3181 -0.2496 -0.1069
 4904W        W24438   0.130  15.229   2.945  0.0375  0.0493 -0.2839
 4905W        W24439  10.312   9.238   4.388  0.1142 -0.1200  0.0356
 4906W        W24440  14.999  11.571  16.732 -0.2722  0.3190 -0.1755
 4907W        W24441  14.738  11.454   0.899  0.2832 -0.1079 -0.0867
 4908W        W24442   8.140   2.465  12.621 -0.1866 -0.0689  0.2642
 4909W        W24443  15.124   5.588   4.339  0.1626 -0.3271 -0.0113
 4910W        W24444  15.901   3.481  12.558 -0.1667 -0.1545 -0.0137
 4911W        W24445  14.314  10.216  15.151 -0.2260  0.0480 -0.2921
 4912W        W24446  15.460   2.936  16.830 -0.1070  0.0310 -0.0445
 4913W        W24447  16.785   4.013   1.730  0.2806  0.2307 -0.4215
 4914W        W24448   3.242   9.924  12.445  0.1833 -0.0634  0.0097
 4915W        W24449   3.882   7.552  15.574 -0.2398  0.2580 -0.0151
 4916W        W24450  13.288  16.423   1.579  0.2357 -0.2477  0.1573
 4917W        W24451  10.726   6.940  16.723 -0.3702  0.2198  0.2681
 4918W        W24452  17.017  10.877  16.398  0.0500  0.1915  0.0061
 4919W        W24453  14.631   4.866   0.408  0.0269 -0.0929  0.1080
 4920W        W24454  16.936   3.600   2.078 -0.1606  0.1508 -0.1683
 4921W        W24455   6.475   3.064   0.348  0.0112 -0.3750  0.2208
 4922W        W24456   4.865   9.122   2.256  0.0505 -0.0301 -0.0395
 4923W        W24457   1.939  14.089   2.098  0.1035 -0.0640  0.1193
 4924W        W24458   4.409  10.288   2.761 -0.0126  0.0596 -0.0890
 4925W        W24459  13.923   9.155  13.774  0.2683 -0.0555 -0.2841
 4926W        W24460  17.116  14.366  16.634 -0.1368 -0.0254 -0.1326
 4927W        W24461  17.185  11.957   3.290  0.1528  0.1157  0.1793
 4928W        W24462  10.443   4.643   2.654  0.1230 -0.1009  0.2539
 4929W        W24463   0.650   5.163  14.429 -0.0128  0.0402 -0.0234
 4930W        W24464   7.277   4.095  12.475 -0.1437  0.2912  0.2577
 4931W        W24465  10.175   3.525  14.133  0.3829  0.1121  0.0404
 4932W        W24466  15.658   9.254   0.487  0.1485 -0.0119  0.2092
 4933W        W24467  10.281  10.837  16.181 -0.2235 -0.0983 -0.1071
 4934W        W24468  11.010   5.645  14.831  0.3863 -0.2658  0.2231
 4935W        W24469   9.110  12.407   1.925 -0.0518  0.1084 -0.1734
 4936W        W24470   8.206   5.756  13.600  0.0856  0.1516 -0.0168
 4937W        W24471   3.894   5.832  12.224 -0.0776  0.0130  0.2104
 4938W        W24472  16.413   1.677   4.692 -0.1161 -0.4714  0.0232
 4939W        W24473   5.631  17.197   0.638  0.2307  0.0506  0.1750
 4940W        W24474   9.918   6.469  16.478 -0.3295  0.0292 -0.1711
 4941W        W24475  11.613  17.537   3.257  0.2985 -0.2851 -0.0231
 4942W        W24476   1.549  10.195   4.035 -0.1898  0.0371 -0.0699
 4943W        W24477   4.655   3.551   2.664  0.1335 -0.0278  0.1841
 4944W        W24478  16.137  10.445   1.346  0.0938  0.0175  0.2468
 4945W        W24479  12.197  17.622   2.408  0.0474  0.1039 -0.0698
 4946W        W24480   6.648   8.953  16.188  0.1247 -0.1804  0.1057
 4947W        W24481  13.869   4.684   3.915 -0.2609 -0.4384 -0.1690
 4948W        W24482  16.276   0.196   4.614 -0.0821  0.0731 -0.0535
 4949W        W24483  11.272  14.257   1.870  0.0026  0.1085 -0.1841
 4950W        W24484   8.955   7.696  16.224  0.0661 -0.2575 -0.3284
 4951W        W24485  13.179  15.867   2.924 -0.2222  0.2995  0.2046
 4952W        W24486   7.593   3.463   0.843  0.0309 -0.0989  0.0249
 4953W        W24487  17.179  13.500  15.534  0.2311  0.1285 -0.1163
 4954W        W24488   1.540  17.375   5.221  0.2329  0.2781 -0.3735
 4955W        W24489  16.875   3.661  13.494  0.2589  0.0980 -0.3584
 4956W        W24490  13.472   4.176  15.997  0.1777  0.1253 -0.4347
 4957W        W24491   6.803   1.885  12.199  0.1175  0.1599 -0.3319
 4958W        W24492   3.937   0.547  13.751  0.3106 -0.0871 -0.0662
 4959W        W24493  17.065  15.063   1.965 -0.2597 -0.2656 -0.2778
 4960W        W24494  17.635   7.086  16.856  0.0665 -0.2396  0.2521
 4961W        W24495  14.389   9.003   1.896  0.0974 -0.1921  0.0124
 4962W        W24496  17.130   9.950   4.812 -0.3391 -0.0855 -0.1804
 4963W        W24497   5.359   6.465  13.671  0.1933 -0.0393  0.0287
 4964W        W24498   3.958   0.985   1.532  0.2430 -0.0404 -0.0866
 4965W        W24499  13.711  13.830  14.152 -0.1841 -0.1613  0.1587
 4966W        W24500  13.390   4.639  13.369 -0.1315 -0.1631 -0.1074
 4967W        W24501   6.759  15.659  15.483  0.3157 -0.0868  0.1008
 4968W        W24502   6.893   5.487   4.831  0.1462 -0.0900  0.0807
 4969W        W24503  15.750  15.247   3.331 -0.1224  0.0726  0.0317
 4970W        W24504   9.961   0.377   3.738  0.1747 -0.2921 -0.3120
 4971W        W24505   8.034   3.208   4.263 -0.1502 -0.0240 -0.1652
 4972W        W24506   6.585  13.132  12.986  0.1563  0.1805  0.1403
 4973W        W24507   7.039   3.336  14.198 -0.0938  0.2234  0.0941
 4974W        W24508  11.155  15.283  15.298  0.0074 -0.0192  0.2455
 4975W        W24509   4.812   6.019  14.874  0.2113  0.1970 -0.2515
 4976W        W24510   5.865   4.360  13.011  0.1873 -0.1371 -0.0027
 4977W        W24511   3.900   3.249   0.354 -0.1277  0.1725 -0.3529
 4978W        W24512   1.677  11.610  11.937 -0.0358 -0.0281 -0.0600
 4979W        W24513  13.418   1.785  14.466 -0.4825 -0.1718 -0.0666
 4980W        W24514  16.229   7.530   2.402  0.1585  0.0348 -0.1319
 4981W        W24515   6.658   0.695  13.489 -0.1551  0.1287  0.1753
 4982W        W24516  11.317  16.810   3.080  0.0907 -0.0319  0.2143
 4983W        W24517   1.453  15.387   2.801  0.0582 -0.1089  0.0689
 4984W        W24518  13.204  14.983  13.602  0.0984 -0.1550 -0.4582
 4985W        W24519  13.558  11.573  15.306 -0.0653 -0.1686  0.0593
 4986W        W24520  13.848   7.643   3.912  0.3347  0.0346 -0.2135
 4987W        W24521  15.321   3.310   1.544  0.3305 -0.0035  0.1943
 4988W        W24522   2.024   9.721  16.105  0.0191  0.1373  0.2208
 4989W        W24523  17.197   8.100   6.196 -0.1438  0.0556  0.3665
 4990W        W24524   0.868   0.576   1.809 -0.3409 -0.1060 -0.0177
 4991W        W24525  16.072   0.424   1.724  0.0448 -0.0702  0.0038
 4992W        W24526   1.584   3.791  12.004 -0.2704 -0.2487  0.2020
 4993W        W24527   8.365   7.315   0.558 -0.2416  0.3207 -0.0868
 4994W        W24528   0.939  11.169  14.239  0.0216 -0.1771  0.0875
 4995W        W24529   3.929   5.482  11.904  0.3456  0.0176 -0.0783
 4996W        W24530   7.162   8.618   1.871 -0.0662 -0.4117 -0.2813
 4997W        W24531  15.274   0.622   1.703 -0.2614  0.1068 -0.2239
 4998W        W24532  15.045   2.169   0.193  0.1407 -0.0924 -0.0309
 4999W        W24533  14.741  16.078   2.765 -0.0617  0.2058  0.4001
 5000W        W24534   6.852  11.875  15.139  0.2317 -0.1700  0.0071
 5001W        W24535  11.034   6.114   1.449  0.0940 -0.0782 -0.1376
 5002W        W24536   7.394   7.197   1.731  0.1544 -0.1382 -0.1385
 5003W        W24537  11.006  10.255   1.875  0.0237  0.0614 -0.2466
 5004W        W24538   8.364  16.852   4.207 -0.3798  0.0216  0.2828
 5005W        W24539  16.793   3.708   2.563 -0.2668 -0.1856  0.1678
 5006W        W24540  10.671   1.645  14.009 -0.0422 -0.4449 -0.0129
 5007W        W24541   4.608   1.457  14.263  0.2602  0.1421 -0.0337
 5008W        W24542   9.095   6.595  13.201 -0.1700  0.2744 -0.1557
 5009W        W24543   3.376   5.949  17.010  0.1749  0.3546 -0.2090
 5010W        W24544  17.253   9.777   1.196  0.3259  0.0587  0.1585
 5011W        W24545   8.549   1.398  15.968  0.0351 -0.0316 -0.2087
 5012W        W24546   3.449   4.844  12.978 -0.1411  0.1251 -0.0850
 5013W        W24547   6.693   1.007   1.982 -0.1516  0.1598 -0.0535
 5014W        W24548  17.395   8.011  16.108  0.3525 -0.1933 -0.1862
 5015W        W24549  16.460  12.013  12.397 -0.1163 -0.0365 -0.3956
 5016W        W24550  12.402   4.128  14.178 -0.3300 -0.1193 -0.0959
 5017W        W24551   0.794   0.187   1.056  0.2404  0.2676  0.3920
 5018W        W24552   2.842   3.547  14.261 -0.1553 -0.1106  0.0385
 5019W        W24553  17.653   2.590  15.010 -0.1042  0.1093  0.2972
 5020W        W24554   2.826  14.339   3.661  0.2063  0.0035 -0.0437
 5021W        W24555  15.903   3.572   3.090  0.0377  0.2238 -0.0310
 5022W        W24556  14.375   7.140   2.742 -0.2698  0.4002 -0.1489
 5023W        W24557  12.248  15.790  16.800 -0.2759  0.2094  0.1331
 5024W        W24558  11.084  12.557  16.916 -0.0525  0.1745 -0.0021
 5025W        W24559   4.308   2.367   1.742  0.0948 -0.0813 -0.0761
 5026W        W24560   4.621  17.456   4.026 -0.0281 -0.1415 -0.0038
 5027W        W24561  16.420   7.552  16.789  0.0473  0.4014  0.0993
 5028W        W24562   2.989  11.336   4.243 -0.1401 -0.2189 -0.0190
 5029W        W24563   8.404  12.324   2.934 -0.0453 -0.4694  0.0560
 5030W        W24564   5.643  14.987   4.750  0.0809  0.1746  0.0140
 5031W        W24565   0.955  13.770   1.963 -0.2989  0.2642  0.6079
 5032W        W24566  13.852  15.876  13.068 -0.0089 -0.0686 -0.1607
 5033W        W24567  10.669   6.648  15.396  0.0922  0.0623 -0.1185
 5034W        W24568  12.370   1.191  11.432  0.0889  0.0466  0.0001
 5035W        W24569  15.047  14.074  15.675  0.0051 -0.1565  0.0361
 5036W        W24570   1.386   4.031   2.215  0.0196  0.2012 -0.0983
 5037W        W24571  10.744   4.075   0.466  0.0874 -0.3521  0.3158
 5038W        W24572  16.039   9.394  15.649 -0.1532 -0.2792 -0.0995
 5039W        W24573   0.366  11.687  16.761 -0.0345  0.1249 -0.4502
 5040W        W24574  13.818   5.480   2.586  0.0566 -0.0091  0.0796
 5041W        W24575  15.847   9.084   2.650 -0.1909 -0.1947  0.1363
 5042W        W24576   4.928   2.056  16.801 -0.0679  0.0339  0.2579
 5043W        W24577  17.394  17.651   2.306 -0.2091  0.1658  0.0557
 5044W        W24578   4.351   5.237  14.069  0.0744 -0.0899  0.0522
 5045W        W24579   9.364  10.937  17.034  0.1336 -0.1852 -0.2273
 5046W        W24580   0.401   1.508  12.893  0.2310  0.0681 -0.0652
 5047W        W24581  11.209  10.401   3.138  0.1165 -0.3140  0.0743
 5048W        W24582  14.156   0.852   2.367  0.1462 -0.0658  0.0946
 5049W        W24583   4.680   2.377   2.411 -0.1957 -0.0611  0.2303
 5050W        W24584   3.231   6.928   0.865 -0.0438 -0.1123  0.0209
 5051W        W24585  12.253  12.743   1.802  0.0110  0.1258  0.0278
 5052W        W24586  15.974  12.042  12.577  0.1846  0.3124 -0.0984
 5053W        W24587  12.430   1.290   1.081  0.2226 -0.5253  0.3094
 5054W        W24588   3.755  14.811   0.033 -0.0521 -0.0320  0.0295
 5055W        W24589   6.795  13.811   3.483 -0.1416  0.0739 -0.0935
 5056W        W24590   5.750  13.513  14.327 -0.2715  0.2190  0.1463
 5057W        W24591   9.854  17.157   5.224  0.2760  0.0932  0.1404
 5058W        W24592   5.458  13.371  16.755  0.0859 -0.1176 -0.0884
 5059W        W24593  13.792   1.092   3.527  0.2734 -0.1472  0.2519
 5060W        W24594   7.728  11.028   2.446 -0.4463 -0.1544 -0.0675
 5061W        W24595   8.774   1.924   4.794 -0.0622 -0.3669  0.0807
 5062W        W24596  11.704   9.835  14.350  0.0237  0.2428  0.0001
 5063W        W24597   9.778  11.582  14.637 -0.0355  0.0104  0.1002
 5064W        W24598  15.844   8.606   3.543 -0.1145 -0.1831  0.1320
 5065W        W24599  10.452   3.140  15.465 -0.0040  0.2531  0.0050
 5066W        W24600   4.061  10.774   1.821  0.1812  0.2209  0.0423
 5067W        W24601  17.551  15.291   6.200  0.1642  0.1802  0.0844
 5068W        W24602  13.334  10.262  16.709 -0.0465  0.1616 -0.0289
 5069W        W24603   1.230   7.564   4.007 -0.0039  0.1853 -0.1634
 5070W        W24604  14.044  14.647   1.141  0.1780  0.1514 -0.0872
 5071W        W24605  16.991   7.614   4.398  0.2036  0.0419  0.3629
 5072W        W24606  10.078   7.850   4.805  0.0528 -0.2269  0.2154
 5073W        W24607   9.588   1.488  15.921  0.2529  0.2853  0.0191
 5074W        W24608   7.129   6.477  16.094 -0.1170 -0.1256 -0.0469
 5075W        W24609   9.819  16.575  12.307  0.0729  0.1232  0.0199
 5076W        W24610  13.647   0.543   3.219  0.1619 -0.2095  0.0248
 5077W        W24611   3.671   6.802  15.058  0.0903  0.1468  0.3120
 5078W        W24612   8.799   4.702  13.170 -0.0355 -0.0841  0.2258
 5079W        W24613   5.890   5.793   3.128 -0.0312  0.0460 -0.2928
 5080W        W24614  16.832   8.136   0.932 -0.3861 -0.0497  0.0820
 5081W        W24615  10.399  14.849  11.928  0.1672 -0.2129  0.0903
 5082W        W24616   5.001   0.935   4.597 -0.1196 -0.0667  0.1346
 5083W        W24617   7.764   0.130   0.203 -0.4410 -0.0708  0.2815
 5084W        W24618   6.894  13.437  11.787 -0.0218 -0.1509 -0.1297
 5085W        W24619  11.980   1.889   1.218 -0.2102  0.2605 -0.1665
 5086W        W24620   1.895   9.230   2.117 -0.0547 -0.0828 -0.1391
 5087W        W24621   3.424   0.705  14.555  0.0625 -0.2920 -0.1064
 5088W        W24622   6.652  16.495  13.149  0.2212  0.0419 -0.0856
 5089W        W24623  10.073   1.927   1.776  0.1765  0.4217  0.0332
 5090W        W24624  15.912   9.157  12.527  0.1894  0.1622  0.0222
 5091W        W24625  15.170   7.748   1.782 -0.1073 -0.0301 -0.0466
 5092W        W24626  13.768  15.009  12.102 -0.1445  0.0215  0.1000
 5093W        W24627   3.455  10.816   3.149 -0.0921  0.1370 -0.3095
 5094W        W24628   4.321   6.696  14.459 -0.2066  0.2251  0.1317
 5095W        W24629   5.709   0.858  14.240  0.1848 -0.3016 -0.0696
 5096W        W24630   1.276   1.540  16.713  0.1187 -0.1927  0.0034
 5097W        W24631   0.298  13.523   4.621  0.4193 -0.1406  0.0711
 5098W        W24632  15.178   8.077  15.879 -0.2422  0.2270 -0.0564
 5099W        W24633   4.741  11.270   0.609  0.1689  0.0734  0.1656
 5100W        W24634  13.465  13.874   5.098  0.1053  0.1978 -0.1372
 5101W        W24635   8.655   8.327   1.906  0.1708  0.1056  0.0017
 5102W        W24636   8.209  11.764  12.230 -0.3230  0.0426 -0.1454
 5103W        W24637  13.751   4.656  14.320 -0.0699  0.1336 -0.1047
 5104W        W24638  11.249   9.824   3.880  0.1058 -0.0703 -0.0241
 5105W        W24639   3.462  16.679  13.831 -0.2586 -0.4779 -0.2118
 5106W        W24640   7.622   6.236  16.106  0.0750  0.1845 -0.0708
 5107W        W24641   8.710   4.938   1.097 -0.0048 -0.3137 -0.2551
 5108W        W24642   4.960   9.660   0.684 -0.0192  0.1158  0.3248
 5109W        W24643   4.937  13.975  12.253  0.1054  0.0245 -0.0642
 5110W        W24644  11.112   2.568  12.978  0.0534  0.1197  0.0352
 5111W        W24645   0.411   2.168   3.793 -0.1359 -0.3751  0.0837
 5112W        W24646   5.482  12.214   0.936 -0.0491  0.0306 -0.1098
 5113W        W24647  10.082   1.813   2.291 -0.0294  0.0310  0.1910
 5114W        W24648   6.313   9.126  16.550  0.0255 -0.0535  0.0451
 5115W        W24649   0.974  15.768  14.075  0.3008 -0.1513 -0.0221
 5116W        W24650  10.935  12.596  15.633  0.2433  0.2001 -0.1678
 5117W        W24651   9.146  13.319   2.379  0.0003 -0.1309  0.2464
 5118W        W24652  11.854   8.850  12.570  0.0465  0.1569 -0.1817
 5119W        W24653  11.236   8.941  16.907  0.1175  0.2562 -0.2404
 5120W        W24654  16.105   0.881  15.320  0.0055  0.1262 -0.3399
 5121W        W24655  17.018   3.239  14.478 -0.0179 -0.0755 -0.2289
 5122W        W24656  10.539  10.641   1.198  0.2685  0.1010  0.4212
 5123W        W24657   0.836   6.880  16.794 -0.1469  0.0915  0.4618
 5124W        W24658   8.993   0.252   0.913 -0.1348  0.0347 -0.0684
 5125W        W24659   7.276  15.574   0.265  0.2569 -0.0281 -0.0896
 5126W        W24660   7.446   7.347  12.648 -0.1134  0.0691 -0.0244
 5127W        W24661  11.124   2.186  12.300  0.0361  0.0126 -0.0925
 5128W        W24662   8.533   0.067   2.366 -0.0205 -0.0781  0.1238
 5129W        W24663  15.469   1.269   3.210  0.1308  0.1004  0.1570
 5130W        W24664  11.773   8.032  15.681 -0.0865  0.1835 -0.0213
 5131W        W24665  15.362  14.515  15.223 -0.0207  0.3024  0.0142
 5132W        W24666   1.029   9.229  13.402  0.0986 -0.1644 -0.2542
 5133W        W24667   2.124   0.070   4.216 -0.2643  0.0087  0.0983
 5134W        W24668   2.624   7.860   1.929  0.0710  0.0708  0.1708
 5135W        W24669   0.143  10.154   3.594 -0.0375  0.0961  0.1148
 5136W        W24670   5.473   2.634   4.081  0.2524  0.1423  0.1821
 5137W        W24671   7.974  12.750  12.693  0.0335 -0.3102 -0.0252
 5138W        W24672   7.178   7.010  15.439  0.1741 -0.2031  0.0624
 5139W        W24673   3.422   1.711   4.839 -0.0254 -0.1035 -0.0469
 5140W        W24674   2.842  17.401   4.817 -0.1464 -0.0568  0.2083
 5141W        W24675   1.096  11.585   0.632  0.1268 -0.1968 -0.0589
 5142W        W24676  17.525  10.891  14.436 -0.0788  0.0886 -0.0273
 5143W        W24677  13.737  12.143   3.918 -0.1247 -0.2868  0.1411
 5144W        W24678   5.493  14.239   4.849 -0.1342 -0.0556 -0.1298
 5145W        W24679   4.715   1.353   4.734 -0.0805 -0.1016 -0.4062
 5146W        W24680  17.139   2.562  15.580 -0.2101 -0.0202 -0.1825
 5147W        W24681   3.329  11.757  12.995 -0.0292  0.1459 -0.1712
 5148W        W24682  14.634   3.873   1.018  0.1228 -0.1539 -0.2137
 5149W        W24683   6.738   7.742   2.408 -0.0209  0.1482  0.2265
 5150W        W24684  12.869  17.253   1.158  0.0523  0.1612 -0.1177
 5151W        W24685   0.785   0.337  13.745 -0.0795  0.1433 -0.0740
 5152W        W24686   3.810  17.545  15.782 -0.1294  0.0236 -0.0860
 5153W        W24687  17.486  13.845   4.036 -0.2322  0.0702  0.3877
 5154W        W24688  11.367   3.653  16.948  0.3766 -0.0746  0.1580
 5155W        W24689  12.251   8.929   2.248 -0.0214 -0.3880 -0.1908
 5156W        W24690   1.491  10.492  14.447 -0.1050  0.0958  0.0401
 5157W        W24691  14.217  16.594  14.902  0.0791 -0.1236 -0.2105
 5158W        W24692  13.579  11.347  12.818  0.3482 -0.0671 -0.0714
 5159W        W24693  12.474   3.884  13.698  0.0642 -0.0593 -0.0751
 5160W        W24694  14.142  14.984  15.086 -0.2365 -0.2064 -0.0799
 5161W        W24695   6.931   5.427   0.570  0.0571 -0.0789  0.3101
 5162W        W24696  11.662   4.764   1.999 -0.1193  0.1507  0.2883
 5163W        W24697  11.447   3.989   0.269 -0.0100 -0.0425  0.0456
 5164W        W24698  17.655   4.888   4.867 -0.2083  0.2263 -0.0279
 5165W        W24699   2.306   4.139  12.599 -0.0792 -0.0177 -0.0488
 5166W        W24700   7.661  11.701   3.718 -0.1820  0.0354  0.1667
 5167W        W24701  10.684   2.339   4.775 -0.1455 -0.0003 -0.0913
 5168W        W24702   8.088   6.084  12.428 -0.2194 -0.0056 -0.0729
 5169W        W24703  11.615   8.022   4.301  0.0182  0.0844  0.1640
 5170W        W24704   4.786  12.497  16.831  0.0160  0.0286  0.0506
 5171W        W24705  10.741   3.463  11.884  0.1171  0.1235 -0.1616
 5172W        W24706  12.676   5.687   4.594 -0.2252 -0.0236  0.0427
 5173W        W24707   2.502   9.567  12.508  0.1136  0.0797 -0.4617
 5174W        W24708  15.836  12.720   2.644 -0.2433  0.0672  0.0984
 5175W        W24709  16.617  16.879  15.965 -0.2416 -0.3920 -0.0474
 5176W        W24710   8.722  15.465   4.598 -0.0695  0.0710  0.3807
 5177W        W24711   2.544   2.408  12.061  0.0123 -0.0877 -0.2561
 5178W        W24712   5.589   0.745   0.311  0.0154 -0.2836  0.0185
 5179W        W24713   5.035   4.351   4.647 -0.1148  0.0631  0.2183
 5180W        W24714   9.408  13.763  16.598  0.0661  0.0001  0.1607
 5181W        W24715   0.455   2.709   1.712 -0.2075  0.5534  0.1820
 5182W        W24716  12.675   0.743  13.280 -0.0204 -0.0896 -0.0211
 5183W        W24717  12.919  14.784   2.208  0.2071  0.0163  0.1619
 5184W        W24718   6.104  15.739  14.059 -0.2753 -0.4102 -0.0483
 5185W        W24719  14.465  16.162  14.840 -0.2716  0.0170  0.1294
 5186W        W24720  11.884  14.975   4.455 -0.0098 -0.2739  0.3053
 5187W        W24721  16.218  13.833   2.675 -0.3534 -0.1114  0.2759
 5188W        W24722  10.406   1.749  16.463 -0.1187 -0.3384  0.1115
 5189W        W24723   7.237   3.208  15.692  0.1383  0.0295  0.4098
 5190W        W24724   8.008   8.252  14.622  0.1017  0.1017  0.0474
 5191W        W24725   6.167  11.039  12.554 -0.0624  0.2880  0.0093
 5192W        W24726   3.025  16.110   0.385 -0.2715 -0.4377 -0.1094
 5193W        W24727  10.437  17.631  13.133  0.0185  0.3684 -0.0424
 5194W        W24728  10.414   9.849   3.183 -0.0847  0.2164 -0.3231
 5195W        W24729   1.727  13.779   1.668  0.0802  0.3505 -0.1292
 5196W        W24730  11.467  14.943  12.867 -0.1028  0.1808  0.1518
 5197W        W24731   3.070   5.168   3.163 -0.1644  0.2570 -0.0067
 5198W        W24732  10.073   0.450  15.168  0.3147  0.0584 -0.1269
 5199W        W24733  17.501   7.789  13.928  0.2063  0.1415 -0.1045
 5200W        W24734   3.819  14.633  12.869 -0.0133 -0.0559 -0.2823
 5201W        W24735   1.785   6.277   0.788  0.1222 -0.1233  0.2606
 5202W        W24736   5.678   4.191   3.966 -0.0088  0.1305  0.0561
 5203W        W24737  17.669  10.059  15.508 -0.2294  0.1090 -0.0588
 5204W        W24738   0.179   9.139  13.877  0.5056  0.3018 -0.1174
 5205W        W24739   1.577  11.690   0.601 -0.0030  0.1120 -0.0996
 5206W        W24740   0.353  11.417  13.539 -0.0770 -0.2077 -0.2687
 5207W        W24741  17.085   3.327  15.009 -0.0752 -0.0295 -0.1859
 5208W        W24742   3.668  14.569  14.578 -0.1939 -0.2391 -0.0827
 5209W        W24743   4.278   5.051  13.579  0.0254 -0.2204 -0.2947
 5210W        W24744  16.823   9.768   5.855 -0.1098  0.0609 -0.0737
 5211W        W24745  14.378  11.959  14.993  0.2825 -0.0703 -0.3188
 5212W        W24746   2.206   4.997  16.556 -0.2621  0.1112  0.1533
 5213W        W24747  13.201   0.075   2.941  0.2759  0.0082  0.0458
 5214W        W24748   3.971   7.306  13.044 -0.1318  0.2524 -0.3601
 5215W        W24749  17.066  14.136   3.906 -0.2344  0.1221  0.1828
 5216W        W24750  15.366  12.624  11.969 -0.3016 -0.1488  0.0378
 5217W        W24751  15.506  11.185  16.522  0.0174 -0.2592  0.0478
 5218W        W24752  12.404  11.922   2.880  0.1537  0.0681 -0.1101
 5219W        W24753  12.696   2.237   1.401 -0.1402 -0.1306 -0.3521
 5220W        W24754   6.238   7.215  14.971  0.1255 -0.3216 -0.3853
 5221W        W24755   2.772   4.755   3.096  0.0349 -0.1642  0.0644
 5222W        W24756   6.546  12.363   2.607  0.3105  0.0730  0.1017
 5223W        W24757  12.587   9.233  15.924 -0.0552  0.1278  0.1505
 5224W        W24758   0.514  13.261   2.066  0.1435 -0.3125 -0.0124
 5225W        W24759  15.147  11.409  16.241  0.1705  0.0086 -0.1202
 5226W        W24760  14.596   3.208  12.036 -0.0994 -0.2706 -0.0198
 5227W        W24761  10.212  15.730   1.169 -0.2101 -0.1278  0.0799
 5228W        W24762  14.052  11.814  16.839  0.4060  0.2653 -0.2562
 5229W        W24763   8.339  12.304   3.791  0.0174 -0.2686 -0.0561
 5230W        W24764  10.064   6.380  16.015  0.0609  0.0590  0.3128
 5231W        W24765   4.554   8.271  15.296 -0.1188 -0.0530 -0.0565
 5232W        W24766  12.063   9.977  14.902 -0.1762  0.0050  0.4318
 5233W        W24767  11.328   5.599   1.973  0.1705  0.1421  0.0669
 5234W        W24768  12.335   6.745  14.879 -0.2196  0.1139 -0.2653
 5235W        W24769   0.980   6.523   1.481 -0.1123 -0.1472  0.0353
 5236W        W24770   4.443  14.694  14.218  0.3369  0.0451  0.1424
 5237W        W24771   1.859  12.112   0.482 -0.0886 -0.0039  0.3301
 5238W        W24772  11.939  16.513  12.533  0.0973  0.0840 -0.3876
 5239W        W24773   3.030   9.587   0.996  0.0857 -0.1790  0.0776
 5240W        W24774  17.395  16.164  12.402 -0.1304  0.0229 -0.3684
 5241W        W24775  16.076  12.094  13.274 -0.1654 -0.3450 -0.0920
 5242W        W24776   3.230   3.547   1.600 -0.1646 -0.0636 -0.1110
 5243W        W24777  12.933  11.520  13.787  0.3128 -0.0959 -0.0980
 5244W        W24778   7.545  16.484   0.072  0.0653  0.2522  0.0876
 5245W        W24779  15.175   7.850   0.042  0.1714  0.2244  0.4003
 5246W        W24780   5.242   1.481   4.595  0.0069 -0.0849  0.2889
 5247W        W24781   8.744   0.415  15.805  0.0109  0.1141 -0.3356
 5248W        W24782   0.671   8.847  13.564 -0.0699  0.1748  0.1314
 5249W        W24783  14.211   1.662   3.725  0.2292  0.0379 -0.0080
 5250W        W24784  10.084   5.637   2.113 -0.0470 -0.0725  0.2500
 5251W        W24785   9.098   2.198  15.789  0.0593  0.0922 -0.2640
 5252W        W24786  11.463  15.752   4.614  0.3192  0.1772  0.0081
 5253W        W24787  16.049   7.027   1.484  0.0555 -0.0523 -0.1700
 5254W        W24788  14.960  15.317  12.888  0.1795  0.1317 -0.1328
 5255W        W24789  17.300  12.148   0.741  0.2183  0.1097 -0.0258
 5256W        W24790   5.390   6.969  12.011 -0.1338  0.0163 -0.0558
 5257W        W24791   4.946   7.458  14.878  0.0407  0.2499 -0.0687
 5258W        W24792   7.455  13.005  11.746  0.0046 -0.1213  0.1639
 5259W        W24793  13.045   0.307  15.736 -0.1696  0.4687  0.1269
 5260W        W24794   4.956  13.426  16.706 -0.0474 -0.1795  0.2553
 5261W        W24795   2.337  14.732  14.208 -0.1444  0.0322 -0.2083
 5262W        W24796  16.893   8.051  13.341 -0.0361 -0.1790  0.1154
 5263W        W24797  10.196   6.432   2.714 -0.1092 -0.1481  0.1623
 5264W        W24798  12.395  11.454  13.792 -0.3390 -0.0997 -0.3270
 5265W        W24799   3.982   2.872  15.789 -0.0859  0.0857 -0.1117
 5266W        W24800   1.614   4.954  14.916  0.0704  0.0474 -0.0194
 5267W        W24801  15.611  14.945  13.843 -0.0001 -0.3037 -0.0952
 5268W        W24802   5.509   4.102  15.082 -0.0535 -0.2517 -0.0812
 5269W        W24803   7.333  13.325  16.071 -0.2587 -0.1609  0.0356
 5270W        W24804  16.348  17.111   2.603 -0.0901 -0.3625 -0.1977
 5271W        W24805   3.580   6.028   1.241 -0.1491 -0.0454  0.0253
 5272W        W24806   0.048  14.629  11.939  0.0685 -0.2595  0.1115
 5273W        W24807   3.403  16.088   4.313  0.1269  0.0364 -0.1271
 5274W        W24808   2.421  17.309   0.151 -0.0571  0.4698  0.2356
 5275W        W24809  14.915  11.530   2.247 -0.0565 -0.1518 -0.1760
 5276W        W24810  13.561   1.803   1.809  0.1074  0.2127 -0.2827
 5277W        W24811  12.672   0.248  16.574 -0.0416  0.1253 -0.0446
 5278W        W24812   3.506   0.661  16.919  0.1164  0.0745  0.2651
 5279W        W24813   7.690   5.626  14.839  0.0128  0.0007  0.0885
 5280W        W24814   3.403   6.464   1.036 -0.1950 -0.0811 -0.2496
 5281W        W24815   5.230  16.203  15.522  0.2056  0.0610  0.3519
 5282W        W24816   7.112   0.220   1.992  0.1015  0.0808 -0.4374
 5283W        W24817  12.140  17.405  15.278 -0.0112 -0.1177 -0.1669
 5284W        W24818  12.093   7.609  14.858 -0.0113  0.0415 -0.0744
 5285W        W24819  15.622   6.658   3.537 -0.1164  0.1555  0.0133
 5286W        W24820   9.373  13.200  15.543  0.0080 -0.3124 -0.1566
 5287W        W24821  10.885  13.522  12.607  0.1396 -0.1952 -0.2740
 5288W        W24822  16.391  11.997  15.874  0.1321  0.0134  0.2140
 5289W        W24823   7.699   8.576  16.612  0.0772 -0.0191 -0.0726
 5290W        W24824   3.559   4.203   1.038 -0.0414  0.2230  0.0517
 5291W        W24825   9.836   2.860  16.366  0.0382  0.0546 -0.1228
 5292W        W24826  10.124  17.489   3.309 -0.2374  0.2990 -0.4060
 5293W        W24827  11.158   9.287   4.135 -0.3927 -0.0455 -0.3372
 5294W        W24828   9.025  10.542   4.581 -0.0710  0.1932 -0.2598
 5295W        W24829   2.354   9.093  14.058  0.2324  0.2196  0.3004
 5296W        W24830   2.038  13.452  14.460  0.2994 -0.0493  0.0259
 5297W        W24831   8.309   3.981   3.193  0.0788 -0.0471 -0.0398
 5298W        W24832  11.352   0.503  15.073  0.1334 -0.1844 -0.0101
 5299W        W24833  16.441   2.934   0.708  0.0691  0.3020  0.1048
 5300W        W24834   1.214  10.437  15.914 -0.1649 -0.0398 -0.1239
 5301W        W24835   4.733   2.933   2.182  0.1538 -0.0175 -0.0013
 5302W        W24836  15.138   5.472  13.116  0.4195 -0.0724  0.3804
 5303W        W24837   5.332   2.820   5.381  0.0404 -0.1905  0.0604
 5304W        W24838   0.904   4.889   0.745 -0.3510 -0.1112  0.0661
 5305W        W24839   4.033   8.499  12.747  0.4106 -0.4760  0.2178
 5306W        W24840   0.086   6.765   3.062  0.0706  0.0361 -0.1847
 5307W        W24841  17.088   1.968  17.061  0.2303  0.0989 -0.0262
 5308W        W24842  16.098   7.990   2.817 -0.1493 -0.0095 -0.1708
 5309W        W24843   8.631  16.597  13.263 -0.0599  0.1665 -0.0895
 5310W        W24844   4.947  13.462  14.198 -0.0166  0.5174 -0.0848
 5311W        W24845   8.848   7.272  13.165  0.1002  0.0615 -0.2861
 5312W        W24846   2.739   0.740  13.842  0.0380  0.0333  0.5840
 5313W        W24847   1.893   3.281   4.369 -0.1558  0.2430  0.0755
 5314W        W24848  12.956   7.971  15.058 -0.0764 -0.1416 -0.2598
 5315W        W24849   3.440  17.567  12.723 -0.2142  0.0241  0.3677
 5316W        W24850  12.569  13.615   5.294 -0.2657  0.0066  0.0392
 5317W        W24851   7.528   3.658  12.992  0.1226 -0.0152 -0.0676
 5318W        W24852   4.979   6.467  15.834 -0.0420 -0.2344 -0.1220
 5319W        W24853  13.808   0.900  16.537 -0.1545 -0.0778  0.3076
 5320W        W24854   4.535   1.253   3.563  0.2939 -0.0416  0.0513
 5321W        W24855  14.192   9.302   2.303 -0.0066 -0.0743  0.0259
 5322W        W24856   9.104  12.033  13.154 -0.0664  0.0115 -0.0494
 5323W        W24857   1.643   9.818  15.028  0.0261 -0.0668  0.2558
 5324W        W24858   6.753   6.699  12.065 -0.0266 -0.1190 -0.2445
 5325W        W24859  14.279   0.212  11.964 -0.0054  0.0857  0.2831
 5326W        W24860  15.943  15.738  15.284 -0.2157  0.1853 -0.2399
 5327W        W24861  10.410   8.979   2.089 -0.2334 -0.1261 -0.1711
 5328W        W24862   0.176   0.310  15.773 -0.0361 -0.0257 -0.2270
 5329W        W24863  14.490   0.510   2.130 -0.0205 -0.1689 -0.0933
 5330W        W24864  16.123   8.596   0.671  0.2530 -0.0247 -0.2676
 5331W        W24865   6.116   6.781   1.479  0.1084  0.1380 -0.0530
 5332W        W24866   9.582  15.832  16.460  0.4353 -0.1861  0.4978
 5333W        W24867   9.968   6.898   1.879 -0.0724 -0.2151 -0.0247
 5334W        W24868  16.164   2.657   1.063  0.1295  0.0689  0.0857
 5335W        W24869   5.887   6.579  13.682  0.0761 -0.0398  0.2826
 5336W        W24870   8.681  13.690   4.729 -0.3940  0.3941 -0.1314
 5337W        W24871  12.124  14.494  16.457  0.1399  0.1100  0.1769
 5338W        W24872   7.413   0.303  12.401 -0.1892  0.0113 -0.1174
 5339W        W24873  15.715  11.176   2.480  0.0003  0.2289  0.1049
 5340W        W24874   9.530   2.693   2.113  0.1322  0.2092 -0.0108
 5341W        W24875   7.554   8.082  16.423  0.0477 -0.0277  0.0260
 5342W        W24876   6.217   6.350   2.420 -0.1462 -0.2414  0.1130
 5343W        W24877   0.290   3.238   0.554  0.3408 -0.0996 -0.3173
 5344W        W24878  14.065  13.766  14.475  0.2247  0.1040  0.0263
 5345W        W24879   0.945  15.553   2.560  0.1121 -0.2506 -0.0371
 5346W        W24880  13.684  17.421   4.760  0.1710  0.3423  0.1556
 5347W        W24881   4.071  14.749  16.630  0.0092  0.0546  0.0229
 5348W        W24882   7.689   5.876  15.783 -0.2666  0.1755  0.2833
 5349W        W24883  17.231  12.067   1.671  0.1822  0.0899  0.1232
 5350W        W24884   8.534  17.347  15.775 -0.0431 -0.0147  0.0832
 5351W        W24885  10.139   2.893   0.694 -0.3598 -0.0697  0.0094
 5352W        W24886   3.059  14.992   0.306 -0.0353 -0.1043  0.2170
 5353W        W24887  11.397  12.341   3.707  0.0836  0.0363  0.1284
 5354W        W24888  17.434   3.682  16.944 -0.0443 -0.0948 -0.0524
 5355W        W24889   9.143   9.846  16.463 -0.3324  0.0451  0.0684
 5356W        W24890   0.847  17.614   3.422  0.0292 -0.2801  0.0876
 5357W        W24891   2.053   4.129   2.658  0.1068  0.2558  0.0538
 5358W        W24892   5.387  13.159  14.201 -0.1250 -0.1801 -0.0214
 5359W        W24893   3.940  10.382   3.427 -0.0323 -0.0528 -0.2406
 5360W        W24894   7.905  17.201   3.348  0.2304  0.1155 -0.0160
 5361W        W24895   8.454  14.594  14.708  0.0222 -0.1511  0.0530
 5362W        W24896   4.413  14.606   4.452 -0.0010  0.2852  0.0099
 5363W        W24897  13.663  12.854  14.502  0.2817  0.2295 -0.1855
 5364W        W24898   5.731   8.299   0.486  0.1125 -0.2366 -0.0413
 5365W        W24899   6.444  15.020  14.091 -0.0242  0.0201 -0.0329
 5366W        W24900  16.425   6.034  15.697  0.2298  0.1786 -0.0455
 5367W        W24901   0.668   2.069  15.734 -0.0919 -0.1710  0.1315
 5368W        W24902   0.718   5.451  16.873 -0.0459  0.1926  0.0239
 5369W        W24903   7.124  11.292  12.918 -0.0010  0.1987  0.1021
 5370W        W24904  12.139   8.019   0.108  0.1880 -0.1017  0.0199
 5371W        W24905   5.242  10.502   3.500  0.0358 -0.3107 -0.0574
 5372W        W24906   6.045   6.044  15.818  0.2626 -0.0118 -0.0319
 5373W        W24907   9.806   3.790  13.398  0.0285  0.1055  0.1543
 5374W        W24908   2.341   7.686  12.632 -0.3816  0.0013  0.0449
 5375W        W24909  13.072  14.732   0.692  0.0880 -0.2243  0.2753
 5376W        W24910   3.996  14.816   2.098 -0.0291  0.1820  0.0135
 5377W        W24911   6.010   9.737  12.218  0.1197  0.2218  0.0850
 5378W        W24912  16.917   9.659  16.629  0.1611  0.3607 -0.2741
 5379W        W24913   5.835   1.161   3.322 -0.1185 -0.1602  0.1400
 5380W        W24914   1.354   6.728  13.822 -0.2842  0.4042 -0.0472
 5381W        W24915   0.054  13.952  15.945  0.1933 -0.0148 -0.3931
 5382W        W24916  16.893   1.198  15.196  0.1240  0.1375  0.0228
 5383W        W24917  14.812   3.584  16.210  0.0039 -0.0146 -0.0925
 5384W        W24918   3.960  10.458   2.921 -0.1005  0.1070  0.2505
 5385W        W24919   0.939   4.281   2.461 -0.2362  0.0113  0.0370
 5386W        W24920   1.703  13.512  13.656 -0.1880 -0.0886  0.1641
 5387W        W24921  12.787  10.380  16.605 -0.0562 -0.3105 -0.1492
 5388W        W24922  15.866  11.676  16.650 -0.0181 -0.2071  0.1409
 5389W        W24923   2.568   9.957   0.061  0.0246  0.2613 -0.1063
 5390W        W24924  14.288   4.417   4.021 -0.1882 -0.2088 -0.2400
 5391W        W24925   4.636  17.637  13.272 -0.0622 -0.0652 -0.0575
 5392W        W24926  11.617   1.525  15.447  0.2019  0.3296  0.0430
 5393W        W24927   3.730  14.363   3.174  0.0734  0.0838  0.1936
 5394W        W24928  15.984  14.194   3.938 -0.3085 -0.0233 -0.0227
 5395W        W24929   5.148   4.937  12.525  0.2579 -0.2897 -0.2337
 5396W        W24930   8.066  14.765   4.512  0.1424  0.1162  0.1019
 5397W        W24931  12.210   2.397  14.861 -0.1178  0.1844  0.1722
 5398W        W24932  10.973  15.555  12.523 -0.1184 -0.3193  0.1361
 5399W        W24933   2.751  13.103   0.050 -0.2216  0.3208 -0.0432
 5400W        W24934   1.247  15.903  15.618 -0.2175 -0.1060 -0.3126
 5401W        W24935   6.858  10.457  16.290 -0.1336 -0.2522  0.1476
 5402W        W24936   1.228   3.172  13.377  0.2319  0.3806 -0.2053
 5403W        W24937   9.666  11.245  12.709  0.0362  0.0513  0.2520
 5404W        W24938   5.705  16.156  15.772  0.0354 -0.1427 -0.0825
 5405W        W24939   0.910  14.861  14.723 -0.0194 -0.1382  0.2377
 5406W        W24940   1.295   9.429  15.025 -0.1640 -0.3574  0.0572
 5407W        W24941   4.656   8.052  15.705 -0.2064  0.1388  0.0457
 5408W        W24942   8.812  13.398   1.037 -0.1831 -0.0790 -0.0392
 5409W        W24943  13.159   8.864   0.425 -0.0782  0.1502  0.2190
 5410W        W24944   6.899   9.390   6.091 -0.0143 -0.0382 -0.3643
 5411W        W24945   9.874   0.233  14.592 -0.2371  0.0449 -0.0868
 5412W        W24946   3.211  15.154  13.940 -0.1273  0.0781  0.0191
 5413W        W24947   9.933   6.811  16.909  0.1411  0.0254  0.1466
 5414W        W24948   0.429  15.599  17.009 -0.1533 -0.0200  0.0997
 5415W        W24949  11.693  17.241  15.509 -0.1083 -0.1234  0.3448
 5416W        W24950   3.838   9.508   2.875 -0.0391 -0.0587 -0.2814
 5417W        W24951  15.192   3.999   3.736  0.2842 -0.2598 -0.3387
 5418W        W24952   5.538   9.809  12.150  0.2517 -0.2732  0.2124
 5419W        W24953  16.928   5.301   2.745 -0.3576 -0.1236  0.1921
 5420W        W24954   4.727  10.924  16.024  0.1397 -0.1288  0.0563
 5421W        W24955   1.168   1.555  12.766  0.2237 -0.1519 -0.0375
 5422W        W24956  10.968   3.103  14.340 -0.1817  0.1198 -0.1983
 5423W        W24957   3.726  14.937  13.282  0.2914  0.2070  0.0677
 5424W        W24958   2.819  11.999   5.752  0.0371 -0.1225 -0.4564
 5425W        W24959  15.992   5.595   1.349  0.2322 -0.0263 -0.0490
 5426W        W24960  15.802   9.314  16.180  0.1659  0.2375  0.0544
 5427W        W24961   9.912   3.261  13.722 -0.0339  0.1985 -0.0639
 5428W        W24962   1.870   7.595  12.790 -0.2180  0.2207 -0.1676
 5429W        W24963   8.009   0.345   2.354  0.1113  0.3552 -0.3594
 5430W        W24964  13.135  15.088   3.594  0.1823  0.2381 -0.0203
 5431W        W24965  11.172   7.792  15.602  0.2286 -0.0033 -0.0077
 5432W        W24966  16.880   5.588   5.320  0.1352 -0.1498 -0.0262
 5433W        W24967   6.435  14.221   0.408  0.0236  0.0482  0.0046
 5434W        W24968   2.656   2.892  16.776 -0.1816 -0.1154  0.2594
 5435W        W24969   3.795   8.888   1.139 -0.1102 -0.0158 -0.1422
 5436W        W24970   0.104   5.231  16.080  0.0029  0.0553 -0.0935
 5437W        W24971  14.559  13.237   5.034  0.0149  0.0793 -0.2796
 5438W        W24972   7.497   0.806  12.339  0.0232 -0.2574  0.1350
 5439W        W24973   8.584   4.875   4.848 -0.1046 -0.0626  0.0994
 5440W        W24974   8.042   4.250  14.666 -0.0394 -0.1886 -0.0589
 5441W        W24975  12.525  10.573  16.103  0.5673 -0.2378 -0.2104
 5442W        W24976   4.381   0.116   4.308  0.0357  0.0282  0.0515
 5443W        W24977   5.926   0.210  17.054 -0.1542  0.0877 -0.2091
 5444W        W24978  14.440  15.873  15.505  0.0697  0.4480 -0.1156
 5445W        W24979  13.636  15.825   2.072  0.1523 -0.1012  0.1492
 5446W        W24980  14.036   3.487  13.448  0.5424  0.0327  0.1086
 5447W        W24981  16.588   0.502  13.029  0.1516 -0.2270  0.1387
 5448W        W24982   9.754  10.252  15.010  0.0921 -0.3813  0.1462
 5449W        W24983   1.961   7.711  12.252 -0.1541  0.0990  0.2491
 5450W        W24984   0.294   8.675  11.540 -0.0173  0.0948 -0.3243
 5451W        W24985   1.905  10.927   3.483  0.2519  0.0212  0.0172
 5452W        W24986   9.748  11.294  14.188 -0.2441 -0.2078  0.1630
 5453W        W24987   5.538  11.141  12.068  0.0700 -0.1363  0.3831
 5454W        W24988   9.243  13.918  15.526  0.2273 -0.0236 -0.0727
 5455W        W24989   2.054   1.766  14.688  0.0419  0.0253 -0.1981
 5456W        W24990  11.803  15.939  16.076  0.2787  0.2185  0.1005
 5457W        W24991   4.472  14.001  12.671  0.1085  0.0346  0.0276
 5458W        W24992  14.047   1.431  13.371 -0.0282  0.1539 -0.1953
 5459W        W24993   1.925   9.982  13.005 -0.0885 -0.1018  0.0687
 5460W        W24994   6.237  15.825  13.529 -0.0648 -0.1250  0.0599
 5461W        W24995  16.240   9.795  13.426  0.1478 -0.1272 -0.1575
 5462W        W24996   2.813  10.256   4.972  0.2043 -0.2545  0.0139
 5463W        W24997   3.854   9.613  16.814  0.0688  0.1428  0.0671
 5464W        W24998   1.369  10.801   2.240 -0.0809  0.1975  0.0441
 5465W        W24999   8.163   9.638  14.237  0.2277 -0.0916 -0.1861
 5466W        W25000   9.660   5.755  15.223 -0.0090 -0.0895  0.0215
 5467W        W25001   1.968   5.100   0.729  0.2388  0.0761 -0.2266
 5468W        W25002   5.599  11.361  13.019 -0.2395 -0.1219 -0.1185
 5469W        W25003  10.778   8.748  14.224 -0.1764  0.0176 -0.0191
 5470W        W25004  11.638   0.074   0.846  0.0822 -0.0253  0.2699
 5471W        W25005   2.133  13.311  15.391  0.0396  0.1196  0.0866
 5472W        W25006   5.018   8.423   3.681  0.0538  0.0653 -0.2485
 5473W        W25007   4.808   3.152  14.910  0.1480 -0.0191  0.0077
 5474W        W25008  11.540  14.308   3.479  0.2413 -0.2326 -0.2711
 5475W        W25009  17.612  11.354  12.996  0.0109 -0.0962 -0.2898
 5476W        W25010  13.430   7.520   1.735 -0.0508 -0.0121 -0.1344
 5477W        W25011  16.364   0.933  15.805 -0.0259 -0.1184  0.3446
 5478W        W25012   7.373   5.211  13.981 -0.1940 -0.2007 -0.1513
 5479W        W25013   7.265   2.559   5.291 -0.1813  0.0174  0.3845
 5480W        W25014   6.012   9.566  16.627  0.0475 -0.2168 -0.2343
 5481W        W25015  13.217   2.775   2.933  0.3230  0.2620  0.0997
 5482W        W25016  10.451  13.615   2.970 -0.1968  0.2792 -0.0644
 5483W        W25017   3.590   8.818   1.657  0.2045  0.1516 -0.0008
 5484W        W25018   7.786   3.742   3.149  0.1384 -0.0217 -0.3084
 5485W        W25019   6.020  16.893  14.303  0.2929  0.0838  0.1897
 5486W        W25020  15.651  12.422   3.886 -0.0332 -0.0287  0.5815
 5487W        W25021  10.026   9.331   0.964  0.0691 -0.1628  0.0401
 5488W        W25022   1.321   1.012  16.452 -0.2717  0.1074  0.1475
 5489W        W25023   6.599  10.590   0.010 -0.1316  0.1179 -0.3062
 5490W        W25024   9.296   9.245  13.383 -0.0445 -0.2389  0.1085
 5491W        W25025  12.302  11.084  12.702 -0.0021 -0.0350 -0.3503
 5492W        W25026  16.164   8.143   3.714 -0.0643 -0.5154 -0.0528
 5493W        W25027   1.792  17.075  16.660  0.2626 -0.1261  0.2662
 5494W        W25028   6.387  13.811  16.639 -0.0332 -0.3537  0.1589
 5495W        W25029   9.171   2.108   1.748 -0.1860 -0.2087 -0.1275
 5496W        W25030   7.369  13.124  15.290  0.0478 -0.1966  0.0637
 5497W        W25031   6.072  11.957   0.168 -0.0262  0.1793 -0.2552
 5498W        W25032   1.488  14.847  13.789  0.1273 -0.5274 -0.1683
 5499W        W25033   3.630  10.688   0.367  0.0489 -0.0506 -0.1821
 5500W        W25034   6.248   3.285   5.441 -0.0493 -0.0277  0.1241
 5501W        W25035   1.021  10.391  16.490 -0.2164 -0.2789 -0.2089
 5502W        W25036  11.124  12.362   0.845  0.0264  0.0165 -0.0700
 5503W        W25037   7.819   9.012  12.974  0.3458  0.0845  0.0851
 5504W        W25038   0.482  14.790  12.057  0.1840 -0.0167  0.0441
 5505W        W25039  11.301   1.271  13.620 -0.0138 -0.1839  0.0561
 5506W        W25040  15.591  10.096   0.525  0.3233  0.0137  0.0488
 5507W        W25041  17.271  12.609   2.833  0.2623 -0.1322  0.2071
 5508W        W25042  16.298   7.313   3.357 -0.1451 -0.0558  0.3173
 5509W        W25043  11.777   3.325  14.846 -0.1122  0.0781  0.1815
 5510W        W25044  17.135  10.983  11.947 -0.1799 -0.0363  0.3576
 5511W        W25045  15.535  15.490   3.710 -0.2385 -0.1475 -0.2772
 5512W        W25046   5.366   3.611   2.107 -0.1874  0.1240 -0.1226
 5513W        W25047   1.587   3.323  14.890 -0.0580  0.1968 -0.0908
 5514W        W25048   8.379   9.950  13.361  0.2480  0.0320  0.1569
 5515W        W25049   1.211   5.518   1.194  0.1606  0.0101  0.2090
 5516W        W25050   1.470   6.560   4.888 -0.2210 -0.0122 -0.1915
 5517W        W25051   8.754  13.368  16.964 -0.1948 -0.0541  0.1728
 5518W        W25052   6.145   1.316  14.614 -0.0366  0.0468  0.2368
 5519W        W25053  11.850   2.544  14.457  0.2358  0.2230 -0.0284
 5520W        W25054  14.788   4.841  12.281 -0.2667 -0.2731  0.0042
 5521W        W25055   3.488   6.132  12.441  0.1720 -0.0063  0.1736
 5522W        W25056  14.489   5.761  13.619  0.1723  0.0465  0.3809
 5523W        W25057  15.814   8.934  12.092  0.2939 -0.0219 -0.0181
 5524W        W25058   2.025   1.113   5.123  0.0070  0.0267  0.0029
 5525W        W25059   6.073   0.801  12.851  0.2110  0.0081  0.0676
 5526W        W25060  15.325  15.630  13.078  0.1630 -0.1478  0.2414
 5527W        W25061   1.614   3.393   1.611  0.2997 -0.0048  0.0206
 5528W        W25062  13.130  10.210  12.611 -0.0270  0.2104  0.0052
 5529W        W25063  13.591  10.707   0.600  0.2399 -0.0424 -0.0221
 5530W        W25064   9.420  14.098   3.577  0.3510  0.0162  0.0698
 5531W        W25065   9.008   1.037   1.266  0.4910 -0.0566 -0.1972
 5532W        W25066   6.977  12.165   3.988 -0.0884 -0.4028 -0.0813
 5533W        W25067   7.922   9.463  16.023  0.0374  0.0626  0.1401
 5534W        W25068  13.967  15.000   0.629 -0.0095  0.0577 -0.1677
 5535W        W25069   0.576   8.789  14.739  0.2402 -0.1220 -0.2777
 5536W        W25070   2.157  10.696  15.734  0.0660 -0.1061  0.1519
 5537W        W25071   6.203   5.067  12.484 -0.0291 -0.1490  0.2183
 5538W        W25072  13.669  14.546  16.288  0.0085 -0.0632 -0.1731
 5539W        W25073   6.352   1.102   3.309 -0.1896 -0.0123  0.2632
 5540W        W25074  15.938   2.386  14.077 -0.1769  0.0503 -0.1888
 5541W        W25075   2.144  11.015  16.991  0.1855 -0.0574  0.0815
 5542W        W25076  10.471   2.126   2.059  0.0047 -0.2143  0.1770
 5543W        W25077   1.031   2.902   4.790  0.1427  0.0156 -0.0418
 5544W        W25078   3.392   2.931   4.282  0.1266 -0.2533 -0.0251
 5545W        W25079   4.210   4.447  12.853 -0.1605 -0.1398 -0.0042
 5546W        W25080   9.472   0.733  12.853  0.0340  0.1223  0.2093
 5547W        W25081   6.620  14.492  15.936  0.1449  0.1731  0.0287
 5548W        W25082   9.391  10.565  15.196  0.2708 -0.2570 -0.2691
 5549W        W25083   9.438   6.623  16.545 -0.0091  0.0267 -0.0909
 5550W        W25084  11.200  14.071   0.700  0.1196  0.1953  0.0749
 5551W        W25085  16.607  12.173   1.084  0.0773  0.1538 -0.0834
 5552W        W25086  17.658  12.797  14.580 -0.1098  0.1579  0.1801
 5553W        W25087  13.593   6.612   3.713 -0.1249  0.0410  0.0527
 5554W        W25088  13.369   4.336   0.770  0.1039  0.1660  0.1971
 5555W        W25089  15.867   4.359  15.711  0.2561 -0.1372 -0.0148
 5556W        W25090  14.860   5.405   3.019 -0.0235  0.0869 -0.2985
 5557W        W25091  11.605   9.162  16.649 -0.2475  0.1606 -0.0906
 5558W        W25092  12.495  13.311   3.951  0.1268 -0.2180  0.0694
 5559W        W25093  15.713  11.645   5.238  0.1714  0.1758  0.3262
 5560W        W25094  11.503   1.931   0.342 -0.1080 -0.0076  0.1269
 5561W        W25095   3.347   5.306  16.485 -0.0444  0.0453  0.1769
 5562W        W25096  12.172   7.549   3.144  0.0155  0.1453  0.2012
 5563W        W25097  14.575   4.928   4.641  0.2521 -0.1217  0.1141
 5564W        W25098   9.524  10.379  12.652 -0.0262  0.3077  0.1212
 5565W        W25099  15.846  10.286  16.465  0.0537  0.0234  0.0939
 5566W        W25100   6.172  15.238  17.017  0.0202 -0.1678  0.1783
 5567W        W25101   5.104  14.194  12.672  0.1152  0.1085  0.0710
 5568W        W25102  12.167   8.907   4.311 -0.0917 -0.0456 -0.4205
 5569W        W25103   8.658   2.572  13.946  0.2495 -0.2155 -0.3074
 5570W        W25104   3.014   8.225  14.108  0.2817  0.0925 -0.0660
 5571W        W25105   3.675  11.864   4.736 -0.4142  0.0500 -0.2213
 5572W        W25106  17.141   2.472   5.336  0.1534 -0.2067  0.1661
 5573W        W25107  17.326  14.536   2.307  0.0114 -0.1015  0.0546
 5574W        W25108   0.261   4.146  11.914 -0.1385  0.0767 -0.1484
 5575W        W25109   6.187   2.814  17.040 -0.1442 -0.1923 -0.1336
 5576W        W25110   7.788   5.916  16.437  0.1542  0.3604 -0.2427
 5577W        W25111   6.131   3.346   3.665  0.0216 -0.2000  0.2722
 5578W        W25112   4.938  17.146   1.978 -0.0893 -0.0235 -0.1619
 5579W        W25113   6.522   6.709   1.740  0.1374 -0.2432  0.3047
 5580W        W25114  10.311  15.695  16.866  0.0964 -0.1269 -0.2749
 5581W        W25115   2.699   7.218   1.387  0.0601  0.1448 -0.0366
 5582W        W25116  12.440   6.538  15.481  0.2881  0.0932  0.2365
 5583W        W25117   7.749   7.806  14.551  0.0174  0.1839 -0.1054
 5584W        W25118  12.678   3.188  16.113  0.2593  0.1225 -0.0603
 5585W        W25119   8.125  17.564   3.619  0.1943 -0.3280  0.0529
 5586W        W25120   8.195  10.546   1.354  0.0286 -0.1344  0.0849
 5587W        W25121   4.081   0.766  14.762 -0.1455  0.0030  0.0701
 5588W        W25122   1.076   0.406  14.865  0.2991  0.0128  0.0649
 5589W        W25123  13.133  15.286  16.639  0.0057 -0.3338  0.2133
 5590W        W25124  11.143  10.221   4.270  0.0893  0.0388  0.1260
 5591W        W25125  13.052  16.675   4.057  0.1899  0.0657 -0.1762
 5592W        W25126   6.514   2.975  12.364 -0.1456 -0.1178  0.4130
 5593W        W25127   0.640   2.870   3.061 -0.0970 -0.1127 -0.1569
 5594W        W25128  14.750   3.974  15.781 -0.0468 -0.0759  0.2392
 5595W        W25129   0.875   8.335   4.760  0.1588 -0.2060 -0.0112
 5596W        W25130   1.388   2.274  12.643  0.1256  0.0757  0.0133
 5597W        W25131   6.903  13.724  13.596  0.0275 -0.1333 -0.0790
 5598W        W25132  10.889   5.753   3.626 -0.0611 -0.0413 -0.1292
 5599W        W25133  11.251  12.567   4.949  0.0587  0.3539 -0.3425
 5600W        W25134  10.909   2.307  14.504 -0.2319  0.0260  0.0132
 5601W        W25135   0.306   3.027  16.697  0.0035  0.0040 -0.0454
 5602W        W25136  15.495  10.081   2.309  0.1886  0.2260 -0.2888
 5603W        W25137  14.772   2.451   1.152  0.2262 -0.1013 -0.0161
 5604W        W25138  11.958   4.403  13.943  0.0182  0.0096 -0.0442
 5605W        W25139  11.460  13.979   4.476 -0.3190 -0.0303 -0.0392
 5606W        W25140  14.983  11.595   4.118  0.1354  0.1515  0.0176
 5607W        W25141  17.306   2.520  14.188  0.2241  0.3468  0.2018
 5608W        W25142   8.958  14.659   4.471 -0.0638  0.1049 -0.0952
 5609W        W25143   0.100   2.390  13.992 -0.0104  0.0788 -0.0624
 5610W        W25144   7.219   4.542  14.454 -0.0652  0.0770 -0.0723
 5611W        W25145  11.603  17.178  16.938 -0.0698 -0.1640  0.1016
 5612W        W25146  16.068   6.135  16.642 -0.0114 -0.0882  0.1393
 5613W        W25147  15.399  11.060   4.682 -0.2066 -0.2865 -0.0266
 5614W        W25148   0.013  16.849   2.623 -0.2224 -0.0410 -0.0862
 5615W        W25149  14.396   3.954   3.932  0.0258 -0.0691  0.2467
 5616W        W25150   3.420   4.275  14.619  0.1287  0.3322  0.1589
 5617W        W25151   6.153  15.716   1.015 -0.0485  0.1480  0.2843
 5618W        W25152  11.980   7.785   4.023 -0.1873  0.3919  0.1056
 5619W        W25153   5.787  11.815   1.606  0.0679 -0.2388 -0.1740
 5620W        W25154   9.996  11.595  12.750 -0.1081 -0.0065 -0.0028
 5621W        W25155   5.296   4.438  15.475 -0.0108  0.0251  0.3126
 5622W        W25156   7.003   1.093   4.620 -0.0713  0.0254 -0.0838
 5623W        W25157  13.408  11.549  15.793  0.0332 -0.3701  0.0829
 5624W        W25158  16.309   2.690   3.543 -0.1157  0.0264 -0.1128
 5625W        W25159   1.883  16.509   0.273  0.1974 -0.2571  0.1705
 5626W        W25160   2.927  10.472  13.614 -0.2080  0.1800  0.1223
 5627W        W25161   7.097   7.011  16.385  0.3095 -0.1184 -0.0079
 5628W        W25162   7.662  17.291  13.580  0.1063 -0.2474 -0.2764
 5629W        W25163   9.701  16.652  15.213 -0.0339 -0.0901 -0.0945
 5630W        W25164   3.151   3.861  12.364 -0.0798 -0.0343 -0.0959
 5631W        W25165   7.798  13.043   3.068 -0.1282 -0.1406  0.0581
 5632W        W25166   3.588   2.352   0.521  0.1847  0.6718 -0.1582
 5633W        W25167   5.762   2.640   2.968  0.0029  0.3116 -0.0558
 5634W        W25168   6.188  11.912  15.879  0.0571 -0.0224 -0.1237
 5635W        W25169  17.030   1.487  12.090  0.4244  0.1115  0.1391
 5636W        W25170   6.947  15.023   1.619 -0.2894  0.3166  0.0098
 5637W        W25171   6.270   3.508  14.046  0.1698  0.0287  0.0418
 5638W        W25172   9.390   5.294  12.135  0.3124 -0.1153 -0.0651
 5639W        W25173  10.968   3.256   2.551 -0.1860  0.1318  0.0215
 5640W        W25174   8.754   4.176   2.423 -0.0448 -0.0064  0.5560
 5641W        W25175   4.193   0.929  12.966  0.0080  0.2174  0.1009
 5642W        W25176  11.673  11.381  15.389 -0.0020  0.1591  0.0300
 5643W        W25177   2.360  13.290  16.431 -0.0415 -0.1139 -0.0055
 5644W        W25178  13.748  17.513   0.195  0.2241 -0.0302  0.1937
 5645W        W25179   0.973   5.336  13.107  0.2289  0.0796 -0.1019
 5646W        W25180  16.264   6.730   0.870 -0.0637 -0.0719  0.0210
 5647W        W25181   9.919   3.691   0.074 -0.1404  0.2347 -0.4074
 5648W        W25182   4.392  13.586  12.964 -0.0622  0.3945 -0.1288
 5649W        W25183  12.020  12.689  11.048 -0.2576 -0.1642  0.2572
 5650W        W25184   1.894  12.272  15.312 -0.1999  0.0914 -0.1169
 5651W        W25185   1.763  10.826   1.615 -0.0032 -0.3061 -0.2494
 5652W        W25186  17.315   0.625   4.558 -0.0235  0.0913 -0.0465
 5653W        W25187   6.511  10.263  12.903  0.1697  0.3565 -0.0739
 5654W        W25188   0.959   8.343  15.844  0.3203 -0.0402  0.3435
 5655W        W25189   3.568  13.396   3.101  0.2106  0.3272  0.0203
 5656W        W25190   5.088  17.028   4.290  0.2640  0.1198 -0.0926
 5657W        W25191   7.155   8.164  13.681  0.3223 -0.1599  0.1324
 5658W        W25192  10.518   1.630   1.380  0.1756  0.1515 -0.0316
 5659W        W25193  14.672   9.690  12.900 -0.2067 -0.1051  0.0728
 5660W        W25194  13.631   5.913  15.174 -0.0439  0.2073 -0.2366
 5661W        W25195  13.173  14.341   1.966 -0.0440  0.0995 -0.1321
 5662W        W25196  15.311   3.345  14.596 -0.0783 -0.2658 -0.1500
 5663W        W25197  12.760   6.968  13.302 -0.1251 -0.1628 -0.0285
 5664W        W25198   4.474  13.652   1.500 -0.1025  0.1783  0.0570
 5665W        W25199   7.045   6.039   2.103 -0.0214 -0.1893 -0.2318
 5666W        W25200  12.149   1.212   1.546 -0.2074  0.0523 -0.1403
 5667W        W25201   6.336   5.855  13.129 -0.0452 -0.0190 -0.0014
 5668W        W25202   3.084  11.246  12.409 -0.0104 -0.2276 -0.0941
 5669W        W25203   1.414  12.843   2.486 -0.1940 -0.1317 -0.1774
 5670W        W25204   1.929   4.635   1.672 -0.0443 -0.1755 -0.0189
 5671W        W25205  11.528   1.352  14.914  0.0863 -0.1267  0.1838
 5672W        W25206  10.372  13.341   3.456 -0.1958 -0.0421 -0.1183
 5673W        W25207   6.448   0.064  15.655  0.0861  0.2099 -0.1121
 5674W        W25208   6.491  13.593   1.604 -0.0643 -0.3960  0.2046
 5675W        W25209   9.126  17.159   0.710  0.2367 -0.0072  0.3748
 5676W        W25210  10.275  15.483   5.198 -0.1557 -0.4233 -0.1101
 5677W        W25211   0.034   8.364  14.661  0.1424 -0.0467 -0.0779
 5678W        W25212  13.981   0.548   4.169 -0.0758  0.2685  0.0406
 5679W        W25213  13.446   5.271  13.160 -0.2127 -0.1126  0.1462
 5680W        W25214   1.316  17.153   2.198  0.1941  0.1439  0.1875
 5681W        W25215   6.727   4.361   0.658  0.0109 -0.1513  0.1505
 5682W        W25216   6.784   1.418  12.435 -0.2291 -0.0115  0.0670
 5683W        W25217  14.537  11.856  16.693 -0.0915 -0.1001  0.1286
 5684W        W25218  14.353   7.102   3.297 -0.0143  0.1416  0.0248
 5685W        W25219  17.121  15.940  12.756 -0.0494  0.2480  0.0302
 5686W        W25220  14.272   1.861  15.211 -0.0248  0.0897 -0.0624
 5687W        W25221   9.745  15.768  14.413 -0.3321  0.4348  0.1972
 5688W        W25222   4.655  15.755   0.057  0.0345 -0.0232 -0.0764
 5689W        W25223  11.688  16.084   2.192  0.1748  0.0130  0.0727
 5690W        W25224  17.408  11.604   3.512  0.3394 -0.1570 -0.0835
 5691W        W25225   8.167  10.937   2.223 -0.0299  0.2107 -0.2341
 5692W        W25226   5.400   7.808  17.068 -0.1450 -0.3147  0.2205
 5693W        W25227   1.277   9.254   4.726  0.4782 -0.1352  0.1632
 5694W        W25228  14.235   3.685   2.640  0.1684 -0.1602 -0.0270
 5695W        W25229  10.456  12.129  14.502  0.0322  0.0679  0.1193
 5696W        W25230   6.832   9.448   5.046  0.0755  0.0589 -0.1019
 5697W        W25231  12.212   1.593  13.649 -0.1597 -0.2792  0.0038
 5698W        W25232   8.088  11.384   3.129 -0.1198  0.0034 -0.0944
 5699W        W25233  12.244   1.863   3.395  0.2202  0.0795 -0.1152
 5700W        W25234  12.971   8.671   1.419 -0.0592 -0.2012 -0.2611
 5701W        W25235  12.086  16.361   2.203  0.0156  0.0979  0.2894
 5702W        W25236  16.151   3.255   4.853 -0.2317  0.2445  0.1125
 5703W        W25237   7.360  10.125   1.452  0.3191  0.3423 -0.1325
 5704W        W25238   4.164  14.324  14.367  0.3664  0.1811 -0.0777
 5705W        W25239   3.551   4.316   1.948 -0.2603 -0.1660 -0.0358
 5706W        W25240  15.637   9.853  12.269 -0.0669  0.0232  0.0639
 5707W        W25241  17.125   6.267   4.581 -0.2087 -0.0581  0.0629
 5708W        W25242   1.302   1.427  15.125 -0.1271 -0.0503  0.0345
 5709W        W25243   0.157  16.032   3.314 -0.1421 -0.0812 -0.1782
 5710W        W25244  14.577  11.255  13.168  0.1262  0.1650  0.0075
 5711W        W25245  17.510  14.957   2.095 -0.0875 -0.0727  0.1722
 5712W        W25246   5.859   5.388  14.365 -0.1877 -0.2077  0.0108
 5713W        W25247  17.189  11.472  14.608  0.1299 -0.1375 -0.1537
 5714W        W25248   9.025   6.058  13.276 -0.1496  0.1592  0.1800
 5715W        W25249   1.233   6.901   3.554 -0.1624  0.1847 -0.0549
 5716W        W25250  15.903   0.485   4.423  0.0164 -0.0301  0.3188
 5717W        W25251  16.961   4.618   0.061 -0.3656  0.2528 -0.2832
 5718W        W25252  16.322  12.571  13.273 -0.0481 -0.3184 -0.0292
 5719W        W25253   6.880   4.058  14.424  0.0497 -0.1202  0.0431
 5720W        W25254  12.700   7.411   3.069 -0.0557 -0.0853  0.0904
 5721W        W25255   2.637  17.471   4.079 -0.0491 -0.0121  0.1993
 5722W        W25256  12.555   5.820  15.146 -0.0345 -0.1888  0.0067
 5723W        W25257   9.923   7.110  12.252  0.0975 -0.1064  0.1204
 5724W        W25258   8.410  12.753  11.631  0.0572  0.0658  0.2855
 5725W        W25259   4.189   2.585  17.048  0.2730 -0.1438  0.4987
 5726W        W25260  16.001   6.852   0.440  0.0388  0.0152  0.2791
 5727W        W25261   3.916   0.708  14.240 -0.0294  0.0278  0.0361
 5728W        W25262  15.798   6.478  14.450 -0.0377 -0.0097  0.3632
 5729W        W25263  12.667   4.444  15.020  0.1715  0.1767 -0.2284
 5730W        W25264   9.657   0.364   3.162 -0.2211 -0.0974 -0.1636
 5731W        W25265   7.066  11.335   1.117 -0.0018  0.2069  0.0337
 5732W        W25266  12.161  16.184  16.299  0.1589 -0.0879  0.3224
 5733W        W25267  15.414  11.450   2.055  0.2049  0.1942 -0.0581
 5734W        W25268  10.551  16.691  14.515 -0.3778 -0.1967  0.1583
 5735W        W25269  13.257   3.382   4.326 -0.0338 -0.1022 -0.1792
 5736W        W25270   9.980  16.922   0.644 -0.0132  0.0108  0.0424
 5737W        W25271   5.054  10.798   0.064  0.1668 -0.1300  0.1940
 5738W        W25272   7.700   4.342  12.405 -0.0819 -0.1902  0.5679
 5739W        W25273   1.883   1.959  15.385 -0.3345  0.1175 -0.3035
 5740W        W25274   4.072   5.926   3.793 -0.1790 -0.2176 -0.0836
 5741W        W25275   8.174  14.278   1.449  0.0782  0.2661 -0.2302
 5742W        W25276   5.913  11.277   3.498 -0.2684  0.0120  0.1845
 5743W        W25277   3.120   3.095  16.740 -0.0150 -0.2275  0.0745
 5744W        W25278  15.971   8.134  16.217  0.1824 -0.1039 -0.0553
 5745W        W25279   3.423   6.981  14.660  0.2519 -0.1918  0.2731
 5746W        W25280   7.561  16.539  16.560 -0.0490 -0.1670  0.1581
 5747W        W25281   5.742  11.504   1.260  0.3442 -0.0096  0.1999
 5748W        W25282   1.261   3.292  14.466 -0.2220 -0.1744  0.0500
 5749W        W25283  11.426  13.473  12.980 -0.0055 -0.1598 -0.1548
 5750W        W25284  14.346   3.400   1.743 -0.0554 -0.0272  0.1980
 5751W        W25285   7.865   7.954   3.441 -0.0958  0.0195  0.0262
 5752W        W25286  14.253  15.353   3.335  0.1202  0.1438  0.1293
 5753W        W25287  10.163  16.740  13.288  0.1045 -0.1475  0.1322
 5754W        W25288  10.622   6.472  12.841 -0.0290 -0.0627 -0.1323
 5755W        W25289   0.360   0.814  14.529 -0.0274 -0.1895 -0.1911
 5756W        W25290   5.109  17.133   0.894  0.3128  0.1101  0.2070
 5757W        W25291  10.297  12.822  16.384 -0.4026  0.4200  0.3129
 5758W        W25292   9.362   5.233   3.234  0.1660 -0.2306 -0.1860
 5759W        W25293  16.975  14.780  14.071  0.2608 -0.1061 -0.0735
 5760W        W25294   0.624  10.909  15.564 -0.0900  0.2901  0.1483
 5761W        W25295   2.756   7.126   3.101 -0.0267 -0.2783  0.0948
 5762W        W25296   0.362   6.560   0.497 -0.1438  0.0733 -0.0406
 5763W        W25297  15.212  15.414   4.132 -0.1918  0.2628 -0.0165
 5764W        W25298   3.982  10.894  15.510  0.0171  0.0082 -0.1953
 5765W        W25299  13.805   2.886  16.055 -0.0205 -0.1324  0.0216
 5766W        W25300  14.370  10.070  12.852  0.3869 -0.2715 -0.3149
 5767W        W25301  16.828   2.241  14.182  0.0293 -0.2113  0.1011
 5768W        W25302  12.254   8.583   0.288 -0.0515 -0.4948  0.3525
 5769W        W25303  13.691   4.755   4.394 -0.1323 -0.2048  0.0503
 5770W        W25304   6.929  10.171   1.779  0.0545 -0.1610 -0.1154
 5771W        W25305   6.647   0.779   4.144 -0.0277  0.4138  0.0804
 5772W        W25306  12.985  12.376   3.253  0.4662 -0.4142 -0.2019
 5773W        W25307   4.787  11.358  12.615 -0.0527 -0.0198  0.1048
 5774W        W25308   9.085  12.652  15.422  0.2811 -0.1483  0.1978
 5775W        W25309   2.309  11.920   3.686  0.0412 -0.1650 -0.0891
 5776W        W25310  13.911  14.051   0.072 -0.0560 -0.1751 -0.0045
 5777W        W25311  13.443  16.498  16.705  0.0026 -0.1892  0.1675
 5778W        W25312   0.809  15.389  12.663  0.0849  0.0532 -0.3066
 5779W        W25313   3.790   7.363  14.589 -0.0371  0.4412 -0.1904
 5780W        W25314   3.158   9.556   5.046  0.0462 -0.2264  0.0743
 5781W        W25315   3.413  14.738   3.961 -0.4302 -0.0834 -0.1639
 5782W        W25316   9.480   5.357   2.189 -0.0304 -0.1136  0.0662
 5783W        W25317   7.108  15.246   2.659 -0.1515  0.2100  0.2119
 5784W        W25318  14.416   6.221   2.710  0.0588  0.1234 -0.0205
 5785W        W25319  13.165   3.935  11.637 -0.1146 -0.0474  0.1884
 5786W        W25320   5.873  17.080  11.604  0.2125  0.1585  0.0847
 5787W        W25321   6.770   1.122   5.196  0.1403 -0.0315  0.2418
 5788W        W25322  13.156   2.736   4.327  0.2079 -0.0672 -0.3231
 5789W        W25323   0.577  16.177   4.721 -0.4016 -0.0268  0.0998
 5790W        W25324   5.181  10.417  16.048 -0.1155  0.0993  0.2241
 5791W        W25325  15.956   3.367  13.937 -0.0526 -0.1319 -0.3328
 5792W        W25326  11.111   9.371  11.969 -0.0194 -0.1408 -0.1126
 5793W        W25327  13.589   2.664   3.473  0.1307 -0.1283  0.2644
 5794W        W25328  15.088   1.527  15.503 -0.2073  0.1113  0.0483
 5795W        W25329  12.241   3.888   4.795  0.0520  0.1419 -0.1190
 5796W        W25330  14.154  13.319   4.274 -0.2224 -0.0840 -0.0932
 5797W        W25331  13.435  10.811  15.923 -0.0554  0.2366 -0.0700
 5798W        W25332  14.288   2.836  16.735 -0.2365 -0.0759 -0.2812
 5799W        W25333   6.722  11.509  11.803 -0.0433 -0.1552  0.0004
 5800W        W25334   9.742  10.348   2.925 -0.0131 -0.1368 -0.1805
 5801W        W25335   8.265   9.047   1.063  0.1788 -0.3702  0.0330
 5802W        W25336  14.156   2.505   1.614  0.0488 -0.0445 -0.2590
 5803W        W25337   1.279   4.715  13.882  0.1696 -0.0009 -0.1350
 5804W        W25338   7.913   8.398   4.956 -0.2272  0.1026 -0.2234
 5805W        W25339   3.348   7.271   0.167  0.1578 -0.1686  0.2023
 5806W        W25340   3.785  15.213   4.894 -0.0048 -0.0422  0.0813
 5807W        W25341   4.999   0.518  15.307  0.0731 -0.1625  0.0042
 5808W        W25342  10.104   5.832  16.056  0.2393  0.0093 -0.3847
 5809W        W25343  13.106   9.657   3.747  0.1239  0.3643 -0.2870
 5810W        W25344   9.746   1.031  16.324 -0.1675 -0.0768 -0.0169
 5811W        W25345  11.563   1.921  14.512  0.0456 -0.0198  0.2160
 5812W        W25346  13.959   0.577   2.853  0.1611 -0.0411 -0.0641
 5813W        W25347   4.349  15.760   1.587 -0.0570 -0.0787  0.0152
 5814W        W25348  10.375  14.495   1.727  0.0800 -0.0663 -0.1000
 5815W        W25349   3.192   7.487   4.334 -0.1053  0.0058  0.2050
 5816W        W25350   1.494  13.992  15.673  0.2266  0.1032 -0.2107
 5817W        W25351   3.467  14.806   0.535  0.0913  0.0026 -0.0198
 5818W        W25352  13.647  11.892   2.596 -0.3726  0.0800  0.2255
 5819W        W25353   1.045   7.822   0.053 -0.2318 -0.1324  0.5632
 5820W        W25354  12.994  17.571   3.438  0.1296  0.3538  0.0056
 5821W        W25355  17.226  12.974   3.953 -0.2535  0.1490 -0.2088
 5822W        W25356   2.283  12.890   4.478 -0.0275 -0.0446 -0.0184
 5823W        W25357   1.028  15.199   4.528 -0.1945  0.0367 -0.2173
 5824W        W25358   4.788   0.015   0.309 -0.0580 -0.1441 -0.0834
 5825W        W25359   1.424  16.294  16.728 -0.0564  0.2745  0.1072
 5826W        W25360   3.049  10.209  14.227  0.0743  0.2854 -0.1288
 5827W        W25361   7.306   4.969   3.595  0.3996 -0.2537  0.2171
 5828W        W25362  11.128   8.366  13.284  0.2511 -0.4105 -0.1577
 5829W        W25363  11.714   4.307  16.904  0.0827 -0.0227 -0.3342
 5830W        W25364  13.057   1.787   1.474  0.3161  0.1184 -0.0082
 5831W        W25365  15.553   2.192  16.574 -0.1520 -0.0841  0.1709
 5832W        W25366   2.647  10.873  13.708  0.3119 -0.1499  0.0168
 5833W        W25367  12.232  14.641   4.648  0.1704 -0.0997  0.1272
 5834W        W25368   4.826  12.932  15.496  0.0285  0.0212  0.0359
 5835W        W25369   0.975  12.649   0.305  0.0360 -0.2177 -0.1650
 5836W        W25370   5.305   6.262  16.228 -0.0971  0.2671  0.2452
 5837W        W25371   4.020  11.684   2.102  0.3409 -0.0412  0.2456
 5838W        W25372  13.275   5.659   2.671  0.4478  0.2475  0.2248
 5839W        W25373  11.142   7.888   2.488 -0.0932  0.0111 -0.2684
 5840W        W25374  17.127  12.269  12.953 -0.0875 -0.0860 -0.1112
 5841W        W25375   4.017   7.614   2.993  0.0332 -0.1650 -0.0207
 5842W        W25376  16.144  11.269  12.966 -0.1814  0.4904 -0.1269
 5843W        W25377  13.877  10.697  13.851  0.0563 -0.2175  0.0673
 5844W        W25378   9.638  16.993   1.554 -0.2289  0.2838 -0.3411
 5845W        W25379   7.482  13.640  13.015  0.4519 -0.1721  0.1666
 5846W        W25380   2.303  16.119  15.279 -0.5328  0.0141 -0.1746
 5847W        W25381   2.172   3.020  16.443 -0.0919 -0.0203 -0.0479
 5848W        W25382   5.750   9.880   1.758 -0.4857 -0.0845  0.3657
 5849W        W25383   4.303  10.057  15.021  0.1382  0.2156 -0.0871
 5850W        W25384  17.203   8.507   2.013  0.0475  0.2802 -0.0515
 5851W        W25385  11.125  11.717   3.069 -0.0013 -0.0297  0.1850
 5852W        W25386   7.249   2.780  12.839  0.0917  0.0944  0.0051
 5853W        W25387  12.788  14.795   0.208  0.1480 -0.2197  0.0182
 5854W        W25388  13.866   9.166   3.889  0.0735 -0.1201  0.1142
 5855W        W25389  12.809   7.161   4.016 -0.1559 -0.0867 -0.0217
 5856W        W25390  10.070   5.625   3.859  0.3811  0.1942  0.2620
 5857W        W25391   9.598   8.487   4.116 -0.2988  0.2712 -0.0926
 5858W        W25392  14.135  13.623  12.846 -0.0256 -0.2271  0.0482
 5859W        W25393   5.013   2.825   4.942 -0.0811 -0.1015  0.1251
 5860W        W25394   8.370   4.758   2.053 -0.1109  0.3500 -0.2485
 5861W        W25395  13.012   3.519   0.655  0.3497 -0.0689  0.1085
 5862W        W25396   6.390   2.668  13.194 -0.0195  0.1828  0.0505
 5863W        W25397   1.893  15.386   3.553  0.0708 -0.1759  0.2568
 5864W        W25398  10.058   9.542  12.413 -0.2362  0.0688 -0.1513
 5865W        W25399   0.085  16.647  15.251  0.1023  0.2007  0.2855
 5866W        W25400   4.351   0.924   0.354  0.2891 -0.1778 -0.1337
 5867W        W25401   9.268   8.110   4.630  0.1186  0.1602  0.2205
 5868W        W25402   7.698  14.321   2.785 -0.0596 -0.0067 -0.0539
 5869W        W25403  16.397   1.610  12.813  0.1077 -0.1171 -0.1955
 5870W        W25404   1.829   9.438   4.241  0.3436  0.0390 -0.0603
 5871W        W25405  12.804   7.381  14.030  0.3218 -0.1661  0.1794
 5872W        W25406   3.359  15.882   2.504 -0.3511  0.0830 -0.0017
 5873W        W25407  16.736   6.767  12.075  0.1692  0.0339 -0.1259
 5874W        W25408  15.446   1.566   2.071  0.0149  0.1368  0.1170
 5875W        W25409   8.070  10.015  16.752  0.2247 -0.2344 -0.3870
 5876W        W25410  15.638  12.732   4.418  0.0131  0.1657  0.0992
 5877W        W25411   5.345   5.157   4.151  0.0452  0.1628 -0.0589
 5878W        W25412   0.846   7.693   2.272 -0.0547 -0.1492  0.2712
 5879W        W25413   7.342  10.198   5.243 -0.0127  0.0874 -0.1815
 5880W        W25414   3.380  14.007  16.887  0.0945  0.1745 -0.1213
 5881W        W25415   4.695   6.497   1.668 -0.0826 -0.0110  0.1674
 5882W        W25416   4.139   0.655   0.739  0.3281 -0.2830  0.1811
 5883W        W25417  17.169  14.477  11.789 -0.4638 -0.0661 -0.1097
 5884W        W25418  13.999  17.316  16.220 -0.1001 -0.0335 -0.1189
 5885W        W25419   7.151  13.703  15.850 -0.4194 -0.2047  0.1610
 5886W        W25420  11.047  12.307   3.157 -0.0569 -0.1136  0.1355
 5887W        W25421   2.923   7.708   2.919  0.3040 -0.2285 -0.1362
 5888W        W25422   2.392   8.838  16.444  0.2779  0.0197  0.1667
 5889W        W25423   2.047   4.704  16.144  0.2306 -0.0204 -0.1534
 5890W        W25424   5.601   3.215  13.717 -0.2361 -0.3684 -0.1091
 5891W        W25425  11.052   9.709  14.131 -0.2716 -0.0090  0.1242
 5892W        W25426  11.781  14.645   3.162  0.2130  0.0573  0.1589
 5893W        W25427   3.697   0.285  14.671 -0.1967  0.1314  0.0106
 5894W        W25428   8.704  10.565   4.197  0.0946  0.0087  0.0267
 5895W        W25429   4.967   9.608   2.065 -0.1054  0.1108  0.1988
 5896W        W25430  12.171   3.209   0.674 -0.0998 -0.0043 -0.0851
 5897W        W25431  13.856   8.690  16.240 -0.0021 -0.0652 -0.1042
 5898W        W25432  13.177  13.903  15.115 -0.1970  0.0601  0.3552
 5899W        W25433   2.425   4.010   1.395  0.0807 -0.2181  0.1275
 5900W        W25434   3.066  17.364  14.324 -0.0902 -0.2933 -0.1508
 5901W        W25435   1.967  13.441  14.924 -0.0602 -0.1106 -0.0578
 5902W        W25436   6.216   6.073   4.614  0.0414 -0.0900  0.2390
 5903W        W25437  13.481   2.145   3.650  0.2991 -0.2188  0.2151
 5904W        W25438  11.700   4.065  15.306  0.1344  0.0167 -0.0587
 5905W        W25439   9.082   4.285  13.079  0.0519 -0.0279  0.1926
 5906W        W25440  10.054  13.366   0.058  0.2243 -0.0127  0.0703
 5907W        W25441   9.988  13.309   2.842 -0.1644  0.1111  0.1531
 5908W        W25442   6.280   8.741   3.089 -0.1713  0.0613 -0.0196
 5909W        W25443  12.142  11.483  12.968  0.2694  0.0772  0.0480
 5910W        W25444   6.284   9.623   4.840 -0.2008 -0.0227 -0.1739
 5911W        W25445   5.736   3.566  15.326  0.1734 -0.2007  0.0634
 5912W        W25446   8.871   8.664   2.322  0.2691  0.1470 -0.0957
 5913W        W25447   7.005   4.344  16.516  0.1114 -0.0192  0.0524
 5914W        W25448  12.281  14.931   2.573  0.1122  0.0758  0.2005
 5915W        W25449   1.645   4.202  14.431  0.0828  0.1935 -0.0469
 5916W        W25450   5.696  14.208  14.046  0.1703  0.1072  0.0441
 5917W        W25451  13.452   6.948  12.026 -0.2339  0.1400 -0.0446
 5918W        W25452  14.930  13.092  14.351 -0.1270 -0.1475  0.3125
 5919W        W25453  14.681   5.633  12.665 -0.1077  0.0947  0.1874
 5920W        W25454  11.065   1.332  16.585  0.0229  0.0345  0.0888
 5921W        W25455  13.916   3.195   0.457 -0.4304 -0.3903 -0.0704
 5922W        W25456   2.481   3.130   4.175  0.0224 -0.1062  0.1443
 5923W        W25457  12.639   6.831  12.386  0.1213 -0.0715  0.0507
 5924W        W25458  14.799   1.595   3.220 -0.1620 -0.0069  0.2498
 5925W        W25459   8.997  14.564   1.818  0.0666  0.0363  0.1416
 5926W        W25460   1.362   5.634  14.213  0.0269 -0.1940 -0.0522
 5927W        W25461   2.836   9.490  16.102 -0.2008 -0.2640 -0.0947
 5928W        W25462  11.194   9.340   3.096  0.3535 -0.2269  0.3755
 5929W        W25463   4.736   7.375   5.060  0.0074  0.1505  0.0236
 5930W        W25464  14.960   7.985  15.430  0.0568 -0.1948 -0.0981
 5931W        W25465  15.365   9.325   3.667  0.2560 -0.0438 -0.0602
 5932W        W25466  12.388  11.089   4.716 -0.1171 -0.0333 -0.0200
 5933W        W25467  14.402   4.164  13.964  0.0826  0.2047  0.0722
 5934W        W25468   6.639  15.112   4.588 -0.2319 -0.0264 -0.1037
 5935W        W25469  13.915  17.553   2.474  0.0830  0.0697  0.3309
 5936W        W25470   0.388   3.172   1.059 -0.0612 -0.2183 -0.3986
 5937W        W25471  16.640   2.521  15.544 -0.2523  0.0386  0.1345
 5938W        W25472  12.344  13.275  12.834 -0.0599 -0.6449 -0.0129
 5939W        W25473   5.874  16.513  14.827  0.2596  0.2620 -0.0460
 5940W        W25474  15.014  16.765   0.925 -0.0790  0.0146 -0.0468
 5941W        W25475  12.373  17.127   2.894  0.0968  0.0816 -0.3128
 5942W        W25476   6.296  14.056   1.360 -0.0046  0.1480 -0.2970
 5943W        W25477   0.486  17.040   0.836 -0.1279  0.1995  0.1079
 5944W        W25478  16.712  14.073   0.807 -0.1205 -0.3407 -0.1673
 5945W        W25479   4.964   1.990   3.541 -0.0466 -0.2206 -0.0497
 5946W        W25480  11.115  16.582   4.145 -0.0135  0.0055 -0.0394
 5947W        W25481   0.441   0.703   3.912  0.2706  0.1162  0.1883
 5948W        W25482   0.080   4.521   4.511 -0.1657  0.1225 -0.1668
 5949W        W25483   0.728   6.979  13.138  0.0889 -0.1292 -0.0326
 5950W        W25484  12.098   3.096  13.629  0.0878 -0.1403  0.1884
 5951W        W25485   8.610   9.991  16.567  0.0105 -0.0479 -0.1508
 5952W        W25486   4.587  14.169   1.620 -0.1827 -0.2294 -0.0726
 5953W        W25487  13.557   7.961  14.298  0.1352 -0.2202  0.2051
 5954W        W25488   4.358  16.069   4.041  0.1543 -0.2273  0.0592
 5955W        W25489   1.261  11.975   0.904 -0.2564 -0.0289  0.1571
 5956W        W25490   8.787   7.370  15.310  0.2555 -0.0783 -0.0045
 5957W        W25491  14.507   2.413  14.162 -0.2648  0.0357  0.1129
 5958W        W25492   8.114   9.108  13.833 -0.2373  0.0931 -0.0263
 5959W        W25493  10.784   9.384  15.957  0.1357  0.1647  0.1004
 5960W        W25494  16.156  14.964  12.379 -0.1410  0.0834  0.1496
 5961W        W25495  11.396  14.910   1.333  0.2108 -0.4894  0.1545
 5962W        W25496   5.410  15.135   3.097 -0.2449 -0.2835 -0.0246
 5963W        W25497   0.132  12.405  11.757 -0.2041  0.0003  0.2343
 5964W        W25498   1.026   2.347  17.011  0.1534  0.3391 -0.0487
 5965W        W25499  16.324   8.853  14.681  0.0084  0.2966  0.0257
 5966W        W25500  17.052   1.106  16.582 -0.1395  0.0247 -0.0530
 5967W        W25501   9.968   4.703   2.765  0.3104 -0.0179  0.0602
 5968W        W25502  13.462   9.895  13.351  0.0018  0.0990 -0.0139
 5969W        W25503   3.798  17.143  12.092 -0.0155 -0.1531 -0.0914
 5970W        W25504   5.307   9.878  12.564 -0.2211  0.0847 -0.0255
 5971W        W25505   4.931   7.337  16.234 -0.0051  0.1191 -0.0783
 5972W        W25506   8.711  13.633  12.719 -0.1493 -0.0244 -0.0296
 5973W        W25507  10.154   5.899  13.816  0.0972 -0.2253  0.1283
 5974W        W25508   7.117   7.151   3.281  0.1991  0.2582  0.2066
 5975W        W25509   8.270  11.630  16.560  0.0850  0.1370  0.1479
 5976W        W25510   7.616   5.050   1.074 -0.0845 -0.1236  0.2778
 5977W        W25511   1.582   8.597   2.908  0.0272  0.0810  0.2279
 5978W        W25512   2.013  12.560   0.315 -0.0246 -0.1065  0.2878
 5979W        W25513  17.639   4.288   3.340  0.3406 -0.1243 -0.2196
 5980W        W25514   8.831  14.876   4.015  0.0496  0.1491 -0.0520
 5981W        W25515  14.185   0.423   5.472 -0.2934  0.0632 -0.0228
 5982W        W25516  15.359   8.048  13.784  0.3484  0.1372  0.1493
 5983W        W25517   7.132  12.616   4.210  0.2616  0.1122  0.0466
 5984W        W25518  12.591   0.268  15.532  0.0084  0.1309 -0.0083
 5985W        W25519   5.695   3.685  13.919 -0.1083  0.2191 -0.1807
 5986W        W25520   5.162   1.706   0.462  0.4907  0.0537  0.1774
 5987W        W25521   7.130   2.290   4.218 -0.1221 -0.0439  0.2142
 5988W        W25522   5.484  11.709  13.448 -0.3981  0.0426 -0.0565
 5989W        W25523   2.711  15.345   2.918 -0.0755 -0.1484 -0.0894
 5990W        W25524   6.434  17.359   1.748 -0.3545  0.1184 -0.1270
 5991W        W25525   5.733   4.481  16.440  0.0049 -0.0662  0.2444
 5992W        W25526   2.011   8.732   2.705 -0.1259  0.0538  0.1765
 5993W        W25527  16.709  16.156  13.451  0.0957 -0.2179 -0.1483
 5994W        W25528   4.950   0.469   4.042 -0.0101 -0.0296  0.1590
 5995W        W25529  15.452   7.683   2.672 -0.1416  0.0182 -0.0053
 5996W        W25530  11.002  15.613   4.652  0.2072 -0.0105  0.1172
 5997W        W25531   4.058  12.752  13.599 -0.0866 -0.1075  0.0185
 5998W        W25532   8.611  13.354  16.156  0.0157 -0.0948  0.2961
 5999W        W25533   1.747  17.284  15.064  0.2282  0.0722  0.0570
 6000W        W25534  10.885   9.293  13.543 -0.1041 -0.1273 -0.0308
 6001W        W25535   4.037  11.312   2.980  0.1290 -0.2084 -0.1707
 6002W        W25536   6.496   8.144   0.490  0.1883 -0.0542  0.0048
 6003W        W25537  13.618  15.690   4.179 -0.0601  0.0479  0.2033
 6004W        W25538   3.209  12.590   1.027 -0.0793 -0.0560  0.1646
 6005W        W25539   8.026   6.063   1.115  0.0353  0.0166  0.2747
 6006W        W25540   1.812  14.014  14.533  0.2124  0.0455  0.1234
 6007W        W25541   8.830  13.279   1.529 -0.0523  0.0902 -0.1431
 6008W        W25542   1.942  11.471  14.857  0.1933  0.1869 -0.1451
 6009W        W25543   6.979   3.385  13.702 -0.0777  0.2312  0.1182
 6010W        W25544   6.198  16.714   0.183  0.3053 -0.2512  0.2544
 6011W        W25545  17.031   8.099   1.764  0.2441  0.0614 -0.2712
 6012W        W25546   6.193  17.413  16.485 -0.0022  0.1673 -0.0301
 6013W        W25547   0.564   0.465   4.726  0.1163  0.0290  0.1540
 6014W        W25548   1.376  14.369  13.922 -0.2991  0.1389  0.1357
 6015W        W25549   7.246  11.588  15.173  0.0110 -0.3451 -0.1232
 6016W        W25550   3.977   8.513   1.514 -0.0640  0.0306  0.1754
 6017W        W25551   7.781  11.292   0.307 -0.0538  0.3591 -0.0713
 6018W        W25552   5.407  13.741   2.568  0.0628  0.1156  0.3285
 6019W        W25553   1.208   3.976   0.143  0.2845  0.4047  0.0485
 6020W        W25554   9.870   9.767  15.272  0.2709 -0.1320 -0.0172
 6021W        W25555  16.099  12.214  16.714  0.0957  0.1031 -0.0446
 6022W        W25556  10.743   5.282   1.328 -0.1221 -0.4703 -0.1580
 6023W        W25557  11.889  13.506   0.803 -0.1051  0.2962 -0.2314
 6024W        W25558   2.447   0.568  14.228  0.2868 -0.1458  0.0945
 6025W        W25559   5.239   0.293   0.143 -0.0811 -0.0070  0.0694
 6026W        W25560   9.274   6.099  15.350 -0.4372 -0.2032  0.3109
 6027W        W25561  17.565   8.041   0.507 -0.2838  0.2837  0.0890
 6028W        W25562   1.588   4.664  13.134 -0.0842  0.3549  0.2564
 6029W        W25563  16.956   7.759   3.866 -0.1460 -0.1295  0.1960
 6030W        W25564   6.373  17.361   3.074  0.0090  0.1373  0.1944
 6031W        W25565   4.188   8.977   1.527 -0.2959 -0.3011 -0.4086
 6032W        W25566   2.176   4.461   1.260 -0.3565  0.2308 -0.0466
 6033W        W25567  15.630  14.345  15.684  0.3354 -0.0595  0.0481
 6034W        W25568  16.576  16.647   1.195 -0.0670  0.1689 -0.0091
 6035W        W25569  17.073   6.391  16.308 -0.2916 -0.1374  0.3966
 6036W        W25570   5.772  15.595  13.619  0.1544  0.2651  0.1993
 6037W        W25571  11.805  13.620  14.291 -0.0896  0.0532  0.0375
 6038W        W25572   2.958  15.571  13.338  0.1140 -0.2078 -0.0216
 6039W        W25573  10.770  10.429  15.681  0.2147  0.0619  0.0935
 6040W        W25574   4.310  15.725  14.716 -0.1009  0.0497  0.2061
 6041W        W25575   1.702  12.875  12.544  0.1606 -0.0865  0.0693
 6042W        W25576   0.367  10.099  15.820  0.0254  0.0865 -0.0677
 6043W        W25577   6.216   2.354  13.556 -0.1377  0.0351  0.3682
 6044W        W25578   9.464  16.416   3.919  0.0033 -0.1710 -0.2887
 6045W        W25579   5.229   0.327  12.857  0.2421  0.2216 -0.0448
 6046W        W25580  12.014   2.775  16.618 -0.3494 -0.0113 -0.2224
 6047W        W25581   6.411   4.355   4.574  0.2894  0.3131 -0.1020
 6048W        W25582   5.275  16.495  11.928 -0.0908  0.1704 -0.2998
 6049W        W25583  10.865   0.042  16.846 -0.1219  0.0694 -0.2035
 6050W        W25584  13.018  11.148  15.062  0.0209 -0.0003 -0.1181
 6051W        W25585   2.431  16.547  17.021 -0.0452  0.2657  0.1025
 6052W        W25586   2.693  17.302  16.474 -0.0484 -0.2492 -0.1389
 6053W        W25587   7.930   0.692   4.278  0.1837  0.0337  0.1168
 6054W        W25588  17.453   9.899   1.766 -0.0006 -0.2152 -0.1661
 6055W        W25589   8.210   3.212   3.776  0.0771  0.0540 -0.0130
 6056W        W25590   3.872  15.359  14.977  0.0173 -0.1270 -0.0876
 6057W        W25591  10.743   8.269  14.424 -0.0482 -0.0453 -0.0654
 6058W        W25592  15.819  16.424   4.053 -0.0562  0.2064  0.0300
 6059W        W25593  15.254  14.054   5.027  0.3531  0.0104  0.0046
 6060W        W25594   7.048  15.273  15.882  0.0838 -0.0827  0.0578
 6061W        W25595  14.319   8.294   1.152 -0.0517 -0.2562 -0.1415
 6062W        W25596   9.976   5.026  14.274 -0.0000 -0.2678 -0.3248
 6063W        W25597   0.733   8.235   2.203  0.0638 -0.0865  0.2582
 6064W        W25598  12.901   5.802  13.787 -0.0364 -0.3474  0.0949
 6065W        W25599   7.490  17.098   4.857 -0.0195  0.2225  0.2778
 6066W        W25600   1.403   2.023  16.067 -0.1397 -0.1161  0.0382
 6067W        W25601  15.733   3.184   4.044  0.1442  0.0916 -0.1140
 6068W        W25602  15.255  12.448   4.331 -0.1735 -0.1836 -0.1549
 6069W        W25603   6.699   2.711   0.091 -0.2208  0.1634  0.0512
 6070W        W25604  10.931   9.678  15.221  0.0197 -0.2892 -0.4487
 6071W        W25605   8.966  15.461   3.324 -0.0052 -0.0026  0.1351
 6072W        W25606   8.514  11.620   3.271 -0.1532  0.1875 -0.0211
 6073W        W25607  10.029   2.225   4.868  0.0985 -0.1916 -0.0218
 6074W        W25608  11.833  12.286  15.361  0.0740  0.2013 -0.0270
 6075W        W25609  14.290   2.618  14.659  0.2593 -0.1339 -0.1350
 6076W        W25610   4.638   6.348   3.284 -0.3582  0.4308 -0.0658
 6077W        W25611   0.367  16.049  14.512 -0.1652 -0.0672  0.1410
 6078W        W25612  10.110   2.259  15.683 -0.0988  0.0209 -0.1316
 6079W        W25613  15.119   3.285  17.024 -0.1252  0.2015 -0.1763
 6080W        W25614  14.327   0.306   2.572  0.3278 -0.0683  0.0526
 6081W        W25615   2.407   6.283   5.083  0.2802 -0.1268  0.0155
 6082W        W25616  16.697  15.864  12.074 -0.3028  0.0051  0.1171
 6083W        W25617  10.311  10.571   4.086 -0.3870 -0.3555  0.4283
 6084W        W25618  12.112  15.849   2.260 -0.1904  0.1332 -0.1612
 6085W        W25619   5.003   8.863  14.080  0.1925  0.0769  0.1525
 6086W        W25620  10.799  14.266  12.989  0.0910  0.1297  0.2367
 6087W        W25621  11.308   8.993   2.446 -0.3230  0.2934 -0.0831
 6088W        W25622  15.511  15.978   0.050 -0.3613  0.1756 -0.3126
 6089W        W25623  17.110   4.840   4.141 -0.0145 -0.0077  0.0853
 6090W        W25624  16.205  16.709  14.158 -0.0345 -0.0769 -0.2509
 6091W        W25625  11.574   4.766   1.464  0.2228  0.0906  0.1359
 6092W        W25626   7.362   5.506   4.667  0.2709 -0.1637 -0.6002
 6093W        W25627   0.570   9.873   3.683 -0.0445  0.1592 -0.1362
 6094W        W25628  11.301  13.281   2.418  0.0234  0.0791  0.1709
 6095W        W25629  17.483   9.785   3.336  0.1750 -0.1259  0.2138
 6096W        W25630  16.166  15.459  12.698  0.2928  0.0499  0.0404
 6097W        W25631   1.732  14.250  11.790  0.0756  0.0145  0.2018
 6098W        W25632   2.611  10.522  12.085  0.0857 -0.1353 -0.1622
 6099W        W25633   3.592   8.473  16.187 -0.2603  0.2223 -0.2201
 6100W        W25634  17.361   5.062   0.739 -0.0839  0.1434  0.2004
 6101W        W25635  15.804  17.428  16.195  0.1234 -0.1804  0.1793
 6102W        W25636   7.733   4.628  14.783 -0.0850 -0.0274  0.3339
 6103W        W25637  15.266  11.436  15.806  0.0181 -0.1122  0.1418
 6104W        W25638  13.606   7.679   0.796 -0.1466 -0.0663 -0.1164
 6105W        W25639  12.548   4.158  13.308  0.0220  0.0429  0.1148
 6106W        W25640   2.366  13.794   2.338 -0.0854  0.0128  0.1243
 6107W        W25641   1.581   3.807  16.350  0.0430 -0.2183  0.1042
 6108W        W25642  12.283  12.683   2.273  0.2135 -0.1540  0.0461
 6109W        W25643   8.159  13.739   3.403 -0.1467  0.1420 -0.4038
 6110W        W25644   4.450   8.237  13.452 -0.2273  0.0059 -0.1157
 6111W        W25645   4.294  11.723  15.949 -0.2006  0.1558  0.2864
 6112W        W25646  12.095   3.866  16.172  0.1411  0.3207 -0.0636
 6113W        W25647  15.278  15.487   3.176  0.0803 -0.2388  0.1674
 6114W        W25648  12.855   1.146   2.259 -0.2639  0.1231 -0.2517
 6115W        W25649   3.017  15.846  15.872  0.0825 -0.0664 -0.0688
 6116W        W25650  12.262   8.647  12.386  0.2363  0.1620  0.1203
 6117W        W25651   6.158  17.354  15.981 -0.0565 -0.1360  0.3323
 6118W        W25652   9.260   4.516   2.334  0.1727 -0.0571 -0.0300
 6119W        W25653  12.234  13.254  14.531 -0.1641  0.0320  0.1031
 6120W        W25654  12.105   5.676  13.504  0.1580  0.1708 -0.0209
 6121W        W25655  17.628   2.683  12.638  0.1697  0.4096  0.0047
 6122W        W25656   6.453   1.732   2.259 -0.0427 -0.0576 -0.1803
 6123W        W25657  12.781   0.262  13.386  0.2110 -0.0459  0.0889
 6124W        W25658  16.979  10.653   2.389  0.2277 -0.2330  0.1267
 6125W        W25659   8.781   7.066   0.003  0.2822 -0.1300 -0.2944
 6126W        W25660  10.221  16.740  16.805  0.2279  0.0055 -0.0561
 6127W        W25661   2.513  14.390  12.287  0.2309 -0.3258  0.2714
 6128W        W25662  10.686   6.760   1.159 -0.1492  0.2424  0.2540
 6129W        W25663  14.962   3.985  12.037 -0.1758  0.0137  0.1477
 6130W        W25664  15.363  10.990   1.380 -0.0606  0.0001  0.0606
 6131W        W25665   7.750  13.440   1.798 -0.0142  0.2516  0.1430
 6132W        W25666   8.487   7.695   0.864  0.1476  0.0454 -0.2623
 6133W        W25667   9.476   3.745   0.339 -0.5703 -0.1271  0.3450
 6134W        W25668  14.804   8.086   3.697 -0.1629 -0.0717 -0.0602
 6135W        W25669   5.607  10.711   4.160 -0.1714  0.0505  0.1637
 6136W        W25670  16.849  17.539   6.244 -0.0824  0.1667 -0.0450
 6137W        W25671   1.849  15.690   2.940 -0.1667 -0.0968 -0.3648
 6138W        W25672  15.847   3.839  13.962  0.0233 -0.3971  0.0582
 6139W        W25673   5.210   7.140   1.187 -0.0148  0.2307 -0.0717
 6140W        W25674   8.058  14.270  13.364  0.1719  0.0581  0.1780
 6141W        W25675  13.070  13.568  14.736  0.0198  0.0397  0.2530
 6142W        W25676   6.042  15.532   3.482  0.0377  0.3231  0.3006
 6143W        W25677  11.363   0.315   3.034 -0.1544 -0.1383 -0.1849
 6144W        W25678   6.208   5.164   2.794  0.0683 -0.0774 -0.0503
 6145W        W25679   2.568   8.085   2.394  0.2241 -0.4318 -0.1274
 6146W        W25680   3.596  15.574   3.529  0.1164  0.1007  0.0873
 6147W        W25681   1.076   5.542   4.883  0.4041 -0.2595 -0.0125
 6148W        W25682   7.101   9.407   0.530 -0.2072 -0.0414 -0.1277
 6149W        W25683  11.313   9.510  13.258  0.0356 -0.1129  0.0871
 6150W        W25684  12.659   3.983   0.390 -0.1871 -0.1973 -0.1058
 6151W        W25685   8.838   6.138   2.601 -0.2627  0.1337 -0.1076
 6152W        W25686   9.878   7.337   1.226  0.1735  0.1107 -0.1481
 6153W        W25687   5.167   6.391   1.636 -0.1619  0.3905  0.1285
 6154W        W25688   9.392  14.854   4.579 -0.0850 -0.2377  0.2044
 6155W        W25689   4.459   7.809   3.123  0.2102 -0.2280 -0.2200
 6156W        W25690   1.254   3.161   1.984  0.0813 -0.2563  0.0760
 6157W        W25691  13.550   5.949   1.506 -0.1543  0.0232  0.3812
 6158W        W25692  11.054  10.303  13.403  0.0382  0.0434  0.1799
 6159W        W25693   7.964   6.090   4.997  0.2117 -0.1539 -0.0190
 6160W        W25694   6.309   2.206   2.297  0.3243  0.0625 -0.3070
 6161W        W25695  13.640   5.170  15.783 -0.4848 -0.0746 -0.1638
 6162W        W25696   0.032   3.419  12.217 -0.2738  0.0089  0.3146
 6163W        W25697   1.323  11.799   2.313  0.0477  0.2623 -0.0764
 6164W        W25698  16.942   7.615   4.882  0.2767 -0.0565 -0.1764
 6165W        W25699  12.949  14.151  14.487 -0.1491  0.0013  0.1900
 6166W        W25700   1.886  17.408   2.554 -0.2887  0.1513 -0.0796
 6167W        W25701   2.530   5.627  14.017  0.2526 -0.1741  0.0221
 6168W        W25702   8.891  15.923   3.416 -0.0569 -0.2110 -0.2831
 6169W        W25703  14.767   1.087  14.826  0.0647 -0.1743  0.2433
 6170W        W25704   7.071  13.992  14.860  0.2300  0.0428 -0.0274
 6171W        W25705   1.527   7.586  12.121 -0.1151  0.1681  0.2895
 6172W        W25706   3.977   1.988  16.604 -0.0572 -0.1497 -0.0366
 6173W        W25707   6.345   6.807  14.558 -0.0665 -0.2938 -0.0174
 6174W        W25708  17.232   1.042   0.104  0.0187  0.2818  0.1265
 6175W        W25709   4.903  10.514  12.194 -0.2357 -0.1829 -0.1494
 6176W        W25710  16.460   1.863   2.512  0.3503 -0.0107  0.0572
 6177W        W25711   4.066   5.290  13.148  0.0811  0.1033  0.0459
 6178W        W25712   5.482  15.290   2.595  0.1171 -0.1338  0.0589
 6179W        W25713   0.718   7.998  13.874 -0.0681  0.0155 -0.1824
 6180W        W25714   3.843  15.794  16.204 -0.2477 -0.1324 -0.0796
 6181W        W25715   3.290   8.847   4.612 -0.2008 -0.0503 -0.3757
 6182W        W25716   7.608   4.566   0.806 -0.2644  0.3823  0.3044
 6183W        W25717   2.000   3.802  12.848 -0.1291  0.0510  0.0670
 6184W        W25718   1.237   6.780  13.083  0.0755 -0.0724 -0.2647
 6185W        W25719  15.023  14.993   4.446  0.1054 -0.1526  0.2164
 6186W        W25720  17.634  12.686   3.288  0.3143 -0.3375 -0.0192
 6187W        W25721  14.640  10.533   4.359 -0.2027  0.4085 -0.0317
 6188W        W25722   6.024  13.375  15.726  0.1699  0.1469  0.1062
 6189W        W25723   2.654   6.372  16.658  0.1200 -0.2035 -0.0947
 6190W        W25724  16.717  13.278  13.151 -0.2913 -0.0813  0.2000
 6191W        W25725  12.703  10.293   4.248 -0.1914 -0.2388  0.1422
 6192W        W25726  11.841   2.694   1.534  0.0160  0.0328  0.1454
 6193W        W25727  12.419   1.723   1.377  0.1338 -0.2047 -0.3056
 6194W        W25728   1.129   6.620   3.165  0.0444  0.0207  0.2702
 6195W        W25729   4.125   7.629   0.577  0.0181  0.0281  0.2643
 6196W        W25730   9.612   1.340   4.506 -0.0522  0.0546 -0.1419
 6197W        W25731  13.144  16.638  14.484 -0.2578  0.2274 -0.0085
 6198W        W25732   6.868  14.559  13.451  0.2359 -0.1020  0.3631
 6199W        W25733   5.383  15.827   5.209 -0.1197 -0.0252  0.1420
 6200W        W25734  11.332  17.402  16.037 -0.0548  0.1750 -0.1681
 6201W        W25735  13.178   4.831  14.010 -0.2066  0.0661  0.3372
 6202W        W25736  11.170  12.548  12.741 -0.2178  0.0530  0.0812
 6203W        W25737   4.182   1.252   2.495  0.0016 -0.1209 -0.2033
 6204W        W25738   0.497  11.345  14.573  0.1730  0.0677 -0.1894
 6205W        W25739  11.760   4.687   4.199 -0.2173  0.0303 -0.1243
 6206W        W25740   7.033   9.485  13.013  0.2039 -0.0830 -0.0393
 6207W        W25741   1.630   6.516  14.228 -0.0405  0.1175 -0.0015
 6208W        W25742   8.068  14.310   2.442 -0.2444  0.2208 -0.3147
 6209W        W25743   4.248  12.488  15.869  0.2703  0.1306  0.0919
 6210W        W25744   4.377   3.617  14.317 -0.1975  0.1861 -0.0209
 6211W        W25745  14.534   0.665   0.576 -0.2530  0.0171  0.3399
 6212W        W25746   7.932   5.564   1.136  0.0332  0.0397  0.0299
 6213W        W25747   6.278  13.347  16.550  0.0743 -0.1718 -0.4356
 6214W        W25748  15.530   7.009   1.429 -0.3429  0.0646 -0.1674
 6215W        W25749   2.258   0.199  16.072 -0.2377 -0.1246  0.0675
 6216W        W25750  12.534   8.863   1.775  0.0833 -0.0776  0.1772
 6217W        W25751  14.038  12.628  16.180 -0.0752  0.1502 -0.2649
 6218W        W25752   9.516   0.550  14.462 -0.3243  0.2464  0.0413
 6219W        W25753   2.603   5.402   3.466  0.2547 -0.0418 -0.1302
 6220W        W25754   0.390  12.222  16.762  0.5281  0.1635  0.0069
 6221W        W25755  16.228   6.859   3.136 -0.1671 -0.1051  0.4020
 6222W        W25756   3.727   3.114  12.370  0.2471 -0.0858  0.0723
 6223W        W25757  10.836   2.264   3.838  0.0015 -0.2546  0.0862
 6224W        W25758   4.942  12.899   1.934  0.0271  0.1935 -0.1469
 6225W        W25759   3.243  16.608  16.109 -0.3475 -0.3674 -0.2696
 6226W        W25760  14.099   8.562   3.555 -0.1661  0.3100  0.0735
 6227W        W25761  10.499   1.235  14.234  0.1301 -0.3737  0.0748
 6228W        W25762   4.523  12.596   1.551 -0.1473 -0.1125 -0.1935
 6229W        W25763  13.742   9.835   1.561 -0.2079  0.1970  0.0700
 6230W        W25764   4.869   1.196  16.875 -0.1832 -0.2316  0.0993
 6231W        W25765   6.562  17.052   0.872  0.1390  0.2972 -0.0234
 6232W        W25766   5.128  11.338   4.661 -0.2454 -0.1231 -0.0322
 6233W        W25767  11.392   0.159   3.613  0.1216  0.2832  0.2180
 6234W        W25768  17.084   4.446   1.805  0.0360  0.0980  0.1262
 6235W        W25769  15.033   1.954  13.288  0.0869  0.2333  0.1432
 6236W        W25770  16.237   5.559  14.437 -0.1155 -0.0060  0.0200
 6237W        W25771  13.356   7.266   3.744 -0.0712 -0.0424  0.1478
 6238W        W25772  10.435  11.880  11.775 -0.0489 -0.1322 -0.0074
 6239W        W25773  17.482   6.348  12.180 -0.0612  0.1653  0.0326
 6240W        W25774   8.847   2.060  12.630  0.0083 -0.2048  0.1189
 6241W        W25775  13.765   3.891  13.437  0.2437  0.0255 -0.0160
 6242W        W25776   2.918   3.334   0.602 -0.0113  0.1074  0.1711
 6243W        W25777   1.479  14.883   4.690 -0.0947 -0.3725 -0.1151
 6244W        W25778  15.220   8.343   1.687  0.0634 -0.0216 -0.0116
 6245W        W25779   6.662   6.079  15.818  0.1937 -0.3244  0.1943
 6246W        W25780   5.197   4.380   0.981  0.2378  0.1841 -0.1902
 6247W        W25781   9.994   1.251  12.841  0.0575 -0.2659 -0.0363
 6248W        W25782  10.310  15.854  13.755 -0.1613 -0.0918 -0.0969
 6249W        W25783   2.710   3.544   3.738 -0.2345  0.1707  0.0931
 6250W        W25784  10.544   1.222  15.834 -0.0199  0.1924 -0.1544
 6251W        W25785   9.051   0.349  14.318 -0.1299  0.1460  0.2361
 6252W        W25786  10.803   7.622   3.856  0.0603  0.0267 -0.1018
 6253W        W25787   8.300   7.898   3.228 -0.0026 -0.1344 -0.2884
 6254W        W25788  17.215   6.205  15.904 -0.2841 -0.1181  0.1372
 6255W        W25789   6.094   5.166   3.628  0.1071  0.0663 -0.2044
 6256W        W25790   1.014  13.400  12.038  0.0509 -0.1780 -0.0626
 6257W        W25791  13.847  17.072  14.941  0.0406  0.0201  0.0041
 6258W        W25792   8.514   2.099   0.183 -0.0861 -0.1601  0.2106
 6259W        W25793  15.797  15.202   4.983 -0.0308 -0.0147  0.2032
 6260W        W25794  17.075   7.644   2.040 -0.1249  0.0854 -0.0606
 6261W        W25795   2.244   4.701  13.100  0.2751 -0.0269 -0.1764
 6262W        W25796  10.167   4.829   4.764 -0.1542 -0.0512  0.0282
 6263W        W25797  16.857  16.225   2.649  0.0418 -0.1314  0.0141
 6264W        W25798  12.685  16.263  15.676  0.2248 -0.0579  0.0767
 6265W        W25799   5.495  17.028   0.098 -0.0397 -0.0064  0.0381
 6266W        W25800  12.189   7.110  15.674 -0.0057  0.1332 -0.1144
 6267W        W25801   0.664   6.692   4.817  0.0436 -0.0941 -0.1519
 6268W        W25802   5.669   4.874   2.688 -0.0437  0.0489 -0.0153
 6269W        W25803   6.228  16.507  16.307 -0.0436  0.0425 -0.1688
 6270W        W25804  12.752  12.079   1.748 -0.2421  0.0744 -0.1131
 6271W        W25805  12.279   1.066   4.696  0.1702  0.3764 -0.0624
 6272W        W25806   0.473   9.781  13.293  0.2232 -0.1066 -0.5073
 6273W        W25807  12.291  11.000   3.779  0.2503 -0.1475  0.0120
 6274W        W25808  15.291  13.209  13.331  0.2365  0.0171  0.1063
 6275W        W25809  12.449   1.478  16.324  0.0859  0.2285  0.1733
 6276W        W25810  12.557   6.746  16.479 -0.3375 -0.1191  0.1059
 6277W        W25811   1.526   1.993   1.241 -0.0207  0.2021 -0.2100
 6278W        W25812   7.703  11.689  16.514  0.0512 -0.1720  0.0292
 6279W        W25813  13.985  11.513   0.468  0.3001 -0.0486  0.0466
 6280W        W25814  15.058  10.435  12.863 -0.4842 -0.0353  0.0626
 6281W        W25815  16.172   2.886  14.749  0.5099  0.2926  0.3298
 6282W        W25816   1.912   9.358  13.911  0.1427 -0.1302  0.0578
 6283W        W25817   6.679   2.241   4.467  0.1828 -0.1425  0.0442
 6284W        W25818  13.027  14.502  16.866 -0.1590 -0.3450  0.0905
 6285W        W25819  14.569  15.600   1.079 -0.0390  0.0547  0.1072
 6286W        W25820  14.479  15.015   1.921 -0.0627  0.1037  0.2545
 6287W        W25821   7.287  10.426  14.553 -0.1143 -0.1271  0.0990
 6288W        W25822   9.841   5.222  16.902  0.1599 -0.0611  0.3105
 6289W        W25823   3.487   9.277   1.919  0.3556  0.0376 -0.0380
 6290W        W25824   5.592   7.835  16.594  0.1987  0.1161  0.0910
 6291W        W25825  13.733  11.874   1.398 -0.1796 -0.2161  0.2353
 6292W        W25826   4.972   2.046  15.131  0.0241  0.2572 -0.1323
 6293W        W25827   6.941   2.019  16.176 -0.1112  0.0286 -0.0888
 6294W        W25828   0.438  16.514   1.585 -0.1814  0.0607 -0.0708
 6295W        W25829   0.259   4.139   3.672  0.2039 -0.1740 -0.3198
 6296W        W25830   4.811   2.641  17.042  0.0499  0.2043 -0.0197
 6297W        W25831   0.134  11.255   3.383  0.1333  0.1580 -0.0665
 6298W        W25832   4.650   0.416   2.828  0.0281  0.0328 -0.1021
 6299W        W25833   6.500  15.065  12.773 -0.1553 -0.0445  0.2104
 6300W        W25834   6.628  13.666  15.698 -0.0129 -0.1620 -0.2504
 6301W        W25835  14.840  12.140   2.123  0.1590 -0.2956  0.3216
 6302W        W25836  16.273  10.332   2.988 -0.0531 -0.0920 -0.1877
 6303W        W25837  11.648  10.464  13.668  0.0317  0.1199  0.3467
 6304W        W25838   6.436   8.928  14.162 -0.1957 -0.0420  0.2633
 6305W        W25839  15.189  13.004   4.477  0.0459  0.2094 -0.1365
 6306W        W25840   6.826   9.600  14.777  0.1954  0.0359 -0.0873
 6307W        W25841  17.010  12.187  11.048  0.0245  0.1069 -0.0962
 6308W        W25842   1.463   1.619   2.991  0.0241  0.1981 -0.0886
 6309W        W25843  16.717  13.041   3.076 -0.0041  0.1729  0.1501
 6310W        W25844   3.664  11.734  13.431  0.0054  0.0501  0.0409
 6311W        W25845   4.336  17.602   1.494  0.2572 -0.0554 -0.1917
 6312W        W25846   2.047  14.108  16.546  0.1528  0.2873  0.0699
 6313W        W25847   4.198   7.698   1.504  0.3192  0.0294 -0.1287
 6314W        W25848   7.756   3.431  15.221  0.3528  0.3468 -0.1132
 6315W        W25849   4.390  12.213   0.429 -0.1361 -0.0322 -0.0951
 6316W        W25850   1.288   9.951  12.836  0.0164 -0.0126  0.2283
 6317W        W25851   4.806   6.876   3.456 -0.0373 -0.2618 -0.0688
 6318W        W25852   9.228  10.322  14.332 -0.0364 -0.3240  0.1001
 6319W        W25853  11.189   0.468  13.676  0.1289  0.1704 -0.1852
 6320W        W25854  13.805   0.108  15.246 -0.1135  0.1334 -0.0894
 6321W        W25855  16.220   8.622  11.912  0.1576  0.1559 -0.1477
 6322W        W25856  11.029   1.157  16.084 -0.1957 -0.1528 -0.1044
 6323W        W25857   2.825  13.972  13.026  0.0208  0.1320 -0.2151
 6324W        W25858  15.285   6.554   2.500 -0.1323 -0.4038 -0.1930
 6325W        W25859   9.772   0.665  15.579  0.5270 -0.0044  0.1401
 6326W        W25860  11.930  15.486  15.844  0.0203  0.0587 -0.0816
 6327W        W25861  17.327   6.807  17.057 -0.0810  0.1162  0.1132
 6328W        W25862   0.704  16.049   1.694  0.1287 -0.0070 -0.0721
 6329W        W25863   3.069  14.233  13.440  0.1894  0.2322 -0.2263
 6330W        W25864   1.356  10.040   3.075 -0.0778 -0.0407  0.1055
 6331W        W25865  16.033   0.479  13.405  0.2905 -0.0066  0.2075
 6332W        W25866   6.764  13.650   3.011 -0.3418 -0.0628 -0.0139
 6333W        W25867   6.914   8.238   2.162 -0.1419  0.0750  0.0863
 6334W        W25868  12.525  11.628  16.613  0.0880 -0.1228 -0.2357
 6335W        W25869   9.167   9.152   1.165 -0.0461 -0.2522  0.0192
 6336W        W25870  13.289   1.368  16.864 -0.0281 -0.0519  0.0592
 6337W        W25871   0.313   8.720  15.568  0.0383  0.2573  0.0390
 6338W        W25872  17.043   2.477   2.794  0.2550 -0.0077 -0.2966
 6339W        W25873  16.989  17.165  11.235 -0.0111 -0.1183  0.2899
 6340W        W25874  11.057   0.580  16.295 -0.5013  0.0152  0.1985
 6341W        W25875   5.958   2.824   0.454  0.3288 -0.2061 -0.1389
 6342W        W25876  14.474  16.690  13.160  0.0472  0.0381  0.2368
 6343W        W25877   7.954  11.944   4.890  0.0433 -0.2815  0.1369
 6344W        W25878  14.160   0.558  14.011  0.1855 -0.4387  0.1047
 6345W        W25879  15.511  15.643   1.818  0.0223 -0.1556  0.0551
 6346W        W25880  13.537  16.703  15.834  0.1804 -0.2552  0.0583
 6347W        W25881   7.591   8.916  13.955  0.1565 -0.0534 -0.3226
 6348W        W25882  14.738  10.476   2.034  0.0279  0.0760  0.0524
 6349W        W25883  12.728   8.726  12.702 -0.0968 -0.1117 -0.0911
 6350W        W25884  15.613  16.299   1.260 -0.0114 -0.2645 -0.2015
 6351W        W25885   7.140  16.197  15.132 -0.0819 -0.1028 -0.0656
 6352W        W25886   4.158  11.928  15.185 -0.0043 -0.1513 -0.2036
 6353W        W25887  11.104   4.421   0.416 -0.0938  0.0644  0.0803
 6354W        W25888  12.388   0.254   1.463 -0.2007  0.0755 -0.1436
 6355W        W25889   8.149   9.332   0.214 -0.2170 -0.0861  0.0272
 6356W        W25890  14.990  13.076   1.833  0.1742  0.0604 -0.0591
 6357W        W25891  12.136  10.380  12.409  0.1853  0.1428 -0.1017
 6358W        W25892   7.739  13.283  12.049 -0.2964  0.1928  0.1626
 6359W        W25893   4.428   5.389  15.671  0.1862  0.2674 -0.1147
 6360W        W25894   5.534   5.954  15.853  0.1002  0.2745  0.0429
 6361W        W25895   6.885  10.738   1.966 -0.1084 -0.0576  0.0276
 6362W        W25896  13.813  11.040   4.594 -0.0872  0.1104 -0.1553
 6363W        W25897   9.486   2.956   1.585 -0.1648 -0.3218 -0.2012
 6364W        W25898   6.289   6.459  15.830  0.0383 -0.1519 -0.3178
 6365W        W25899  12.529   2.945  11.494 -0.0024  0.0422 -0.0948
 6366W        W25900  11.326  14.723  16.867 -0.0381 -0.3360 -0.1284
 6367W        W25901  14.019   8.300  16.973  0.1578  0.0560  0.1165
 6368W        W25902  16.286  11.215  14.336  0.0573 -0.1814 -0.1238
 6369W        W25903   0.378   7.607  14.077  0.0825 -0.0269 -0.1477
 6370W        W25904  14.757  15.547  16.734 -0.1080  0.0327  0.2364
 6371W        W25905  16.444   5.101   3.628 -0.0862 -0.1298 -0.0024
 6372W        W25906   6.035  16.873   3.136  0.0020  0.2084  0.0480
 6373W        W25907   7.344   7.573  13.060  0.2673  0.0611  0.0134
 6374W        W25908  15.799  12.632   3.218  0.0328 -0.0854 -0.0396
 6375W        W25909  14.002  16.977  14.390 -0.2225  0.0914 -0.0914
 6376W        W25910  13.901  10.647   2.553  0.0971  0.3756 -0.0638
 6377W        W25911   8.037   3.448   0.638  0.0710 -0.0473 -0.3115
 6378W        W25912  10.951  12.397  15.136 -0.2125 -0.2624  0.1631
 6379W        W25913   9.053  10.208  13.820  0.1384 -0.2272 -0.2249
 6380W        W25914   1.927   7.096  16.570  0.0034 -0.1743  0.2073
 6381W        W25915   9.654   6.833   3.339 -0.1759  0.0487  0.4129
 6382W        W25916  14.410  15.356  12.747  0.0133 -0.3520 -0.1607
 6383W        W25917  10.765  15.466  13.541 -0.4098  0.0334 -0.0497
 6384W        W25918  14.373   9.605   3.179  0.1133  0.1054  0.0187
 6385W        W25919   3.901   1.057  15.193  0.1089  0.1672 -0.0911
 6386W        W25920   9.595   6.030  14.423  0.1166  0.3088 -0.2473
 6387W        W25921  10.993  16.474   1.443 -0.3908 -0.1544  0.1378
 6388W        W25922   6.033  14.791  16.776  0.1118 -0.1602 -0.0372
 6389W        W25923   6.830   1.262   0.980 -0.0043  0.2710 -0.1869
 6390W        W25924  10.765   6.664  14.134  0.1954  0.1534 -0.1138
 6391W        W25925  10.931   6.995   4.357  0.3404  0.0120 -0.2398
 6392W        W25926  16.039   9.372   1.913  0.1843  0.0285  0.3994
 6393W        W25927   4.152  13.822  14.299  0.1390  0.2280 -0.0596
 6394W        W25928  16.124   5.626  14.937 -0.1354  0.0727 -0.0175
 6395W        W25929   8.206   5.713  12.008 -0.0092  0.3538  0.0719
 6396W        W25930  17.233   1.678  15.911 -0.2625 -0.0174 -0.3017
 6397W        W25931   7.618   8.407  13.798 -0.1388  0.0343 -0.0188
 6398W        W25932   3.605   7.987  15.445 -0.0754  0.1276 -0.1988
 6399W        W25933  12.487  10.380  15.617 -0.2570  0.2775 -0.1197
 6400W        W25934  11.308   0.689   3.579 -0.0665 -0.0073  0.2468
 6401W        W25935  13.898   7.701   1.541  0.0510  0.4502  0.1054
 6402W        W25936  11.345  15.954  14.935 -0.0056  0.0489 -0.2874
 6403W        W25937   1.340  13.691  11.813 -0.0258  0.2233  0.0551
 6404W        W25938  16.877   1.370  14.702 -0.2703 -0.0397 -0.0045
 6405W        W25939   2.229  14.012  11.863  0.1068 -0.0415 -0.0540
 6406W        W25940   4.931   6.449   0.551  0.1334 -0.2922 -0.0639
 6407W        W25941   9.484  12.399  12.538  0.0176  0.0241  0.1500
 6408W        W25942   6.909   9.701  16.826  0.0713  0.0324 -0.0830
 6409W        W25943   7.738   3.825  16.911  0.1629  0.2109 -0.3208
 6410W        W25944  11.374  16.472  15.006  0.0261  0.0847  0.0678
 6411W        W25945   0.946  12.856  13.328  0.2530  0.0369  0.0821
 6412W        W25946   6.224   4.474   1.387 -0.0747 -0.2249 -0.1076
 6413W        W25947   6.983   9.829   2.209 -0.0508  0.2747  0.0523
 6414W        W25948   7.699   3.953  15.161 -0.1120 -0.4884 -0.0178
 6415W        W25949   3.828   0.652   1.175  0.0954  0.1814 -0.0254
 6416W        W25950  13.857   8.128   1.085  0.1487 -0.2240 -0.2795
 6417W        W25951   9.699   9.515   4.957  0.1910  0.3047  0.1067
 6418W        W25952   2.011  10.463   4.315 -0.0789  0.0144 -0.1355
 6419W        W25953   4.769  15.957  13.049 -0.2208 -0.1648  0.3737
 6420W        W25954   1.557  16.138  14.787  0.1137 -0.0369  0.1151
 6421W        W25955   6.225  17.439  14.868 -0.0672  0.0293 -0.3166
 6422W        W25956   6.453   6.743  12.844 -0.1090  0.0322 -0.0034
 6423W        W25957  12.633   3.279  12.964  0.1764 -0.0990 -0.0652
 6424W        W25958  11.807   2.028   0.787 -0.2105  0.1449  0.1043
 6425W        W25959  12.397   8.845   2.931 -0.2196 -0.2170  0.0403
 6426W        W25960   2.754   1.604  15.410  0.1588 -0.0227  0.1582
 6427W        W25961   1.942   1.518  12.785  0.1116  0.1115  0.1786
 6428W        W25962   8.192   9.277  12.420  0.2928 -0.0407  0.0477
 6429W        W25963   8.660  16.476  13.990  0.1059  0.0520 -0.0741
 6430W        W25964   5.665   4.516  15.906 -0.4092  0.1752  0.1561
 6431W        W25965   4.667   0.973  12.472 -0.1669  0.0417  0.2084
 6432W        W25966   0.772   1.156  12.904  0.2008  0.1155 -0.4098
 6433W        W25967   6.127  13.093   3.634  0.1499 -0.0948  0.0354
 6434W        W25968   8.654   5.712  15.901 -0.0081  0.1661  0.1077
 6435W        W25969  15.875   5.546   5.386 -0.0069  0.0126  0.0006
 6436W        W25970   8.235   6.906   1.977 -0.1816  0.2682 -0.2528
 6437W        W25971   6.084   0.201  14.610 -0.2295  0.1180 -0.4194
 6438W        W25972   4.913   9.826   4.869 -0.0056  0.0513  0.0594
 6439W        W25973   4.157   2.523   3.572 -0.2630  0.0907  0.1454
 6440W        W25974   2.779  11.616  13.093 -0.1241 -0.0706 -0.2641
 6441W        W25975  16.555  10.537   0.011  0.2191  0.1190 -0.2768
 6442W        W25976   9.168  12.482   2.771 -0.1362 -0.1787 -0.1759
 6443W        W25977   6.245   3.720  16.780 -0.2333 -0.1034  0.0268
 6444W        W25978   0.095   5.321  14.365  0.0312 -0.3045  0.4231
 6445W        W25979  15.677   1.878   1.162 -0.1110  0.1585 -0.0725
 6446W        W25980   7.280   5.911   4.211  0.1252 -0.1359 -0.1781
 6447W        W25981  14.171  10.326   3.122  0.4439 -0.0196  0.1679
 6448W        W25982  14.947  14.892  16.180  0.2587  0.1433  0.3278
 6449W        W25983  13.420  11.279   3.357  0.1654 -0.2659 -0.1096
 6450W        W25984   2.714  11.043  11.968  0.0701  0.3197  0.1062
 6451W        W25985   9.903   0.038  16.876 -0.0471  0.1743 -0.1161
 6452W        W25986   4.032   3.500   1.949 -0.1756 -0.0031 -0.2147
 6453W        W25987  11.566  10.305  14.166  0.0163  0.0217 -0.1090
 6454W        W25988  15.313  13.829   0.834 -0.0250 -0.3068 -0.3080
 6455W        W25989  12.508  14.970  15.841  0.2137 -0.1932  0.1496
 6456W        W25990   8.312   3.695   2.767  0.0475  0.1109  0.0219
 6457W        W25991  12.646   9.791   4.164  0.0808  0.2892  0.1115
 6458W        W25992   6.040   1.969   0.172  0.0831 -0.0494 -0.2537
 6459W        W25993   1.003  17.089  12.501  0.2496  0.1081 -0.3703
 6460W        W25994   0.079   0.698  13.897  0.1536  0.1744 -0.0219
 6461W        W25995   9.801   8.884  15.751 -0.2319 -0.1386  0.0386
 6462W        W25996   2.554  14.459  15.424 -0.0457 -0.1011 -0.1276
 6463W        W25997  16.646   6.708   2.167 -0.0995 -0.0885 -0.0028
 6464W        W25998   3.764  14.570   4.321  0.0200  0.0436 -0.3155
 6465W        W25999   0.593  10.338  12.531  0.1427  0.0870 -0.0502
 6466W        W26000   4.602  11.807   0.285 -0.1346 -0.1059  0.1719
 6467W        W26001   4.956  11.913  15.710  0.0045  0.0002  0.0682
 6468W        W26002   0.341  11.784  14.438  0.1668  0.0571 -0.0680
 6469W        W26003   5.812   0.070  14.992 -0.0346 -0.0645  0.0490
 6470W        W26004  16.469  15.392   2.767  0.1948  0.0011 -0.1738
 6471W        W26005   3.755   5.560   4.136 -0.3250 -0.2588  0.1304
 6472W        W26006   1.080  11.395  13.238 -0.0812  0.0858  0.2374
 6473W        W26007  10.234  15.957   3.245 -0.1828 -0.0820  0.2232
 6474W        W26008   3.858   2.462  16.709 -0.1186  0.1861  0.0913
 6475W        W26009  16.737   7.275  13.783 -0.2562 -0.0950  0.2169
 6476W        W26010   8.924  10.701  13.552  0.4300  0.3072 -0.1088
 6477W        W26011  15.098   7.390  12.382 -0.0271  0.0080 -0.1392
 6478W        W26012  17.541   9.675  16.589 -0.0020  0.0886 -0.2890
 6479W        W26013   1.523  16.072   3.115  0.2531 -0.0796 -0.3306
 6480W        W26014   7.773   2.536   3.539  0.3150  0.0000  0.0790
 6481W        W26015  10.006   0.608   4.343  0.0433 -0.4589 -0.2045
 6482W        W26016  17.226  10.053  15.726  0.0258 -0.1400 -0.1184
 6483W        W26017  14.718  15.740  12.437  0.1068 -0.0385 -0.1843
 6484W        W26018  11.314  11.737  12.282  0.1049 -0.0279  0.0109
 6485W        W26019   6.027  11.118   1.164 -0.2365  0.0672 -0.0542
 6486W        W26020  10.106   4.236  14.005  0.2932 -0.0365  0.3124
 6487W        W26021   4.284  17.559  12.913  0.0712  0.2656 -0.3400
 6488W        W26022   0.428   4.891   4.516  0.0375 -0.0759  0.2752
 6489W        W26023  10.035   3.756  12.906 -0.0912  0.0300  0.1222
 6490W        W26024   0.437  12.274   1.206 -0.1396  0.1745  0.0755
 6491W        W26025   4.721  14.183   0.672 -0.1806  0.0120  0.1219
 6492W        W26026   4.492  17.370  15.652  0.0915  0.2563  0.1756
 6493W        W26027   7.985  13.996  15.264  0.3297  0.0418  0.0927
 6494W        W26028   4.485   5.648   0.341  0.0759 -0.2190  0.0792
 6495W        W26029   0.977   1.683  15.797  0.1932  0.1786  0.1098
 6496W        W26030   3.570   9.622   4.419 -0.0503  0.2543 -0.0785
 6497W        W26031   8.680  14.614   3.577  0.0997 -0.0805 -0.1465
 6498W        W26032  14.814   1.373  13.950  0.2329  0.4419 -0.1232
 6499W        W26033   6.216   5.537  11.801  0.1890 -0.0897 -0.1244
 6500W        W26034  13.957  17.184  12.808 -0.2565 -0.2588 -0.0413
 6501W        W26035   1.232   7.346  15.189 -0.0779 -0.2252  0.0569
 6502W        W26036   3.977  13.464   1.859 -0.3364 -0.0876 -0.1336
 6503W        W26037   4.034   7.157  15.988 -0.1152  0.2749  0.0975
 6504W        W26038  11.286  12.604   4.462  0.3117  0.2788 -0.1113
 6505W        W26039   3.827   4.247   2.443 -0.1188  0.2110  0.1024
 6506W        W26040  12.327  11.501   3.739 -0.1095  0.1559 -0.1767
 6507W        W26041   8.969   4.990  14.279 -0.3631  0.1847  0.0096
 6508W        W26042  12.555   3.230   3.562 -0.0497  0.0372  0.1213
 6509W        W26043   4.064  15.496  13.177  0.0766  0.0109 -0.1501
 6510W        W26044  17.452   6.417   4.235 -0.2447  0.0401 -0.4543
 6511W        W26045  15.329   5.321  14.923  0.3396 -0.0308  0.1589
 6512W        W26046   4.666  14.183   2.223 -0.1087  0.3469  0.0539
 6513W        W26047   5.774   4.803   3.386  0.1604  0.2541  0.1422
 6514W        W26048   2.518  17.281  14.262 -0.0664 -0.1949  0.4868
 6515W        W26049  10.405   1.333  15.148  0.0434  0.1592 -0.0216
 6516W        W26050   5.707  11.428  11.660  0.1270  0.1169  0.0214
 6517W        W26051   5.346  15.906  16.512 -0.2260  0.2464  0.0395
 6518W        W26052  16.876   9.989  12.250 -0.0650  0.2470  0.4846
 6519W        W26053   9.944  17.045   6.192 -0.1455  0.0982 -0.2631
 6520W        W26054   5.041   0.548  14.649 -0.1072 -0.1886 -0.1021
 6521W        W26055  11.420   9.415  14.315  0.1357  0.0560  0.0626
 6522W        W26056  10.394  13.552  12.403  0.1673 -0.0503  0.0051
 6523W        W26057  10.849   1.960   1.284 -0.1288  0.1233  0.0120
 6524W        W26058  10.248   2.958   1.538 -0.1635 -0.0814 -0.1356
 6525W        W26059   1.360  11.481  14.005  0.2247 -0.0951  0.2003
 6526W        W26060   8.427  10.008   3.084  0.4278  0.2378 -0.0713
 6527W        W26061   8.337  11.611  12.712  0.0278  0.0854 -0.1288
 6528W        W26062   6.286  10.585   5.097  0.1210  0.0242 -0.1013
 6529W        W26063   1.598  14.315  13.207  0.2400  0.0462  0.2607
 6530W        W26064   4.045   6.052  12.743  0.2326  0.0308 -0.0328
 6531W        W26065  16.904  10.419  11.982 -0.0084 -0.0162 -0.1191
 6532W        W26066   7.955   2.880  15.716 -0.0430  0.1071 -0.0718
 6533W        W26067   0.003   5.401  12.788  0.1860 -0.1184  0.1185
 6534W        W26068  13.160   3.211  16.801  0.1896  0.0573 -0.0622
 6535W        W26069  15.579   5.749  14.054 -0.1766 -0.3906  0.0975
 6536W        W26070   1.961   3.345   2.755  0.0331 -0.0645 -0.1384
 6537W        W26071  16.668  11.643   1.155 -0.0917  0.1213  0.0803
 6538W        W26072  13.293   0.905   3.423  0.1181 -0.1431 -0.0581
 6539W        W26073   7.217   2.727   2.913 -0.3022 -0.1093  0.1076
 6540W        W26074  12.202   3.731  16.819 -0.1641 -0.1024 -0.1205
 6541W        W26075   1.226   2.935  16.834 -0.3567 -0.0926  0.0252
 6542W        W26076   5.991  13.353   4.027 -0.0156 -0.1066  0.2496
 6543W        W26077  12.225  11.324   2.173 -0.1354  0.0571 -0.1347
 6544W        W26078  10.844   0.938   4.877  0.0011  0.4434  0.0876
 6545W        W26079  10.852  17.052   1.101  0.0495  0.0382  0.1535
 6546W        W26080   8.276   0.492  15.629  0.0895  0.0029 -0.0847
 6547W        W26081   9.684   0.316   4.635  0.0473  0.1047  0.1348
 6548W        W26082  15.468  12.425   4.787  0.1567  0.1259 -0.2391
 6549W        W26083   8.613  13.517  15.663  0.1676  0.0096  0.2144
 6550W        W26084  16.681   3.185   1.986 -0.0806 -0.4726  0.6276
 6551W        W26085   7.015   5.181   1.800 -0.0074  0.3400  0.0338
 6552W        W26086   3.757   4.688  14.714  0.3376  0.1363  0.0581
 6553W        W26087  13.651   8.231  12.476 -0.0147  0.2777  0.2123
 6554W        W26088  14.427  12.225   1.736  0.1976  0.4938 -0.1776
 6555W        W26089  13.082   7.891  12.707 -0.0348 -0.0397  0.1306
 6556W        W26090   4.684   3.799  17.048 -0.1013 -0.2618  0.0719
 6557W        W26091  12.613   2.424  13.252  0.1078 -0.0539 -0.3905
 6558W        W26092  11.275   5.508   5.875 -0.1950 -0.0540  0.1121
 6559W        W26093  13.160  12.629  13.202 -0.0051 -0.2215  0.0908
 6560W        W26094   5.355  10.719  12.425 -0.1996  0.1019  0.3858
 6561W        W26095  12.011   0.849  16.076 -0.1717  0.1127  0.2698
 6562W        W26096   4.548   0.448  15.021  0.2657  0.0262 -0.3398
 6563W        W26097   1.710   2.012  13.557 -0.2166  0.1911 -0.0361
 6564W        W26098  13.806   2.108  13.536  0.0559 -0.2011  0.1586
 6565W        W26099   0.398   8.343  13.540  0.0339 -0.0957  0.0310
 6566W        W26100  10.796   2.286  12.638 -0.3306 -0.2165 -0.1668
 6567W        W26101   9.935   1.888  16.121 -0.1372  0.1369 -0.1932
 6568W        W26102   1.913   5.473   2.764 -0.0485 -0.0710  0.1406
 6569W        W26103   5.619  12.697   1.084  0.0617 -0.1851  0.0054
 6570W        W26104   3.956   8.461   0.022  0.1181 -0.1374 -0.2205
 6571W        W26105   6.810   0.751  15.089  0.0440 -0.0166 -0.3463
 6572W        W26106  13.122   8.822   2.550  0.1088 -0.0868 -0.0481
 6573W        W26107  12.129  15.187   3.195 -0.0226  0.2328 -0.1438
 6574W        W26108   1.632   7.696   3.120 -0.1452  0.0434  0.0377
 6575W        W26109   7.816  16.467  12.475  0.2463  0.1958  0.2461
 6576W        W26110  12.068   2.452   2.041  0.1744 -0.0284 -0.3353
 6577W        W26111  12.552  14.261   2.675  0.0018  0.1781  0.2605
 6578W        W26112   5.107  10.299  12.649  0.1782  0.1946 -0.0302
 6579W        W26113   4.388   8.062  16.123  0.2646  0.1449  0.3121
 6580W        W26114   0.619   7.274   2.168  0.0624 -0.1158 -0.1292
 6581W        W26115   4.429  12.098   3.576 -0.1145 -0.1198  0.0046
 6582W        W26116  17.299   8.150   4.901  0.2205  0.0286 -0.4100
 6583W        W26117   0.185   1.392   4.637  0.0896  0.2148 -0.0947
 6584W        W26118   7.118   9.443   3.748 -0.0206  0.3413  0.0056
 6585W        W26119   5.827   7.471  14.585 -0.0460  0.1394 -0.0227
 6586W        W26120   1.800   5.504   1.110 -0.1474  0.0111 -0.3405
 6587W        W26121  12.696   8.632   4.909 -0.1811  0.2145 -0.1427
 6588W        W26122  11.861  17.024   0.325 -0.1070 -0.4811 -0.0458
 6589W        W26123   1.014  17.316  12.027  0.3104 -0.0579  0.0461
 6590W        W26124  10.106   1.976  13.208 -0.3819  0.0925  0.2232
 6591W        W26125   2.957  13.674  12.644  0.3076 -0.1596 -0.1689
 6592W        W26126   0.772   7.399   2.662 -0.0716 -0.1784  0.1350
 6593W        W26127   5.168  14.220   4.510 -0.2746 -0.0173  0.3769
 6594W        W26128   0.615  17.324   4.196 -0.1608  0.0062  0.3187
 6595W        W26129  13.634  14.611   4.323  0.0466  0.0832 -0.4205
 6596W        W26130   0.663   0.674   0.361  0.4028  0.2014  0.3179
 6597W        W26131  14.160   3.819  12.424  0.2735  0.2884  0.3081
 6598W        W26132  16.144   7.696  15.940  0.1824 -0.4741 -0.0203
 6599W        W26133   6.213  13.091   4.567  0.1124 -0.3890 -0.0606
 6600W        W26134   0.586   5.057   4.985  0.0067  0.0235 -0.0678
 6601W        W26135   4.184  11.399   4.860 -0.2641 -0.1399  0.0588
 6602W        W26136  10.399   7.163   2.629  0.1165 -0.1257  0.1826
 6603W        W26137   7.728   8.830   0.999  0.0288 -0.0490  0.0119
 6604W        W26138  14.763   6.762  16.293 -0.0907 -0.1955 -0.1253
 6605W        W26139  13.225   6.958   0.511  0.1452  0.2097  0.0783
 6606W        W26140   6.885   0.356   0.869  0.0518 -0.1313 -0.0688
 6607W        W26141  15.916   3.952   4.402  0.1002  0.0713  0.2071
 6608W        W26142   6.820  13.114   0.066 -0.3665  0.1030 -0.2528
 6609W        W26143  13.895  14.549  12.201 -0.0865  0.1105  0.2947
 6610W        W26144   0.371  15.522  12.266 -0.0271 -0.0251  0.0578
 6611W        W26145  14.146  14.381  16.001  0.0672 -0.0298 -0.1026
 6612W        W26146  10.669   3.855   3.890  0.1784  0.1370  0.1846
 6613W        W26147  13.583  15.178  12.519  0.0805 -0.2559 -0.0888
 6614W        W26148  12.587   1.878   0.397 -0.0882  0.0562 -0.1327
 6615W        W26149   6.216  10.046  15.353 -0.3056 -0.1508 -0.0986
 6616W        W26150   0.088   8.113  12.681  0.0405  0.1343  0.1081
 6617W        W26151   0.743  13.032   0.484 -0.0923 -0.2191  0.1566
 6618W        W26152   2.801  13.045   4.496 -0.0348 -0.0539  0.0195
 6619W        W26153  14.949  14.376  12.564  0.0227  0.1374 -0.0999
 6620W        W26154  11.303  10.031  12.454 -0.2047 -0.0554  0.0043
 6621W        W26155   8.216   1.239   4.957  0.1708 -0.0569  0.2095
 6622W        W26156   6.098  13.276   1.653 -0.1027 -0.3243 -0.0454
 6623W        W26157   2.959  15.818   0.833  0.1525  0.1058  0.1200
 6624W        W26158  10.767  10.641   2.167  0.1617  0.2568 -0.2025
 6625W        W26159  14.316  11.836  16.214 -0.2100 -0.1448 -0.1854
 6626W        W26160  15.442   2.652  13.615 -0.0729 -0.4939 -0.1473
 6627W        W26161   3.786  11.959  14.829 -0.0384  0.1609 -0.2087
 6628W        W26162   5.101   4.777  14.181 -0.2886  0.0234  0.1187
 6629W        W26163  10.739   0.342  15.932 -0.4624 -0.0150 -0.2265
 6630W        W26164  17.308  14.257  15.783  0.0730 -0.0248  0.0515
 6631W        W26165  12.204   1.288  12.688  0.0298 -0.1682  0.1281
 6632W        W26166   6.664  10.496   0.498  0.2231  0.0177 -0.1546
 6633W        W26167   2.844  13.993  14.613 -0.1173 -0.1730  0.0017
 6634W        W26168  15.351   3.559  13.252  0.0219  0.1947  0.2466
 6635W        W26169  10.226   9.728  16.678  0.1576 -0.0352 -0.1249
 6636W        W26170   5.327   5.952  13.353 -0.0737 -0.2575 -0.0327
 6637W        W26171  14.208  14.583  12.611 -0.2201 -0.2309 -0.4159
 6638W        W26172  15.253  16.282   0.900  0.0004 -0.1586  0.2330
 6639W        W26173  17.508   6.913  15.295  0.0085 -0.1933 -0.0021
 6640W        W26174   3.822  14.343  15.072  0.1018  0.1062  0.1998
 6641W        W26175   0.455  11.415   0.171  0.1121 -0.0898  0.0346
 6642W        W26176   1.385  10.938  14.101  0.1510 -0.1071 -0.2786
 6643W        W26177  10.539   6.123  14.039 -0.1194  0.2980 -0.4840
 6644W        W26178  13.924   7.803  12.268 -0.1358  0.0750 -0.2042
 6645W        W26179   1.369   0.206   1.021 -0.0513 -0.4874 -0.0657
 6646W        W26180   9.516   3.943   3.804 -0.2028  0.3644  0.1334
 6647W        W26181   0.309   9.690  14.794  0.1160 -0.0821 -0.0806
 6648W        W26182  10.515   8.665   1.047 -0.0238  0.1748  0.1508
 6649W        W26183  17.125  15.922   0.939 -0.0584 -0.2045 -0.3354
 6650W        W26184   7.411  10.009   2.526  0.2296  0.0153  0.0258
 6651W        W26185   7.042  14.468  12.453  0.4032 -0.0797 -0.1339
 6652W        W26186   8.390  10.646   2.614  0.2461  0.0099  0.0614
 6653W        W26187   8.889  15.692   3.976 -0.2710 -0.0574 -0.0283
 6654W        W26188   2.963  17.411  15.392  0.0882  0.2262  0.3390
 6655W        W26189   7.575   4.057  16.448 -0.0615 -0.0736 -0.0648
 6656W        W26190  13.007  14.076   2.905  0.1062  0.1492 -0.1812
 6657W        W26191  15.576  16.303  14.727 -0.0138  0.2550  0.1839
 6658W        W26192   1.248   7.267  13.394 -0.0289 -0.0716  0.0969
 6659W        W26193  14.461   8.470  15.317  0.0596  0.3758  0.2215
 6660W        W26194   7.091   9.759  12.227 -0.0896  0.4114  0.0884
 6661W        W26195  16.860   5.475   2.075  0.0123  0.2867 -0.1494
 6662W        W26196  14.976   0.012   5.264  0.3568  0.0877 -0.2458
 6663W        W26197   8.584  17.312   4.331  0.0375 -0.1186  0.2389
 6664W        W26198  11.646   9.008   4.157  0.0810 -0.3877 -0.0147
 6665W        W26199  17.245  15.680  15.166 -0.1860 -0.0478  0.0404
 6666W        W26200  11.806   6.741   0.317  0.0118 -0.1626  0.1091
 6667W        W26201   0.002   6.987   4.225  0.3270  0.0938  0.0143
 6668W        W26202   5.928   2.233  12.398 -0.3746  0.0409  0.0900
 6669W        W26203  11.859   5.435  13.110  0.1205  0.0817 -0.2042
 6670W        W26204   2.815   2.453   4.709 -0.0242 -0.1365 -0.2405
 6671W        W26205   3.415   9.717   3.606 -0.0058 -0.0502 -0.0847
 6672W        W26206  11.768  11.205   0.053 -0.0343 -0.3542 -0.1009
 6673W        W26207   8.059   8.019  16.560 -0.1591 -0.0611 -0.1937
 6674W        W26208  11.069   3.956  14.197 -0.0103  0.0531 -0.1502
 6675W        W26209   5.280  14.388   2.687  0.0460  0.0531 -0.0172
 6676W        W26210  15.791  10.481   4.346 -0.2971 -0.0540 -0.0327
 6677W        W26211  15.492  12.968  12.735 -0.0980 -0.1272  0.2149
 6678W        W26212   5.953  13.834   3.975  0.2190  0.0212  0.0883
 6679W        W26213  17.588   8.462   0.082  0.0093 -0.0048 -0.0248
 6680W        W26214   8.962  12.198  14.185  0.1952 -0.0289  0.0982
 6681W        W26215  15.509   5.299  15.546 -0.1844 -0.0818  0.0182
 6682W        W26216  16.779   3.902  16.037 -0.0661 -0.0533  0.0884
 6683W        W26217   1.607   2.938   1.243  0.0536  0.0973 -0.1027
 6684W        W26218  17.596   0.459   3.200 -0.3212  0.3456  0.3103
 6685W        W26219  10.498  15.398   0.204  0.1049 -0.1581 -0.0072
 6686W        W26220   9.432  17.176   4.897  0.0382 -0.1254  0.0824
 6687W        W26221   8.952  17.259  12.309  0.2567  0.0531  0.0008
 6688W        W26222  10.456   4.522  16.675  0.1717  0.1087  0.1945
 6689W        W26223  10.007  13.712   5.104 -0.0041 -0.1684 -0.3519
 6690W        W26224  14.269  11.419   2.331 -0.3284 -0.0944  0.0138
 6691W        W26225   9.612  11.227   2.744 -0.1811 -0.0102  0.2626
 6692W        W26226   2.009   0.438  14.001 -0.2654 -0.0988  0.0109
 6693W        W26227  16.152  12.219  14.588 -0.1549  0.1410 -0.0394
 6694W        W26228   0.031   7.562  12.019  0.0647 -0.0669 -0.3134
 6695W        W26229   6.183  11.506   0.942 -0.0164 -0.1525  0.1283
 6696W        W26230   3.526  10.040  14.151  0.1806  0.1257 -0.2218
 6697W        W26231  11.604   5.907   3.748 -0.2222  0.0660  0.0635
 6698W        W26232   7.386   3.598  16.095 -0.2209 -0.2352  0.0895
 6699W        W26233  14.237  15.550  12.261  0.0322  0.0045  0.1073
 6700W        W26234  13.128   5.881  12.437 -0.1835 -0.0222 -0.2584
 6701W        W26235   9.130  11.837  12.155  0.2106 -0.1796  0.0909
 6702W        W26236   4.759   9.384   2.703 -0.1314 -0.0180  0.1015
 6703W        W26237  10.115  17.513  14.974  0.0398  0.2091 -0.0099
 6704W        W26238   4.839  12.250   0.195  0.2641 -0.0369  0.0645
 6705W        W26239   1.720   4.191  12.903  0.2483  0.3798 -0.0309
 6706W        W26240   7.946  17.462  12.184 -0.0422 -0.0527  0.1019
 6707W        W26241  10.533   6.279  15.081  0.0574 -0.0914 -0.4297
 6708W        W26242   3.884  10.672  16.974  0.0922 -0.0443 -0.0563
 6709W        W26243  11.455  13.581  15.971 -0.0399  0.1736 -0.0444
 6710W        W26244   7.790   3.016   2.247  0.1130 -0.1563  0.0594
 6711W        W26245  10.103   9.288  15.070 -0.3423  0.2186 -0.0230
 6712W        W26246  10.322  16.739  15.907  0.2891 -0.2551  0.0534
 6713W        W26247  16.135  16.926  16.455 -0.0029 -0.2129  0.0192
 6714W        W26248  16.315   7.608  11.291 -0.4112  0.1350 -0.2178
 6715W        W26249  16.860  12.130  15.850 -0.2104 -0.2785  0.0384
 6716W        W26250   3.083   8.009  16.620  0.3239  0.2242 -0.0246
 6717W        W26251  14.313   4.231  16.625 -0.0112  0.2466 -0.0767
 6718W        W26252  17.410   6.411   2.833 -0.0624 -0.2002  0.2196
 6719W        W26253   1.902  16.015   2.604  0.0345  0.0761  0.3449
 6720W        W26254   1.516   5.871   3.645 -0.2463 -0.0741  0.0828
 6721W        W26255   2.527  17.617   3.078 -0.1036 -0.0416  0.0134
 6722W        W26256   7.929  15.663  12.071  0.3149  0.3794 -0.1190
 6723W        W26257   7.462   3.411  16.597 -0.0347 -0.1796 -0.2585
 6724W        W26258  11.474  14.276  14.687 -0.1351  0.0570  0.0572
 6725W        W26259  12.838  15.798   1.747 -0.1026 -0.1324  0.0077
 6726W        W26260   8.662  12.838   0.254  0.2043  0.2590 -0.2079
 6727W        W26261   1.749   2.630   2.174  0.0536 -0.0742 -0.0889
 6728W        W26262   2.676   0.937  16.748  0.0514  0.0871  0.1550
 6729W        W26263  14.308  10.608  11.866 -0.0500  0.3250  0.1248
 6730W        W26264   3.601  11.108  16.730  0.1667 -0.0567  0.3747
 6731W        W26265   8.580   1.679  16.985  0.1348 -0.2842  0.1378
 6732W        W26266  15.486   8.771   2.495  0.3722 -0.3139 -0.0519
 6733W        W26267   5.338  12.644   1.597 -0.0122 -0.1981  0.1476
 6734W        W26268  12.800   6.862  15.596  0.0884 -0.0311  0.3314
 6735W        W26269   3.207  10.091   4.015 -0.0530  0.1397 -0.0389
 6736W        W26270   2.289   0.790  13.272  0.0794 -0.4195 -0.1636
 6737W        W26271  16.506   2.909   2.697 -0.2276 -0.0842  0.3472
 6738W        W26272  17.360  17.389   0.913 -0.1505  0.2159 -0.1596
 6739W        W26273  13.445  14.099  13.782 -0.1206 -0.1005  0.1841
 6740W        W26274  15.353  14.618  13.573 -0.2266 -0.1922  0.4318
 6741W        W26275   1.615  16.220  12.760 -0.3214 -0.0717 -0.2534
 6742W        W26276  16.865   0.654   0.121 -0.0560  0.1182 -0.1432
 6743W        W26277   8.861   2.948  14.708 -0.3557 -0.2728 -0.1175
 6744W        W26278   4.078  17.210   2.158 -0.1257  0.2350 -0.1074
 6745W        W26279   6.385   8.271  14.418  0.2517 -0.2249  0.0293
 6746W        W26280   8.352  12.087   0.910  0.1478  0.0577  0.1318
 6747W        W26281  11.375  15.075   5.112  0.1364 -0.0671  0.3266
 6748W        W26282  13.215  10.828   3.089  0.0429  0.0341 -0.0458
 6749W        W26283   5.305   0.447   3.746 -0.2111 -0.0645  0.0607
 6750W        W26284  15.023  11.762   2.795  0.0151 -0.0685 -0.0041
 6751W        W26285   6.862  12.167  16.829 -0.0689  0.1907  0.3073
 6752W        W26286  15.484  15.392  12.635 -0.0728 -0.1504 -0.0451
 6753W        W26287  12.740   9.748   3.374  0.0303  0.1765 -0.0945
 6754W        W26288   1.994   4.147   1.655 -0.1600  0.1300  0.1776
 6755W        W26289   1.876  17.567  12.296 -0.0370 -0.1063  0.0516
 6756W        W26290   9.427   5.609  14.807 -0.2978 -0.0008  0.2079
 6757W        W26291  10.413  13.539  14.422 -0.2114  0.0818 -0.1932
 6758W        W26292  12.449   9.378   0.407 -0.1717  0.0539  0.0164
 6759W        W26293   7.923  16.574  13.198 -0.4681 -0.0461  0.2734
 6760W        W26294   1.283   2.787  15.312  0.0424 -0.0068  0.1739
 6761W        W26295   1.122   5.418   1.888  0.0442  0.1396  0.1008
 6762W        W26296  16.357   7.318  16.332  0.1674  0.0578 -0.3719
 6763W        W26297   5.004   6.036   4.015 -0.2076  0.0292 -0.0293
 6764W        W26298   8.289  11.828  17.049 -0.1635  0.0106 -0.0205
 6765W        W26299  14.842   7.135   3.391 -0.1470 -0.3456 -0.1116
 6766W        W26300  14.666   5.036  15.400  0.2260 -0.2106 -0.2054
 6767W        W26301  10.033   9.783   0.103  0.0729 -0.3612 -0.3382
 6768W        W26302   9.712   5.727   1.789  0.2526  0.0673 -0.2063
 6769W        W26303  11.288   7.046   2.276  0.1767  0.1838 -0.0608
 6770W        W26304   6.016   5.876   2.500 -0.0509  0.4343  0.0645
 6771W        W26305   5.781  12.770   3.933 -0.0708 -0.1927  0.1304
 6772W        W26306   6.166  14.861  13.703  0.1960 -0.1917  0.1145
 6773W        W26307   7.148   4.453   1.562  0.0281  0.1306 -0.2653
 6774W        W26308   7.961   9.895   0.872  0.1200 -0.0027 -0.0030
 6775W        W26309   0.463   6.416   2.071  0.0339  0.1131  0.1314
 6776W        W26310  10.883  15.053  14.763  0.0099 -0.0015 -0.3961
 6777W        W26311   8.732   6.148   6.018  0.0874  0.2433  0.2660
 6778W        W26312  10.001  12.498   4.456 -0.0271 -0.0370 -0.0036
 6779W        W26313   2.132  15.786   3.368 -0.1191  0.1642  0.5392
 6780W        W26314  13.303  16.563  12.589 -0.1049 -0.3453 -0.1386
 6781W        W26315   9.077  15.259  13.194  0.0798  0.2519 -0.2344
 6782W        W26316   5.472  17.031   1.779 -0.1044  0.0652 -0.0193
 6783W        W26317   1.790   1.897   0.816  0.0778 -0.0534 -0.0757
 6784W        W26318  12.399  13.497  13.296  0.3425 -0.1564 -0.2535
 6785W        W26319   7.809   6.603   3.473  0.0643  0.0761 -0.0398
 6786W        W26320  13.017   6.666  16.642 -0.0489  0.1095 -0.1838
 6787W        W26321   4.964   8.007  14.749  0.1990  0.3097  0.2508
 6788W        W26322   4.692  14.298  17.067  0.1944 -0.0077 -0.4028
 6789W        W26323   3.694  13.972   4.464 -0.1439 -0.1343 -0.1102
 6790W        W26324  13.031   3.117   0.341  0.0671  0.2964 -0.0073
 6791W        W26325  17.198   0.909  13.184  0.2428 -0.1260  0.1925
 6792W        W26326  12.480   9.581  14.519 -0.0612 -0.3705 -0.1091
 6793W        W26327   9.046   6.954  12.223  0.2543 -0.0787  0.1287
 6794W        W26328  14.473  13.844   2.011  0.0651  0.0711  0.0885
 6795W        W26329   4.501   3.614   3.204 -0.0600 -0.1777  0.2266
 6796W        W26330   9.800   5.572  14.280  0.0958  0.3286  0.3744
 6797W        W26331  14.072   6.079  13.422  0.2994 -0.0248  0.2135
 6798W        W26332  12.624   3.241   5.123 -0.2280 -0.0425  0.2314
 6799W        W26333   5.349   7.585   2.753 -0.0796 -0.1605  0.1049
 6800W        W26334  17.584   0.172  13.305  0.1781 -0.0487 -0.2471
 6801W        W26335  16.632  17.150  16.429 -0.1861 -0.1763 -0.0703
 6802W        W26336  17.590  13.434  15.866  0.3830  0.1518  0.2597
 6803W        W26337   1.261   3.015  16.308 -0.3580  0.0389 -0.0821
 6804W        W26338   0.514  15.327   3.301 -0.2443 -0.1070 -0.2072
 6805W        W26339   2.611   4.979  16.245 -0.1119  0.1831 -0.2730
 6806W        W26340  10.075   8.420   4.779 -0.4350 -0.3187 -0.0070
 6807W        W26341  16.052   0.007  15.840 -0.1324  0.1791  0.2733
 6808W        W26342   2.142  12.009  16.616 -0.0922 -0.0757 -0.3686
 6809W        W26343  10.942  11.405   0.722 -0.0733  0.0926  0.3317
 6810W        W26344   6.244  14.695   0.590  0.1771  0.3745  0.1385
 6811W        W26345   6.018  11.273  12.129 -0.1690  0.0101  0.0327
 6812W        W26346  13.643  14.755   1.872 -0.3494  0.0674 -0.2076
 6813W        W26347   8.801   3.793  15.767 -0.1289  0.4323 -0.0379
 6814W        W26348   5.707   9.979  15.298 -0.0118  0.2661 -0.1920
 6815W        W26349  15.014   4.121   3.018 -0.0791 -0.1542  0.1167
 6816W        W26350   3.595   9.842   2.643  0.0146  0.1052 -0.0580
 6817W        W26351  10.314   3.209  16.493  0.1106 -0.0678  0.2361
 6818W        W26352  12.758  17.548  16.905 -0.0869 -0.2023 -0.1744
 6819W        W26353  12.906   6.959  12.820 -0.1759 -0.1867  0.0091
 6820W        W26354  12.082   4.334  14.898  0.2598 -0.0506  0.0818
 6821W        W26355  17.328  14.090  14.372 -0.2320 -0.1873 -0.0724
 6822W        W26356  13.893   1.173  12.847 -0.1122 -0.0711 -0.1171
 6823W        W26357  11.480   3.143   3.067 -0.0311 -0.2942 -0.0201
 6824W        W26358  15.212   2.710   0.723 -0.2763 -0.0787 -0.1028
 6825W        W26359  11.408   9.919   1.974  0.2987 -0.1284 -0.1332
 6826W        W26360   0.733  15.431  16.659 -0.1062 -0.0333  0.0303
 6827W        W26361  13.243  13.529   2.707  0.1803  0.2037  0.4790
 6828W        W26362  13.264  14.527   0.267 -0.2107  0.0668 -0.1760
 6829W        W26363  15.911  16.006   4.375  0.4118  0.0545  0.1049
 6830W        W26364  12.131   7.010  16.442 -0.1170 -0.1127 -0.2047
 6831W        W26365   9.491  11.199  14.715 -0.0095  0.1832  0.2146
 6832W        W26366  10.743  17.141  13.112 -0.0927 -0.1836 -0.0640
 6833W        W26367   2.419  10.931  16.143 -0.1786 -0.3117  0.1151
 6834W        W26368  16.305  12.479   3.472  0.0816 -0.0246  0.2308
 6835W        W26369   5.251   5.962  16.640 -0.0318 -0.0223  0.2402
 6836W        W26370  11.205   7.482   1.143 -0.0339 -0.0568 -0.0177
 6837W        W26371  11.554  13.282  13.459 -0.0693  0.1696  0.1586
 6838W        W26372  17.485   2.253  15.417 -0.0592 -0.2181 -0.1071
 6839W        W26373   3.576  15.438  13.638  0.0169  0.4135  0.0936
 6840W        W26374   7.207  11.393   3.664 -0.2981  0.0830 -0.0497
 6841W        W26375   4.021   2.846   2.482 -0.3342  0.2474  0.2597
 6842W        W26376   6.261   6.088  16.907  0.3151 -0.0088  0.1876
 6843W        W26377  16.279   9.603   1.035  0.0702 -0.1709 -0.1569
 6844W        W26378   1.772   2.889  15.168  0.2200 -0.2242  0.2314
 6845W        W26379   1.709   9.655  16.848 -0.4081 -0.2165 -0.0507
 6846W        W26380  15.380   8.745  12.327  0.1255 -0.1150  0.0121
 6847W        W26381   4.410   6.905  13.190 -0.1051 -0.4753 -0.0067
 6848W        W26382   1.211  13.208   1.298 -0.1430  0.1084 -0.1086
 6849W        W26383   5.728   4.132  15.548 -0.1295  0.0959  0.0396
 6850W        W26384   6.736  11.609  15.614  0.0018 -0.0724  0.0237
 6851W        W26385   6.852   0.032  14.075 -0.4398 -0.1433 -0.0485
 6852W        W26386  10.464   0.406   2.813  0.1336 -0.0905 -0.0407
 6853W        W26387   6.701   7.672   0.596 -0.2424  0.1535  0.0954
 6854W        W26388  12.294   8.661   3.760  0.1095 -0.0010  0.1503
 6855W        W26389   3.024   5.146  13.373 -0.3238 -0.0189  0.1515
 6856W        W26390  11.043   1.954  14.104  0.0087  0.0395 -0.0534
 6857W        W26391   2.572  10.397  12.765 -0.0228 -0.2811  0.2444
 6858W        W26392   6.800  12.314   3.527 -0.0124 -0.0040 -0.0251
 6859W        W26393   7.522   0.376   3.957  0.0580  0.1277  0.1938
 6860W        W26394   9.276   0.281   1.340  0.1888  0.0595 -0.0291
 6861W        W26395  11.738  17.234   1.117 -0.2204  0.1802 -0.0445
 6862W        W26396   8.622  10.215  12.264  0.0512  0.0190  0.0624
 6863W        W26397  15.499   7.225  15.410 -0.0042  0.0539  0.1022
 6864W        W26398   3.436   7.990  13.183 -0.0559  0.1331 -0.1446
 6865W        W26399   3.881   6.803  13.148  0.0070  0.1228 -0.1657
 6866W        W26400  13.065  15.791   5.015 -0.2007  0.0639  0.3931
 6867W        W26401   3.056  10.401  12.524 -0.0518  0.1307  0.1027
 6868W        W26402   8.017  11.178  13.370 -0.0296  0.1609  0.1343
 6869W        W26403  10.304  13.525  13.440  0.2647  0.0179 -0.3580
 6870W        W26404  14.815  11.276  12.131  0.3719  0.0374  0.1760
 6871W        W26405  13.573  14.565  13.667 -0.2159  0.1977 -0.0846
 6872W        W26406  15.281   1.173  15.910 -0.1874  0.2270 -0.0089
 6873W        W26407  14.053  13.205   3.227  0.0779  0.0253  0.1041
 6874W        W26408   2.886   5.557   4.929 -0.3947 -0.1163  0.0313
 6875W        W26409  15.138   5.533  16.546 -0.0438  0.0899  0.0683
 6876W        W26410   2.011  16.559   5.185  0.1165  0.0133  0.2108
 6877W        W26411   1.161   5.760  16.809 -0.0799 -0.2042 -0.0467
 6878W        W26412  11.391  11.784  16.689  0.2828  0.1438  0.1802
 6879W        W26413  11.066   4.452   5.115 -0.3032  0.1022 -0.1946
 6880W        W26414  15.573  11.966   3.587 -0.3894  0.1681 -0.1156
 6881W        W26415   0.847  11.918   4.611 -0.0849  0.0011  0.2090
 6882W        W26416  15.139   4.554  16.446 -0.2187  0.3936  0.0468
 6883W        W26417  11.622  13.925   1.092  0.2766 -0.2932 -0.1011
 6884W        W26418  17.391   3.625  14.328 -0.1991  0.0416  0.0085
 6885W        W26419   1.784   7.131   1.148 -0.0137  0.1778  0.0207
 6886W        W26420   8.271   2.995  11.073 -0.1751 -0.0807 -0.0186
 6887W        W26421  16.634   9.309  14.776 -0.2716  0.0220  0.0491
 6888W        W26422   0.712   2.637   4.301 -0.3680  0.0760  0.2845
 6889W        W26423  12.648  11.510  12.883  0.1348 -0.1384  0.1390
 6890W        W26424   0.851  11.934   3.180 -0.0753 -0.0436 -0.0871
 6891W        W26425   2.709  17.365  14.716 -0.2862  0.1099 -0.0756
 6892W        W26426   2.219  14.262   1.533  0.0703 -0.0949  0.1731
 6893W        W26427   5.764  16.856  12.973  0.1681  0.0568  0.0532
 6894W        W26428  10.816  10.697   0.013 -0.1698 -0.3990 -0.2720
 6895W        W26429   9.024   3.887   0.521  0.1794 -0.2077  0.2321
 6896W        W26430   1.212   6.690   1.980  0.0408  0.2458  0.0817
 6897W        W26431   8.491  13.937  15.257 -0.0033  0.1182  0.2555
 6898W        W26432  14.733  11.061  16.004 -0.1771 -0.1119 -0.2679
 6899W        W26433  15.502   2.884   2.683  0.3665 -0.1167 -0.1110
 6900W        W26434  15.620  15.306   0.019  0.0879 -0.1887  0.2165
 6901W        W26435  12.543   2.189   5.027  0.0457 -0.0099 -0.1156
 6902W        W26436   4.090   9.730  16.321  0.1332 -0.1797 -0.1356
 6903W        W26437   1.184  16.568  14.065 -0.0935 -0.0661  0.0164
 6904W        W26438  10.521   7.708   0.642 -0.1972  0.1175  0.0872
 6905W        W26439  10.874  16.343   2.440 -0.1829  0.0873 -0.1732
 6906W        W26440  12.046   8.333  15.988  0.1683  0.1793 -0.1278
 6907W        W26441  16.648   1.074   4.086 -0.1492  0.2428  0.2111
 6908W        W26442  12.487  13.883  17.065 -0.2895  0.0742 -0.1077
 6909W        W26443   9.189   7.673   3.774 -0.0230  0.3205  0.1348
 6910W        W26444  16.387  16.439  12.724 -0.3563  0.1664  0.0086
 6911W        W26445   5.560   8.901  13.140 -0.0786  0.1151  0.0369
 6912W        W26446   8.538   1.865  13.606  0.2598 -0.2511  0.0999
 6913W        W26447  14.690   5.579   1.214 -0.1424 -0.0304 -0.0213
 6914W        W26448  14.346   0.200  16.058 -0.2916 -0.1866  0.3149
 6915W        W26449  12.162  17.459  17.051  0.2334  0.0857 -0.2152
 6916W        W26450  10.736  16.710  16.147 -0.1773 -0.0974 -0.0987
 6917W        W26451   0.733   0.663   1.298  0.0194  0.0605 -0.1580
 6918W        W26452  17.601   2.563  15.799 -0.0083  0.2931 -0.0897
 6919W        W26453  13.566   3.138  14.900  0.2237  0.0912  0.1494
 6920W        W26454  12.333   7.460  14.082  0.0464  0.0072  0.0669
 6921W        W26455   3.944  16.701  13.731 -0.0077 -0.1343 -0.0229
 6922W        W26456   0.030   4.769  14.022  0.1958 -0.0640 -0.0885
 6923W        W26457   1.619   5.767  14.745 -0.2361  0.1812 -0.3327
 6924W        W26458  13.083   5.866   4.275 -0.0775 -0.0328  0.3687
 6925W        W26459   1.490   6.060   5.035  0.1280  0.2057 -0.0012
 6926W        W26460  14.511  14.867  16.992 -0.1913  0.2599 -0.1644
 6927W        W26461  11.261  16.119   1.778 -0.2368  0.2532 -0.3733
 6928W        W26462  12.680  16.143  16.239 -0.0129  0.2298 -0.2203
 6929W        W26463   5.446  17.027   3.876  0.0820  0.4374  0.0118
 6930W        W26464  10.581  13.563  15.769  0.0385  0.0050  0.1999
 6931W        W26465   0.525  10.222   1.155 -0.0851  0.1664  0.0517
 6932W        W26466  16.395   5.054  12.979 -0.1561 -0.0008 -0.0650
 6933W        W26467   8.631  11.856  11.921 -0.4204 -0.2433 -0.1644
 6934W        W26468   4.319  11.543  17.042 -0.0364 -0.0372 -0.0475
 6935W        W26469   1.767   9.399  12.336  0.2279 -0.2963 -0.0236
 6936W        W26470  17.417  13.351   4.236  0.0925 -0.3896 -0.0389
 6937W        W26471  11.431   1.056   1.203  0.0002 -0.0953 -0.1770
 6938W        W26472   5.922  10.687   4.782  0.1556  0.2460 -0.0097
 6939W        W26473   6.358   9.203   5.112 -0.0092  0.2409  0.0671
 6940W        W26474  14.104   4.508  13.019 -0.1164 -0.0606  0.0214
 6941W        W26475  10.013   1.990   4.413 -0.1192  0.0016 -0.0646
 6942W        W26476  14.740   7.469  14.097 -0.1152 -0.0097 -0.2285
 6943W        W26477   4.205   5.890  15.006  0.2347 -0.1327  0.1568
 6944W        W26478   2.819   8.594  12.664  0.0632  0.0820  0.0641
 6945W        W26479  17.242  16.432  14.506  0.2535  0.3006 -0.4739
 6946W        W26480   9.138   1.451  15.303  0.1587  0.0285 -0.0250
 6947W        W26481   7.439  14.056  16.632  0.0548  0.2585  0.1749
 6948W        W26482   3.083  13.073  15.480 -0.2755  0.0135  0.1247
 6949W        W26483  16.533  14.383   0.210  0.2385  0.1153  0.0136
 6950W        W26484   9.510  14.618   0.542 -0.2148 -0.0784 -0.0084
 6951W        W26485   2.528  12.362   3.326 -0.0553 -0.1761  0.1110
 6952W        W26486  13.178   7.619  16.325  0.0267 -0.2867  0.1126
 6953W        W26487   0.671   9.230  16.233  0.1221  0.3349  0.0887
 6954W        W26488   7.293  13.929  13.943  0.1190  0.1992  0.3003
 6955W        W26489   8.513  11.473   4.323 -0.1465 -0.0096 -0.1513
 6956W        W26490   4.379  10.567   3.888  0.3464 -0.2185 -0.0763
 6957W        W26491  10.974  10.060  16.123 -0.1727 -0.0031 -0.1580
 6958W        W26492   3.339   8.110   1.049 -0.0039 -0.2561 -0.2361
 6959W        W26493   7.018   6.306   4.349  0.3094  0.3737 -0.1515
 6960W        W26494  11.670   5.340   3.092  0.2150 -0.2069  0.2619
 6961W        W26495  11.869  17.655  14.018 -0.1233  0.0654  0.2525
 6962W        W26496  13.400   9.709  15.643 -0.0394  0.2271 -0.2127
 6963W        W26497  10.000   8.228  14.007 -0.3211  0.1232  0.0098
 6964W        W26498  11.803   6.205   0.185  0.0377 -0.0923 -0.0067
 6965W        W26499  14.668  15.273   3.937 -0.0511  0.2279 -0.0745
 6966W        W26500  13.225  11.949  15.435  0.0499 -0.0551 -0.0643
 6967W        W26501   9.293  11.029   0.495  0.3687  0.1922 -0.2373
 6968W        W26502   4.996   6.009  15.580 -0.0350 -0.3128  0.1744
 6969W        W26503   6.961   9.213  15.807 -0.0632  0.0606  0.0785
 6970W        W26504   0.699   7.908   5.140 -0.1944  0.0282 -0.3371
 6971W        W26505  12.311  10.561  14.730 -0.2395 -0.2754  0.1422
 6972W        W26506   4.498   3.756   4.167 -0.0792 -0.3465 -0.0283
 6973W        W26507   0.685   1.390  12.518  0.0804 -0.0128 -0.0789
 6974W        W26508  12.188   8.084  12.537  0.0167 -0.2018  0.1135
 6975W        W26509  17.276  14.807  12.692  0.0405  0.0262  0.1933
 6976W        W26510   7.069   8.456   3.235 -0.2814  0.0084 -0.1413
 6977W        W26511  16.937   8.959   3.328 -0.2133 -0.2051  0.3223
 6978W        W26512   9.159  10.293   1.634  0.0082  0.1636  0.0922
 6979W        W26513   2.570   0.306   4.249  0.2502  0.1535  0.1909
 6980W        W26514  10.810   0.387   4.695 -0.0577 -0.2750  0.1263
 6981W        W26515  12.992  13.629   0.782 -0.1353 -0.0903  0.0112
 6982W        W26516  17.112   0.015  14.759 -0.2868  0.1917 -0.2140
 6983W        W26517  15.440   9.064   1.375 -0.0435  0.1346  0.0436
 6984W        W26518  16.518  14.898  13.697  0.0645 -0.0856  0.2403
 6985W        W26519   6.866  16.210  15.549  0.3702  0.2160  0.0358
 6986W        W26520   9.234   0.874  15.423  0.0084  0.0468  0.1094
 6987W        W26521   6.515   6.332   1.317  0.0297 -0.0052  0.1064
 6988W        W26522  10.192  13.328  13.989 -0.2132 -0.2052  0.0230
 6989W        W26523  10.195   6.538  14.168  0.0427  0.0491  0.0566
 6990W        W26524  13.802   5.670   0.652 -0.1259 -0.2482  0.0177
 6991W        W26525   6.025  11.528  14.450 -0.3889  0.0904  0.0397
 6992W        W26526  13.358  10.470  15.416 -0.0491  0.0231 -0.0726
 6993W        W26527   9.679  17.377  14.693 -0.3496 -0.2375  0.0376
 6994W        W26528   0.353  15.471  12.803  0.1864  0.0907 -0.0234
 6995W        W26529  12.930   5.775  14.713 -0.0736 -0.0209  0.1106
 6996W        W26530   4.783  10.779   3.721 -0.2347  0.1975 -0.0780
 6997W        W26531   4.815   4.796  13.436  0.3839  0.0685  0.1776
 6998W        W26532  16.146   4.610  12.757 -0.1453 -0.2454 -0.1409
 6999W        W26533   0.351   5.690  14.191  0.2464  0.1115  0.1480
 7000W        W26534   6.940  16.933  16.058  0.0091  0.0793 -0.0937
 7001W        W26535   3.563  14.150  12.545 -0.2406 -0.0760  0.0375
 7002W        W26536  13.751  15.910   0.956 -0.0879  0.0157 -0.1348
 7003W        W26537   0.827   8.695  16.261  0.1894  0.1459 -0.3022
 7004W        W26538   9.485   7.595  16.368 -0.1758  0.1927 -0.0984
 7005W        W26539  13.629  11.218  13.796  0.0414 -0.0719 -0.2006
 7006W        W26540   4.481   4.318  14.042  0.0014 -0.2893 -0.1804
 7007W        W26541   6.959   9.378  15.205 -0.0375 -0.1624  0.1792
 7008W        W26542  15.598  15.313   2.270  0.0599 -0.0194 -0.2034
 7009W        W26543  16.526  10.967  13.888  0.0866 -0.4222 -0.0526
 7010W        W26544  17.336  10.907  13.720  0.1259 -0.0413  0.0418
 7011W        W26545  17.630   3.318  13.907  0.0891  0.1037  0.1517
 7012W        W26546   6.233  17.518   4.951  0.1089  0.2401  0.2065
 7013W        W26547  11.453   8.059   3.333 -0.0991  0.2047  0.0752
 7014W        W26548  10.673  12.604  14.392  0.2103 -0.1829  0.2385
 7015W        W26549  16.814   1.783   2.022 -0.0336  0.0181  0.2718
 7016W        W26550  10.777   0.595  13.218 -0.3701 -0.0451 -0.0691
 7017W        W26551  12.610   2.407   0.282 -0.0745 -0.3458 -0.3200
 7018W        W26552   3.727   9.266  16.348  0.1012  0.2990 -0.3722
 7019W        W26553   7.748   1.199   3.543 -0.0499  0.4703  0.1281
 7020W        W26554  14.039  16.338   0.640 -0.0025  0.4464  0.2956
 7021W        W26555   7.375   7.605   4.562  0.0275 -0.0041  0.2954
 7022W        W26556  10.089   4.399   4.502 -0.3098  0.0172 -0.1083
 7023W        W26557   1.894  12.437  14.768  0.0793  0.0783 -0.0049
 7024W        W26558   0.263   2.726  13.465 -0.1077  0.0279  0.1333
 7025W        W26559  14.162  12.411  12.406 -0.1285  0.0116 -0.0189
 7026W        W26560  10.055   2.560  12.493  0.2455 -0.4816 -0.0399
 7027W        W26561  12.899   3.946  12.878 -0.1710  0.0535 -0.2174
 7028W        W26562  11.123   1.680  12.453  0.0505  0.2133  0.0359
 7029W        W26563   1.687   5.841  12.161  0.2202  0.2154  0.2745
 7030W        W26564   1.138  12.314  16.381  0.1913  0.0847  0.1094
 7031W        W26565  12.442   4.404  13.739  0.0469  0.3664  0.0230
 7032W        W26566   4.056  13.369  16.760 -0.0791 -0.1639  0.2498
 7033W        W26567  12.264  13.892  14.754  0.1880 -0.0552 -0.1769
 7034W        W26568  11.268   4.747  12.168 -0.3057 -0.0506  0.0417
 7035W        W26569  12.302  10.291   2.381 -0.0534  0.1157 -0.0452
 7036W        W26570   2.689   9.853  14.307  0.0574 -0.0569 -0.0218
 7037W        W26571  13.303  17.105  12.716 -0.3777  0.0733 -0.0263
 7038W        W26572  11.633   1.029   0.696 -0.1924 -0.0552  0.1462
 7039W        W26573  13.601   2.860  13.931 -0.1365 -0.2448 -0.0055
 7040W        W26574  14.129  15.985  13.496 -0.1714 -0.2599  0.1284
 7041W        W26575  10.005   0.655   2.855 -0.1437  0.1982 -0.0399
 7042W        W26576   4.651   5.218   1.131  0.1708  0.2938  0.0326
 7043W        W26577   2.674   5.417  14.911 -0.1874 -0.0269 -0.0982
 7044W        W26578  11.466  11.567   0.948  0.0931  0.0428  0.0204
 7045W        W26579   5.332  10.275  12.199 -0.1917  0.0605 -0.1300
 7046W        W26580  16.073  16.334   1.742  0.1606 -0.1126  0.1638
 7047W        W26581   6.668   8.529  12.557  0.2211  0.3188 -0.0576
 7048W        W26582  17.350  14.556  12.275 -0.1386  0.1352  0.1404
 7049W        W26583   3.689   2.519  15.983  0.1537  0.0178 -0.3251
 7050W        W26584  13.189   5.426  12.766  0.0452  0.3460 -0.0889
 7051W        W26585   5.168   4.069   2.231  0.2593 -0.2192  0.0712
 7052W        W26586   5.601   4.216   2.182  0.1715  0.2961 -0.3186
 7053W        W26587   4.236   9.898  12.555 -0.3295  0.1919  0.0314
 7054W        W26588  10.429  13.637  16.996 -0.0100  0.1587  0.1827
 7055W        W26589   1.731  12.077   0.968  0.0507  0.1936  0.2116
 7056W        W26590  12.037   1.235  16.884  0.5464  0.0142 -0.2217
 7057W        W26591  14.935  16.108  14.054 -0.0385  0.1415  0.1632
 7058W        W26592  17.168  12.772  13.792  0.2794  0.0889 -0.1333
 7059W        W26593   4.959  16.999   4.909  0.1093 -0.0682  0.0629
 7060W        W26594   5.570  12.942  16.549 -0.1557  0.4562 -0.2204
 7061W        W26595   2.572   8.386  13.081  0.2877 -0.1731 -0.0725
 7062W        W26596   0.548  17.154   2.077  0.0211 -0.3301  0.1323
 7063W        W26597  11.494  16.351   1.365  0.1527 -0.0042 -0.0295
 7064W        W26598   3.608  16.874  17.059 -0.0422  0.2880  0.2978
 7065W        W26599  14.743   0.639   4.576 -0.3532  0.2891  0.1249
 7066W        W26600  15.626   6.161   1.884  0.1224 -0.0922  0.0275
 7067W        W26601  13.685  15.011   5.691  0.2917 -0.0165 -0.0082
 7068W        W26602   9.368   6.109  12.832  0.1023 -0.1616 -0.3584
 7069W        W26603   4.586   1.382   1.610 -0.2783  0.1709  0.0302
 7070W        W26604   7.902   9.908   2.373  0.0669  0.2558 -0.0206
 7071W        W26605  12.059  12.796  12.876  0.2570 -0.3082  0.3381
 7072W        W26606   4.660  15.136  13.950 -0.0693  0.1275 -0.0795
 7073W        W26607   2.383  16.789  13.006  0.2866  0.1477  0.2935
 7074W        W26608   4.914   2.968   0.350 -0.4908  0.1685  0.0013
 7075W        W26609   0.239   1.621   3.623 -0.1101  0.0770  0.3692
 7076W        W26610   4.163  12.808   5.236 -0.0435  0.0423  0.0138
 7077W        W26611  10.350   8.131  13.579  0.1223  0.2781  0.0737
 7078W        W26612   2.547   2.656   3.025  0.0686 -0.1025 -0.1983
 7079W        W26613   6.584   8.061  15.932 -0.1854 -0.2354  0.1623
 7080W        W26614   4.699  16.165   0.829 -0.1029  0.2343  0.0740
 7081W        W26615  17.127   0.508  14.596  0.0086  0.0890  0.2609
 7082W        W26616  17.077   2.267   4.026 -0.0273  0.2309 -0.0866
 7083W        W26617   2.753  16.375  14.584  0.0848  0.1531  0.0362
 7084W        W26618   4.438   3.028   0.191 -0.0312  0.1100  0.2815
 7085W        W26619  12.703  12.347  12.560 -0.1250 -0.3065 -0.0652
 7086W        W26620  11.769  14.211  13.538 -0.2147 -0.0361 -0.1976
 7087W        W26621  13.954  10.597  16.036 -0.1225  0.1914 -0.0921
 7088W        W26622   9.012   7.866   1.437 -0.0192  0.3978  0.1624
 7089W        W26623   3.190   7.947   2.530  0.0249  0.1793 -0.0804
 7090W        W26624   1.091  15.437  16.221  0.1020  0.2192 -0.0618
 7091W        W26625   5.737   8.739   2.734  0.2778  0.3680  0.1759
 7092W        W26626   2.752  15.424  12.187 -0.2225 -0.1686  0.0372
 7093W        W26627  14.962  16.418  15.029 -0.3177 -0.0903 -0.1521
 7094W        W26628   8.157   3.640  12.343 -0.2221  0.1370  0.0172
 7095W        W26629  12.458   1.544   1.914 -0.0085  0.3492  0.2040
 7096W        W26630   8.567   8.944  15.831 -0.1312 -0.2575  0.2080
 7097W        W26631   9.459  14.179  16.845 -0.0897  0.0910 -0.1344
 7098W        W26632   1.663  15.446   0.326 -0.1238 -0.1246  0.0386
 7099W        W26633   7.448  14.271  11.205 -0.1033  0.2413 -0.0942
 7100W        W26634   1.344   9.733  15.380 -0.2021  0.0901 -0.1748
 7101W        W26635   8.738   5.026  14.753 -0.0756  0.3499  0.2783
 7102W        W26636  13.616   6.382   4.185  0.0229 -0.3053  0.0964
 7103W        W26637   9.971   6.876   1.356 -0.0423 -0.0828  0.3051
 7104W        W26638   9.356   5.314  14.346 -0.1519  0.1796 -0.1699
 7105W        W26639   6.818  14.996   2.953 -0.1032 -0.0229 -0.0385
 7106W        W26640   8.655   6.934  13.956 -0.0695 -0.1702 -0.0536
 7107W        W26641  15.881  15.850   3.508 -0.0712 -0.0844 -0.0250
 7108W        W26642  12.465   4.770  15.454 -0.1706  0.1092 -0.0509
 7109W        W26643   9.495  14.008  15.023  0.0641  0.1631  0.0719
 7110W        W26644   5.838   5.243   3.139 -0.4643 -0.1634  0.0375
 7111W        W26645  14.066   0.891   5.096 -0.1732 -0.1895  0.1423
 7112W        W26646  16.387   6.001   0.337  0.0257 -0.0205  0.3382
 7113W        W26647   5.607  10.411  13.419  0.0213 -0.2000 -0.1888
 7114W        W26648   1.661   8.347   1.815 -0.0918  0.3981  0.1017
 7115W        W26649   9.492   6.324  15.713  0.1045  0.0040  0.1207
 7116W        W26650  16.242  14.835  14.567  0.2178  0.0204 -0.1746
 7117W        W26651   6.091   6.687   2.794 -0.0850  0.3024 -0.2622
 7118W        W26652   7.837   8.067   1.570  0.1309 -0.0055  0.0227
 7119W        W26653   7.856   5.736   0.199 -0.1783  0.0637 -0.0768
 7120W        W26654  16.957  17.211  13.609  0.1436  0.1844 -0.1979
 7121W        W26655   7.122  14.727   0.422  0.2315 -0.5272 -0.2101
 7122W        W26656   9.054   2.924   3.109 -0.0188  0.1583 -0.0763
 7123W        W26657   3.548   1.208   0.677 -0.1399 -0.0689  0.2758
 7124W        W26658   2.442  16.111   3.628 -0.1441 -0.0006  0.2317
 7125W        W26659   1.295   1.006  14.760  0.0199 -0.1578  0.0640
 7126W        W26660  10.540  10.059   1.764 -0.1234  0.0942  0.0500
 7127W        W26661  17.634   6.496  14.735 -0.0790  0.0812 -0.1536
 7128W        W26662   5.902   7.869   3.513  0.0593  0.0405 -0.3096
 7129W        W26663   0.332   9.647   3.233  0.1147  0.0171 -0.0546
 7130W        W26664  10.477   8.414   3.275  0.1027 -0.3461 -0.0409
 7131W        W26665   9.574  15.156  13.021 -0.0449 -0.2063 -0.1851
 7132W        W26666  15.300   5.284  10.934 -0.2307 -0.0554  0.0558
 7133W        W26667  14.733   0.312   3.637 -0.0411  0.0725  0.0727
 7134W        W26668   1.110  12.094  15.667  0.3823 -0.0872 -0.0680
 7135W        W26669   3.377  14.250   4.209  0.1401 -0.0711 -0.0535
 7136W        W26670   8.171  16.321   4.275 -0.0173 -0.0654  0.2998
 7137W        W26671   3.664   2.028  13.612  0.2185  0.2618 -0.5644
 7138W        W26672   6.095   7.787  12.402 -0.1049 -0.0808 -0.1450
 7139W        W26673  16.315   5.513   0.203 -0.0299  0.1105  0.0605
 7140W        W26674  17.115   1.581   5.249 -0.0310  0.2972 -0.0579
 7141W        W26675  14.445   6.575   0.951  0.2781  0.1558  0.1809
 7142W        W26676  15.237   8.468   2.189  0.0428  0.4409 -0.2909
 7143W        W26677   2.029   5.673   1.606  0.4813 -0.1310 -0.0844
 7144W        W26678   5.022  15.694   1.823  0.1513 -0.2587  0.0297
 7145W        W26679   6.724  10.164  15.357 -0.1700 -0.0787 -0.1866
 7146W        W26680  15.035  17.168  14.954  0.1084  0.0297  0.0576
 7147W        W26681  11.622  16.906   1.463 -0.0792  0.3839  0.1955
 7148W        W26682   0.677   1.240   2.418 -0.1583  0.0085 -0.1814
 7149W        W26683   7.204  10.340   0.597 -0.1507  0.1328  0.0323
 7150W        W26684   5.033   6.902   5.149  0.3803 -0.1385  0.0106
 7151W        W26685  17.104  16.475  15.095 -0.1413 -0.0235  0.1941
 7152W        W26686   0.282   6.913   2.150 -0.4426  0.0611  0.1493
 7153W        W26687   8.175  17.431   2.674  0.0435  0.1990 -0.1882
 7154W        W26688  13.280   9.274   1.325 -0.1366  0.0683  0.0876
 7155W        W26689   2.957   9.543   3.266  0.2649 -0.0004 -0.1689
 7156W        W26690  16.089  13.142  15.000 -0.0694  0.1222 -0.0586
 7157W        W26691  10.149  10.411  13.277 -0.0463 -0.3037 -0.0424
 7158W        W26692   2.242   5.454  12.375  0.0950  0.2258 -0.3029
 7159W        W26693   3.597   7.544  16.856 -0.0019  0.3556 -0.1984
 7160W        W26694  12.492  16.425   0.584  0.1880  0.1185 -0.1244
 7161W        W26695   1.940  16.014   2.096  0.0125 -0.3865  0.3300
 7162W        W26696   7.701   5.371  12.746  0.3521 -0.3853  0.0853
 7163W        W26697   9.358   5.433  13.568 -0.0150  0.0326  0.0650
 7164W        W26698   2.114  10.358   2.751 -0.1544 -0.1380  0.2365
 7165W        W26699  10.229   5.635  13.220 -0.3124  0.0415  0.0574
 7166W        W26700   7.945   7.062   1.467 -0.1011  0.0162 -0.0936
 7167W        W26701  15.555   5.168   0.372 -0.0845  0.1241 -0.2979
 7168W        W26702  15.160   9.397  13.513  0.3076 -0.1281 -0.2135
 7169W        W26703   5.582  14.413   2.154 -0.1350 -0.0425  0.0442
 7170W        W26704   3.597  11.205   1.032  0.0570  0.0010  0.0290
 7171W        W26705   4.397  14.843   0.857  0.0200  0.0200  0.0069
 7172W        W26706   1.934  16.448  15.010  0.0124  0.1135 -0.0467
 7173W        W26707   7.478  15.935   2.033 -0.1935  0.0700  0.0406
 7174W        W26708  13.497   4.649  15.876  0.2313 -0.1309  0.0742
 7175W        W26709   0.804   6.292  14.715  0.2853  0.1227 -0.1463
 7176W        W26710  13.736  10.271  16.369  0.0337 -0.2038 -0.2188
 7177W        W26711  11.810  13.421  12.172 -0.2213  0.3008 -0.4689
 7178W        W26712   1.034  11.506   3.418 -0.1303  0.0816 -0.1926
 7179W        W26713  14.409   7.882  14.168 -0.0807  0.0726 -0.1051
 7180W        W26714   3.711   5.440   2.365  0.0532 -0.0351  0.1201
 7181W        W26715  13.594   6.147  11.667 -0.2187 -0.0983  0.1435
 7182W        W26716   7.759  13.560   3.170 -0.2646 -0.1199  0.1279
 7183W        W26717   0.743   1.896  14.459  0.1939 -0.0318 -0.2432
 7184W        W26718   0.371   1.928   1.146 -0.2538  0.1379  0.0131
 7185W        W26719   6.395   3.681   0.188  0.0122  0.1125 -0.0440
 7186W        W26720   8.275   9.537  11.981  0.2210 -0.1556 -0.1159
 7187W        W26721  12.301  12.751  15.333 -0.0215  0.0240 -0.1651
 7188W        W26722  16.426  15.315   0.508  0.0378 -0.1599  0.0145
 7189W        W26723  11.013   4.332  14.729  0.1276  0.1599 -0.0204
 7190W        W26724   8.727   9.831   3.448  0.1854 -0.0124 -0.0417
 7191W        W26725   3.519  11.332   2.954 -0.0620 -0.0467  0.2949
 7192W        W26726   7.109   1.747   3.225 -0.0738 -0.0676 -0.0977
 7193W        W26727   0.432   6.543  14.408  0.5458 -0.1598 -0.0236
 7194W        W26728   4.554  11.881  13.530 -0.1099  0.0683 -0.1895
 7195W        W26729  16.218   0.869  16.727 -0.3185  0.2884  0.2415
 7196W        W26730  11.361   4.818  12.656  0.2309  0.1808 -0.1154
 7197W        W26731   5.957   4.565   4.895 -0.1878  0.1464 -0.0307
 7198W        W26732   4.539  10.959   1.451 -0.1778  0.0534 -0.2361
 7199W        W26733  12.546   7.960   0.958  0.2742 -0.1312 -0.2098
 7200W        W26734   5.262   0.886  16.032  0.1333 -0.3657  0.1043
 7201W        W26735   7.823   9.142  16.896  0.0364 -0.2142 -0.0736
 7202W        W26736  12.141   3.095   1.543  0.0551 -0.2360 -0.1122
 7203W        W26737   8.226  10.403   2.152 -0.0403  0.1392 -0.2123
 7204W        W26738  14.872   5.976  14.381 -0.0550 -0.1021 -0.0236
 7205W        W26739   5.457   7.241   2.361  0.1384 -0.2253 -0.0083
 7206W        W26740   2.435   1.308  14.725  0.2491  0.0399 -0.1137
 7207W        W26741  14.837   2.831  16.877  0.2164  0.0823  0.2651
 7208W        W26742   7.755   0.025   4.401 -0.0467  0.2569 -0.2191
 7209W        W26743   2.718  12.994  13.740 -0.0053 -0.2356 -0.2379
 7210W        W26744   8.694   9.304  15.015 -0.0953 -0.1903 -0.1739
 7211W        W26745  13.002  15.715  14.037  0.1968  0.0601 -0.0360
 7212W        W26746  13.638   8.527   0.831 -0.0129  0.2635 -0.1490
 7213W        W26747  10.009   7.616   4.413  0.0928 -0.1399 -0.1022
 7214W        W26748   5.219  13.575   2.132 -0.1271  0.0039 -0.4029
 7215W        W26749   6.060   4.664   2.974 -0.0265  0.0969 -0.2254
 7216W        W26750   8.106   2.864   3.389  0.0300  0.0696 -0.2104
 7217W        W26751   0.964   9.252   4.248  0.0307  0.4927  0.0919
 7218W        W26752   8.557  12.121   3.401 -0.4469  0.3336 -0.1301
 7219W        W26753   5.542   6.124   3.210  0.0893 -0.1742  0.0150
 7220W        W26754   9.552  17.149   0.404 -0.1136  0.0501 -0.0543
 7221W        W26755   5.067   9.921   3.469  0.0767  0.1200 -0.1617
 7222W        W26756   9.182   4.776   0.885  0.0993 -0.0755 -0.0670
 7223W        W26757   3.055  13.263   1.430 -0.2308 -0.0765 -0.1411
 7224W        W26758   8.912   5.027  16.010 -0.1151 -0.2031  0.0252
 7225W        W26759  11.925  12.762  14.532 -0.1055  0.0168  0.2947
 7226W        W26760   9.814   3.281   4.927  0.1275  0.0602  0.0278
 7227W        W26761   4.110   9.334  13.842 -0.0747 -0.1047 -0.1748
 7228W        W26762   7.231   8.358  12.325 -0.2559  0.1343 -0.0945
 7229W        W26763   3.018   1.180  14.647 -0.4701 -0.0058  0.1638
 7230W        W26764  17.669   2.514   1.668 -0.0463 -0.0780 -0.0627
 7231W        W26765   0.175   2.186  12.627  0.1168  0.0385 -0.0064
 7232W        W26766   1.676  11.374  13.184  0.0710  0.1309 -0.1638
 7233W        W26767   5.494  11.710   0.874 -0.3110  0.0462  0.1540
 7234W        W26768   7.561  15.624  14.255  0.1984 -0.0459 -0.2452
 7235W        W26769  14.769  15.627   3.168  0.1228  0.0403  0.0328
 7236W        W26770   3.703   1.119  16.456 -0.2818 -0.1143  0.2315
 7237W        W26771   8.487   3.418   1.038  0.3441 -0.0436  0.0993
 7238W        W26772  13.436   6.003   0.508 -0.1828 -0.1982  0.1242
 7239W        W26773  10.616  15.691   4.912 -0.1603  0.2238 -0.0970
 7240W        W26774   7.328  17.589   4.675  0.0850  0.2943 -0.0432
 7241W        W26775  16.950  15.708   0.506  0.1697 -0.1728  0.2139
 7242W        W26776   3.553   1.282  15.952 -0.0613 -0.1483 -0.1576
 7243W        W26777  13.372  14.369   3.181 -0.0639  0.1444 -0.1459
 7244W        W26778  14.064   7.165  15.536  0.0544 -0.2280  0.1125
 7245W        W26779  12.247  16.073  15.171 -0.5291 -0.0692  0.1954
 7246W        W26780  11.802   8.770   1.075 -0.1031  0.1153  0.0235
 7247W        W26781   7.489   5.035  15.474  0.0917  0.2781 -0.3255
 7248W        W26782   6.692   8.305  17.004 -0.0312  0.3033 -0.2062
 7249W        W26783  13.400   2.371  13.800 -0.0611 -0.0704 -0.3139
 7250W        W26784  13.301   0.348  13.761 -0.2975  0.0124 -0.1745
 7251W        W26785  12.192   5.833   0.332  0.1945 -0.0233 -0.2720
 7252W        W26786  11.193  12.953  15.398 -0.2520 -0.0255  0.0999
 7253W        W26787  14.011   6.706   1.632  0.3553  0.1787  0.0667
 7254W        W26788   6.554   6.035  15.066  0.0054 -0.1466  0.2299
 7255W        W26789   9.419   6.554   0.019  0.1376  0.0087 -0.0197
 7256W        W26790   1.783   7.003  14.310 -0.0894  0.1546  0.0666
 7257W        W26791   3.030   9.103  15.708  0.0656 -0.0116  0.0356
 7258W        W26792   1.535  14.975  16.580 -0.0910  0.1744  0.0673
 7259W        W26793   5.902   8.258  12.441 -0.1564  0.1029  0.3975
 7260W        W26794  15.794   6.199   3.340  0.1810  0.1639  0.0251
 7261W        W26795   3.479  10.342  16.759 -0.0916  0.0897 -0.0406
 7262W        W26796  14.150   6.462   3.769 -0.1221  0.4312 -0.0494
 7263W        W26797  15.827   5.274  12.315 -0.0224 -0.0805  0.0022
 7264W        W26798  16.663  15.000  12.312  0.1400 -0.0882  0.0249
 7265W        W26799  12.738   2.071  16.821 -0.0320  0.2073  0.2182
 7266W        W26800   9.289  15.988   1.429 -0.3121  0.0030  0.2908
 7267W        W26801   4.498  12.706  13.211  0.0053  0.0355  0.2884
 7268W        W26802  14.411   8.217   3.374  0.1651  0.2490  0.1689
 7269W        W26803  15.274  11.856   2.261 -0.4319 -0.0635  0.0365
 7270W        W26804  14.406  14.596   4.815  0.0041 -0.1464  0.0132
 7271W        W26805   4.965   9.863   1.126  0.0671 -0.0377 -0.0433
 7272W        W26806  16.551  10.840  16.633  0.1645 -0.3545 -0.1740
 7273W        W26807   9.547   2.610   1.224 -0.2563  0.2121 -0.0879
 7274W        W26808   6.445  13.492   3.764  0.3252  0.0483 -0.1581
 7275W        W26809   4.239  12.375  16.703 -0.0728 -0.0571  0.4607
 7276W        W26810  12.212  16.976   2.249  0.0624  0.2748 -0.1154
 7277W        W26811   8.745   4.589  14.995 -0.2352 -0.2467 -0.2358
 7278W        W26812   4.969  16.329   1.731 -0.2023  0.2428  0.0656
 7279W        W26813   4.860  15.946   3.499 -0.0465 -0.2809  0.0273
 7280W        W26814   0.242  13.922   3.712 -0.2529 -0.3194  0.0620
 7281W        W26815  11.387  15.250   2.265  0.0119 -0.3825 -0.0214
 7282W        W26816   2.534  11.541  13.549 -0.0909  0.1442  0.3601
 7283W        W26817   8.136   6.636   1.592 -0.0353 -0.2460 -0.1552
 7284W        W26818   4.115   6.299   3.492 -0.1677  0.2508 -0.5034
 7285W        W26819   5.837  13.552  12.437  0.0622  0.1474 -0.2009
 7286W        W26820   5.276   3.071  14.884 -0.3108 -0.1360 -0.1051
 7287W        W26821  11.914  10.649  12.722 -0.1051 -0.0933  0.1842
 7288W        W26822   2.040   8.461   3.130 -0.2096  0.4089  0.0710
 7289W        W26823   9.546   4.292  12.361 -0.0644  0.1885  0.1663
 7290W        W26824  12.712   4.933  16.268 -0.0041  0.1185 -0.0392
 7291W        W26825   1.107  10.701  16.904  0.1924 -0.1542 -0.0617
 7292W        W26826   9.481   7.008   1.185 -0.1698  0.0833 -0.0194
 7293W        W26827  12.811   1.806  13.185  0.3229  0.1218 -0.0946
 7294W        W26828  12.455   3.430   4.672 -0.0828  0.4285 -0.0047
 7295W        W26829  16.151  16.966   3.075  0.0284 -0.0453  0.1963
 7296W        W26830  14.172   0.608  13.062  0.1435 -0.0258  0.5317
 7297W        W26831  16.488   7.920  15.088  0.3046 -0.0684  0.3020
 7298W        W26832   7.307   7.649   3.147 -0.2833 -0.2261 -0.1659
 7299W        W26833   1.612   6.291  12.412 -0.0003  0.1365 -0.2180
 7300W        W26834   1.636  10.970   1.107 -0.1304 -0.0166 -0.1807
 7301W        W26835  13.644  10.450  14.543 -0.3100 -0.4741 -0.0029
 7302W        W26836  14.566   9.425  15.319 -0.0066  0.0018 -0.1035
 7303W        W26837  15.685  17.133   0.012  0.0511  0.0544 -0.0686
 7304W        W26838  13.100   4.269  13.268  0.0321  0.0446 -0.0037
 7305W        W26839   1.959  10.417  15.388 -0.2568  0.1809 -0.0891
 7306W        W26840   4.392   5.801  14.440 -0.2533  0.1605  0.3228
 7307W        W26841   7.224  14.457  14.665  0.1062  0.1559 -0.0021
 7308W        W26842   5.124  14.184  16.299  0.1025  0.1923 -0.0687
 7309W        W26843  14.885  10.125   4.271  0.0565  0.1014 -0.1042
 7310W        W26844   6.723   4.269   1.745 -0.1453  0.0603 -0.1699
 7311W        W26845  11.617   3.070  14.476  0.3964 -0.0328 -0.1321
 7312W        W26846   2.712   7.341   3.574 -0.0303  0.3776 -0.0074
 7313W        W26847  15.409  17.160  14.442 -0.3013 -0.1456  0.1724
 7314W        W26848  15.292  10.444   2.064 -0.3146 -0.0869 -0.0163
 7315W        W26849   8.764   6.568  13.614 -0.2130  0.2163  0.1436
 7316W        W26850   4.351   0.033  12.457  0.0059 -0.1235 -0.3435
 7317W        W26851   7.063  16.378   0.232  0.0379  0.0521 -0.2990
 7318W        W26852   1.008   8.185   1.547 -0.1507 -0.1372  0.0729
 7319W        W26853   8.651   0.193   0.549  0.2479 -0.0400 -0.1550
 7320W        W26854   9.119  10.754   1.936  0.1103 -0.0948  0.0985
 7321W        W26855  12.742   6.487   0.340  0.1367  0.1824 -0.0133
 7322W        W26856   0.421   5.615  15.917 -0.2215  0.0015  0.1989
 7323W        W26857  14.392  17.076   2.695  0.0585 -0.3802  0.0031
 7324W        W26858  11.736  13.633  15.412  0.0414  0.0645  0.0593
 7325W        W26859   7.823   3.602   1.720  0.2295  0.0121 -0.0749
 7326W        W26860   7.474   5.617   1.926 -0.0985  0.0168 -0.2173
 7327W        W26861   9.380  16.904  15.467 -0.1120  0.0657  0.2649
 7328W        W26862  17.528  16.112   1.409  0.0809 -0.2219  0.1488
 7329W        W26863  16.572   3.356  13.913 -0.0279 -0.0828 -0.1231
 7330W        W26864   8.224  16.498  13.580  0.3353 -0.1971  0.0302
 7331W        W26865  15.579   8.771   4.841  0.0065 -0.0479 -0.2288
 7332W        W26866   7.617  14.848  14.122  0.0478 -0.0187 -0.2480
 7333W        W26867  17.047  14.159  16.203  0.1228  0.0780  0.0622
 7334W        W26868  11.604   9.771   2.407 -0.1632 -0.0573 -0.1800
 7335W        W26869  16.984  15.753  13.203 -0.1276  0.0756 -0.0749
 7336W        W26870   0.935   8.440  14.645  0.0189  0.0256 -0.0817
 7337W        W26871   8.329  10.175   4.102 -0.1253  0.1419  0.2570
 7338W        W26872   7.777  16.801   3.118 -0.0886 -0.0220 -0.0732
 7339W        W26873   1.735  11.485  11.309 -0.1716  0.0798  0.1962
 7340W        W26874   2.078   7.453  16.887  0.0676 -0.1466  0.1187
 7341W        W26875   5.769   6.413   4.593  0.0786  0.1652  0.2246
 7342W        W26876  14.873  10.717   1.553 -0.0295 -0.2269 -0.1949
 7343W        W26877   7.447  17.440  15.221  0.1371  0.0033 -0.0017
 7344W        W26878   5.917   5.031  12.978 -0.2189  0.2127 -0.2900
 7345W        W26879  17.277   9.670   2.203  0.1894  0.0948 -0.0403
 7346W        W26880  11.691   3.645   4.960 -0.0495  0.0081 -0.0639
 7347W        W26881   8.213  14.451  16.061  0.3221  0.3439 -0.5001
 7348W        W26882   3.814  14.440  12.096  0.0950 -0.0000 -0.0142
 7349W        W26883   0.404  15.100  16.961 -0.1670  0.0104 -0.1026
 7350W        W26884   8.966   6.936  12.723 -0.0132  0.0560  0.0865
 7351W        W26885  16.537  14.953  15.008 -0.1208 -0.2496 -0.3083
 7352W        W26886  10.320  14.973  14.828  0.1890 -0.1485  0.0304
 7353W        W26887  14.884  14.353  14.848  0.1337 -0.2851  0.2409
 7354W        W26888   2.221   4.928   2.632  0.0143 -0.0613 -0.1719
 7355W        W26889   2.662  15.196   1.872 -0.1092 -0.0276  0.1201
 7356W        W26890   0.711   4.698   1.297 -0.2114  0.2641  0.0655
 7357W        W26891  17.658  14.485  12.901 -0.0223 -0.1687 -0.1352
 7358W        W26892  14.855   9.769   2.988  0.0972 -0.0790 -0.0805
 7359W        W26893  15.488   2.632  14.957  0.0014  0.0093  0.1009
 7360W        W26894   6.381  10.365   4.114 -0.0436 -0.4094  0.1079
 7361W        W26895   1.950   5.671   3.776  0.2257  0.0952  0.0429
 7362W        W26896  10.278  10.053   3.838 -0.1811 -0.0601  0.0817
 7363W        W26897  17.523   5.264  17.056  0.2155 -0.3264  0.1898
 7364W        W26898   9.567   2.097  15.834 -0.2116 -0.1230  0.0544
 7365W        W26899  15.456  17.667  13.567 -0.0528  0.1831 -0.1202
 7366W        W26900   2.547   0.281  13.059 -0.0846 -0.2315 -0.0692
 7367W        W26901   9.863  16.376  16.985 -0.0025  0.1253 -0.5598
 7368W        W26902   3.296   4.018   1.480 -0.1860 -0.1133  0.0859
 7369W        W26903   5.144  14.122   2.331 -0.3254  0.1755 -0.1356
 7370W        W26904   6.272   8.986   0.623 -0.1070  0.1500  0.1534
 7371W        W26905  13.539   9.146  16.471  0.2589  0.3860 -0.0149
 7372W        W26906  13.917  15.759   3.635 -0.0713 -0.1559  0.0817
 7373W        W26907   3.485  13.730  12.793  0.0452 -0.0965 -0.2763
 7374W        W26908  13.968  11.233   3.308  0.2742  0.0829  0.0231
 7375W        W26909  12.691  11.027  12.992  0.1981  0.1061 -0.0060
 7376W        W26910  15.586   0.297  14.850 -0.1804  0.0317  0.1500
 7377W        W26911  10.463   5.157  15.289  0.1960 -0.2319  0.1241
 7378W        W26912   5.897   3.077  14.127  0.2589 -0.2140 -0.0039
 7379W        W26913   7.201   9.795  15.207  0.3599 -0.1605 -0.0049
 7380W        W26914  17.437  15.322   1.673  0.0079  0.1487 -0.4318
 7381W        W26915   9.453  15.053   0.860  0.1651 -0.2690  0.2900
 7382W        W26916  11.203   6.553  13.475 -0.0981 -0.2505  0.0878
 7383W        W26917   5.726   0.370   4.975  0.1283 -0.2842 -0.1215
 7384W        W26918   8.836  16.935   1.214 -0.0103 -0.1577 -0.3727
 7385W        W26919   6.474   9.928   3.936  0.1018  0.1688  0.1170
 7386W        W26920  13.796  15.902   0.423  0.3609  0.1681 -0.0248
 7387W        W26921  10.408   2.719  16.599 -0.1777  0.0604  0.0857
 7388W        W26922  15.940  15.284  16.065 -0.1127  0.0052 -0.2112
 7389W        W26923   5.758   8.306  16.160 -0.1180  0.1451 -0.0682
 7390W        W26924  16.187   5.249  16.203 -0.4974 -0.1264  0.0779
 7391W        W26925   5.824   1.671  15.439  0.0730  0.1332  0.1003
 7392W        W26926   5.381  12.066   0.484 -0.1490  0.0088 -0.2168
 7393W        W26927   4.140   4.023   1.067  0.1680  0.0942  0.1102
 7394W        W26928   0.310   9.241   0.816 -0.1391  0.3078  0.1042
 7395W        W26929   4.536   7.861   2.491  0.1170 -0.2248  0.0127
 7396W        W26930   7.999   4.781  15.222  0.0173 -0.0731  0.0720
 7397W        W26931   4.940  14.960  16.520  0.2420  0.2762 -0.1575
 7398W        W26932   0.480  11.682   2.947 -0.0164  0.1142  0.0883
 7399W        W26933   6.601   7.858  13.017  0.0328  0.1341 -0.0454
 7400W        W26934   7.470   1.168  12.633 -0.0235  0.0432  0.0880
 7401W        W26935  11.188   2.910   2.078 -0.0108 -0.1996 -0.2685
 7402W        W26936  17.645   9.044  12.457 -0.0041 -0.3330  0.0230
 7403W        W26937  15.620   1.672  12.531 -0.0433  0.0731 -0.0061
 7404W        W26938   8.020  14.142  12.492 -0.0083 -0.1014  0.1136
 7405W        W26939  15.078   6.854  16.807 -0.2000 -0.1363  0.0619
 7406W        W26940  11.011  15.539  14.782  0.2760  0.2241 -0.1680
 7407W        W26941  17.332   2.882  13.793  0.0200  0.1740 -0.0167
 7408W        W26942  16.241   8.976  15.473  0.0933 -0.3496 -0.2206
 7409W        W26943  13.814  10.985  14.678 -0.1148  0.0827  0.2601
 7410W        W26944  12.574  10.259   0.719 -0.0375  0.2184  0.0511
 7411W        W26945  12.815  17.386  16.414  0.0454 -0.1982 -0.1071
 7412W        W26946  14.843   2.681   3.883  0.4121 -0.0806  0.2231
 7413W        W26947   1.579   6.416   3.225  0.1732 -0.0254  0.0989
 7414W        W26948   3.760   2.190   2.583 -0.1553  0.1762 -0.1652
 7415W        W26949   6.609   2.275  14.454 -0.3286 -0.0133 -0.0855
 7416W        W26950   4.642   4.195   3.364 -0.1418  0.1796 -0.1257
 7417W        W26951   3.463  14.793  13.720  0.2286  0.0496 -0.0002
 7418W        W26952   8.185  16.777   3.423  0.0145 -0.0112 -0.1118
 7419W        W26953   9.349   2.417  16.683 -0.2935  0.1114 -0.2574
 7420W        W26954   2.946   0.509  12.341 -0.1121 -0.1628  0.1276
 7421W        W26955   2.304   1.105   1.855 -0.1200  0.0846 -0.2556
 7422W        W26956   5.423   5.720   1.295  0.0122  0.1825  0.1100
 7423W        W26957  16.018   3.152   0.932  0.0086 -0.0408 -0.0976
 7424W        W26958  15.255   0.812   4.574  0.2389 -0.2520 -0.0650
 7425W        W26959   6.995   9.747  15.672 -0.3094 -0.0912 -0.1654
 7426W        W26960   4.081   1.458  16.749  0.0235  0.0488  0.1039
 7427W        W26961   6.037   1.216   1.555  0.0308 -0.1847 -0.0682
 7428W        W26962   1.346   1.053  17.021 -0.0049 -0.1201  0.1721
 7429W        W26963   8.440  10.642   3.151  0.2777 -0.2882  0.0573
 7430W        W26964   3.939   2.049   1.875 -0.0210 -0.3021  0.2660
 7431W        W26965   4.920   2.366   4.732  0.1213 -0.2697  0.0763
 7432W        W26966  11.684   4.775  14.849 -0.1860 -0.0295  0.0056
 7433W        W26967  14.046  12.608   0.377  0.2759 -0.1531  0.0831
 7434W        W26968  12.372   1.023   3.595 -0.3702 -0.2664 -0.0648
 7435W        W26969   4.745  13.733   2.882 -0.1512 -0.0256  0.1552
 7436W        W26970   9.234   7.477  13.452 -0.0399 -0.1988 -0.2493
 7437W        W26971  13.445   1.890  15.926  0.0999 -0.0673 -0.0797
 7438W        W26972  16.196  15.707  16.783  0.0176 -0.1447 -0.3420
 7439W        W26973   5.113   6.708   2.614 -0.0419 -0.1644 -0.3751
 7440W        W26974   8.130   0.554  16.092 -0.0355  0.5529  0.0395
 7441W        W26975   5.936   3.841   0.104 -0.0983 -0.3726 -0.3047
 7442W        W26976   6.213   1.984   3.599  0.0405  0.0555 -0.0673
 7443W        W26977   9.207  10.126   0.697  0.1060 -0.1174 -0.3018
 7444W        W26978   8.177   0.047  12.867 -0.0855 -0.0827 -0.1275
 7445W        W26979   7.121  15.471   1.866 -0.2656  0.2231 -0.2652
 7446W        W26980  16.744   3.211   0.406  0.2027 -0.1192 -0.0739
 7447W        W26981  15.011  13.287   2.652 -0.0190 -0.1034  0.2402
 7448W        W26982   6.651   2.389   3.293 -0.2897 -0.0215  0.0382
 7449W        W26983   3.775  12.321  13.626  0.3640 -0.0190 -0.0507
 7450W        W26984  10.210   2.708  14.736  0.2279  0.2380 -0.2584
 7451W        W26985  10.316   9.016   1.277  0.0756 -0.0195 -0.2296
 7452W        W26986  14.732  12.559   4.032  0.2752 -0.3219  0.0621
 7453W        W26987  16.512   1.596   1.620 -0.1027 -0.3277  0.1875
 7454W        W26988   6.570  15.630  11.592  0.1346  0.1180 -0.2428
 7455W        W26989   0.273   3.827   0.430 -0.2057  0.0396  0.4469
 7456W        W26990  13.966  15.086  15.577  0.0098 -0.0240 -0.3722
 7457W        W26991  12.491  10.847   0.371  0.1429  0.3403 -0.0478
 7458W        W26992  12.827  16.447  12.224  0.0918  0.0609 -0.2523
 7459W        W26993   0.754  13.624   2.576  0.0979  0.1218 -0.0521
 7460W        W26994   7.243   0.815  16.666  0.0322  0.0402  0.1722
 7461W        W26995  16.538  17.309   3.917 -0.2283  0.0268  0.0658
 7462W        W26996  13.676  10.005  12.073  0.0546 -0.0711 -0.4123
 7463W        W26997  10.317   6.902   3.627  0.3734  0.1339  0.1458
 7464W        W26998  14.592   1.975  15.700  0.1610 -0.1432  0.3967
 7465W        W26999   2.674   2.744   1.120  0.0434 -0.1698 -0.1891
 7466W        W27000   2.571   2.395  16.970  0.0236 -0.0002  0.2770
 7467W        W27001   9.471   5.702  13.141  0.0093  0.0029  0.1391
 7468W        W27002   9.735   4.772   0.993  0.0180  0.0567  0.2941
 7469W        W27003   4.946  10.101  15.703  0.2188  0.0529 -0.0685
 7470W        W27004   7.981  13.861   2.231 -0.0173 -0.0844 -0.1886
 7471W        W27005   8.991  17.459   3.082 -0.3640 -0.0963  0.1569
 7472W        W27006   9.559   6.320   3.773 -0.1025  0.1853 -0.0168
 7473W        W27007   3.394   3.390  15.144 -0.0685 -0.0910 -0.0739
 7474W        W27008   1.257   9.884   0.749 -0.1282  0.2451  0.1972
 7475W        W27009   0.489  12.503   0.233  0.1706  0.1305 -0.0486
 7476W        W27010   8.675   5.344   3.190  0.2704  0.0301 -0.0950
 7477W        W27011  16.228  14.671   1.871  0.0412 -0.2371  0.0832
 7478W        W27012  11.062  12.891   2.503  0.2025 -0.0588  0.1076
 7479W        W27013  11.405  13.398   1.726  0.0112  0.3634  0.2010
 7480W        W27014  11.107   4.326  13.834  0.0618 -0.3683 -0.0593
 7481W        W27015   9.950  12.882  16.914 -0.1665 -0.0436 -0.0010
 7482W        W27016  15.180  13.278  15.709 -0.0299  0.0771 -0.1154
 7483W        W27017  10.151   4.388  15.722 -0.1460 -0.0729 -0.1933
 7484W        W27018  14.359   7.701  12.951 -0.1557 -0.0768 -0.2421
 7485W        W27019   6.258  13.993   0.825  0.1914  0.0106 -0.2097
 7486W        W27020  11.451   7.112   5.120  0.1631 -0.0899  0.0197
 7487W        W27021   3.391  13.860  13.312  0.3135 -0.0641  0.1104
 7488W        W27022   7.859   1.943   2.865  0.0858 -0.1694  0.2455
 7489W        W27023  14.663  16.769   3.511  0.0425 -0.0450 -0.2434
 7490W        W27024  11.545   3.919  12.160  0.0039 -0.0675 -0.3215
 7491W        W27025   6.660  16.721  17.063  0.0949 -0.1816  0.1809
 7492W        W27026  14.622   6.412  14.326  0.0248 -0.1361  0.0640
 7493W        W27027   1.610  13.825  12.206  0.1852 -0.0559  0.3420
 7494W        W27028  14.476  14.678  16.343  0.2116  0.0345  0.0913
 7495W        W27029   9.434  15.585  12.071  0.2539  0.1003 -0.2129
 7496W        W27030   7.043  14.098   3.104 -0.0341  0.0204  0.0599
 7497W        W27031   9.796  11.212   4.853 -0.0233 -0.3484  0.1780
 7498W        W27032  12.078  12.007  15.739 -0.1024 -0.0065  0.0322
 7499W        W27033  16.703  13.747  13.345 -0.0091  0.3310 -0.2435
 7500W        W27034  11.880   8.865  14.192  0.1012 -0.1653 -0.1502
 7501W        W27035   3.025   5.059   5.303 -0.0509  0.0384  0.0860
 7502W        W27036   4.770  12.093  12.014 -0.3403 -0.0889  0.0085
 7503W        W27037   4.776  16.620   4.665  0.0337 -0.0601  0.0959
 7504W        W27038   4.877   2.951  13.136  0.0221  0.1975 -0.2139
 7505W        W27039  14.337  17.514   4.653 -0.3133  0.0837  0.0848
 7506W        W27040  12.236   6.262  15.013  0.1196  0.1224  0.2682
 7507W        W27041   1.829   4.229   0.743  0.2331 -0.0933 -0.0109
 7508W        W27042  11.582   3.963  16.084 -0.0748  0.3482  0.2817
 7509W        W27043  14.502  12.064  13.050 -0.3496 -0.2182 -0.2283
 7510W        W27044   3.550   0.722   3.380  0.3782  0.0978 -0.0247
 7511W        W27045  12.828   1.004  14.164  0.0750 -0.1354 -0.2281
 7512W        W27046   3.174   0.860  13.522  0.1037 -0.0682  0.1695
 7513W        W27047  14.842   8.010  12.242 -0.2388  0.1003  0.0166
 7514W        W27048  17.623   1.803  16.215 -0.3734 -0.0336 -0.0924
 7515W        W27049   9.316  12.326  15.699  0.3488  0.2072  0.1996
 7516W        W27050   7.591   6.667  13.058 -0.0132 -0.2413 -0.2419
 7517W        W27051  17.010  15.136   3.754 -0.1046  0.1851  0.1669
 7518W        W27052  12.977  15.617  12.799 -0.0022 -0.1319 -0.6233
 7519W        W27053  11.931  10.206  13.281 -0.1049 -0.1406  0.2381
 7520W        W27054  15.604   0.584  15.638 -0.2341  0.1289 -0.3305
 7521W        W27055   1.568  14.379   1.919 -0.3180 -0.0613 -0.0888
 7522W        W27056  12.920  15.165  14.138 -0.0814 -0.0009  0.1044
 7523W        W27057   8.807  13.543   1.939 -0.0629  0.0402  0.0472
 7524W        W27058   9.059  14.802   2.261  0.0269 -0.1062  0.0158
 7525W        W27059  16.334   2.013  14.349 -0.0947 -0.2785  0.0092
 7526W        W27060  14.767   3.401  14.561 -0.5097  0.1595  0.0164
 7527W        W27061   4.263   3.321   2.825  0.3226 -0.0353 -0.1419
 7528W        W27062   5.458  10.424  16.551 -0.1713  0.0869  0.0066
 7529W        W27063  14.845  14.643   0.739  0.0287  0.0956  0.0643
 7530W        W27064   9.075   0.365  15.342 -0.2994  0.0402  0.2120
 7531W        W27065   7.387   3.384   3.611 -0.2194  0.2476  0.0373
 7532W        W27066   9.374  14.960  14.146  0.2406  0.1465  0.0935
 7533W        W27067   2.511  16.997  12.082  0.1202  0.0361 -0.2070
 7534W        W27068   0.570  14.939   4.077  0.0440  0.0601 -0.1490
 7535W        W27069  11.323  16.679   1.825 -0.2015  0.1451  0.4265
 7536W        W27070   4.390  11.874  14.645 -0.0728 -0.1283  0.3119
 7537W        W27071   8.305  13.107   2.654  0.2276  0.0748 -0.1411
 7538W        W27072  10.092   5.413  15.051  0.1822  0.2178 -0.0278
 7539W        W27073   5.467   5.699   4.807  0.3021  0.2293  0.0327
 7540W        W27074   0.389   3.401   4.988 -0.1198  0.0145 -0.2464
 7541W        W27075   0.316   4.538   4.954 -0.2906 -0.0102 -0.2326
 7542W        W27076   5.189   3.227  16.222 -0.2231  0.3064  0.0883
 7543W        W27077   8.521  12.450   4.335 -0.0665  0.0639 -0.0982
 7544W        W27078   8.976  11.818  15.910 -0.2399 -0.2050  0.2420
 7545W        W27079   8.815   2.652  16.619 -0.1770  0.1998  0.0991
 7546W        W27080   0.614  17.491   0.571 -0.4085  0.0417 -0.1513
 7547W        W27081  12.656   4.471  15.938 -0.0243 -0.0928 -0.2640
 7548W        W27082   9.602  13.032   0.156  0.1289 -0.0819  0.0697
 7549W        W27083  13.396   4.130   2.691  0.2293  0.2053  0.1450
 7550W        W27084  16.567   3.485   1.101  0.2444 -0.2106  0.0017
 7551W        W27085   2.217   2.381   4.039  0.2745  0.0053 -0.0751
 7552W        W27086   5.414   1.812  12.488 -0.0510  0.1907 -0.1975
 7553W        W27087   2.238   3.665   1.821  0.1012 -0.0717  0.0927
 7554W        W27088   1.293   7.456  14.318 -0.0042 -0.0174 -0.2660
 7555W        W27089   3.328   9.533   1.464 -0.0224 -0.0301 -0.1781
 7556W        W27090  14.343   9.658  14.202 -0.3091 -0.2588  0.0335
 7557W        W27091   6.583   4.747   1.050 -0.1045  0.0767  0.2828
 7558W        W27092   7.877  16.902   5.110  0.1267  0.1939 -0.2304
 7559W        W27093   0.222   1.181   2.278  0.2213  0.0226 -0.1235
 7560W        W27094   8.837   3.045  14.073 -0.0051 -0.3909  0.0551
 7561W        W27095   7.635   4.538   1.295  0.1930 -0.0891 -0.0222
 7562W        W27096  12.662  11.331   2.470 -0.0146  0.2633 -0.1245
 7563W        W27097  10.624  15.671  14.094  0.1074 -0.2063  0.1031
 7564W        W27098   8.029   5.423  13.223 -0.0734 -0.0316 -0.2326
 7565W        W27099  16.663  12.200  13.216 -0.1499 -0.0916 -0.1087
 7566W        W27100  15.302  12.163  14.806  0.0090 -0.0623 -0.0821
 7567W        W27101  14.064   3.166   2.878 -0.1088 -0.2465  0.0082
 7568W        W27102  15.543   0.300   1.903 -0.0572 -0.0652  0.0800
 7569W        W27103  14.238  15.840   0.542 -0.0025 -0.3817 -0.0538
 7570W        W27104   3.738   6.409   1.709  0.1632  0.0147 -0.2611
 7571W        W27105   2.572   8.735   3.946  0.0736 -0.1022 -0.2218
 7572W        W27106   6.290   6.263   1.812  0.0174 -0.0343  0.2983
 7573W        W27107   2.608   6.927  16.412  0.0245 -0.2271 -0.1503
 7574W        W27108  17.008  12.004  15.360 -0.0580  0.1183  0.0629
 7575W        W27109  16.088  13.386   2.531  0.2751  0.0688 -0.3060
 7576W        W27110  10.117  11.570   0.761  0.1576 -0.1939  0.1468
 7577W        W27111   5.048   8.331   4.803 -0.3302  0.1304  0.0241
 7578W        W27112   8.485  10.096  15.114 -0.0951  0.0655 -0.0722
 7579W        W27113  10.481  13.315   2.524 -0.0193  0.2154  0.0779
 7580W        W27114  11.999  13.376   4.051 -0.3051 -0.0392  0.1967
 7581W        W27115  12.377   9.836  13.205 -0.2676 -0.1207  0.0001
 7582W        W27116   7.286   7.717  14.339  0.1802 -0.1418  0.0977
 7583W        W27117   8.472  12.728   3.520  0.0933  0.3937 -0.2304
 7584W        W27118  16.790   6.226   2.721  0.0210 -0.3090  0.0946
 7585W        W27119  14.096   0.278  16.562 -0.0601  0.2485 -0.0418
 7586W        W27120   9.047   0.838  11.214 -0.1092 -0.0885  0.2749
 7587W        W27121   7.029   3.101  12.360 -0.1035  0.1422 -0.3446
 7588W        W27122  15.558   1.316   4.164 -0.0769 -0.1499  0.0530
 7589W        W27123   5.311   8.543  13.816 -0.0729 -0.2876  0.0195
 7590W        W27124  17.429   0.831   0.623 -0.0660 -0.2529  0.0195
 7591W        W27125  14.216  13.236  12.420  0.3332 -0.1772  0.0074
 7592W        W27126   8.886   3.471  14.407  0.2615  0.1317 -0.1501
 7593W        W27127  17.282   4.534  13.225 -0.2167  0.3771 -0.0161
 7594W        W27128  11.031   7.774   0.708 -0.1340  0.1181  0.2929
 7595W        W27129   0.999  17.232   2.937  0.1036  0.1836 -0.0937
 7596W        W27130  11.469  11.798   4.836  0.2278  0.0115  0.2757
 7597W        W27131  14.672   7.132   1.206 -0.0437  0.0543 -0.0057
 7598W        W27132   7.219   9.250  13.764  0.0594  0.0964 -0.1393
 7599W        W27133   6.035   6.733   2.051 -0.5275  0.1092 -0.1563
 7600W        W27134   1.009  11.565  11.906  0.1638 -0.1014  0.2465
 7601W        W27135  10.050   9.895  14.183 -0.4546 -0.3043  0.2769
 7602W        W27136   0.392  10.015  14.324  0.0336  0.2380 -0.2046
 7603W        W27137  13.176  12.950  14.414  0.0983 -0.1559 -0.2034
 7604W        W27138   1.259  10.238   1.146 -0.1272 -0.2546 -0.1964
 7605W        W27139  12.289   6.513   1.442  0.2713  0.1250  0.0420
 7606W        W27140   0.940  16.421   2.620 -0.0359 -0.0637 -0.2217
 7607W        W27141  14.710  12.413  13.528 -0.2553  0.2836  0.1202
 7608W        W27142  16.013   1.990  15.367  0.2259 -0.0163 -0.0143
 7609W        W27143   9.471  16.089   0.061  0.1356 -0.1417 -0.1989
 7610W        W27144   5.486  12.238  13.685 -0.2282  0.2420  0.0064
 7611W        W27145   2.190  11.723   0.709  0.1756 -0.2110  0.2680
 7612W        W27146   7.579   5.067   2.625 -0.2750  0.1528  0.0061
 7613W        W27147   9.600   8.517  14.884  0.0939 -0.0546  0.1438
 7614W        W27148   8.874   3.343   5.271  0.1580  0.0260  0.0485
 7615W        W27149   5.044   9.879  13.018  0.0235  0.2416 -0.0935
 7616W        W27150   1.339   6.305   0.539  0.2815 -0.0286 -0.0936
 7617W        W27151  17.342  14.827  16.819  0.2881  0.1541  0.2951
 7618W        W27152   5.955  10.248  15.806  0.1175 -0.0757  0.1820
 7619W        W27153   2.699   4.360  15.398 -0.1755  0.1316 -0.1511
 7620W        W27154  14.760   3.855  13.488  0.2478  0.3589 -0.0121
 7621W        W27155  16.746  11.998   1.557 -0.2228  0.1948 -0.2712
 7622W        W27156  10.682   1.727   0.868 -0.0374  0.2365  0.0817
 7623W        W27157   6.180   1.149   0.198 -0.1047 -0.0522  0.2118
 7624W        W27158   2.450   7.227   4.375  0.2893 -0.1513 -0.2615
 7625W        W27159  16.269   7.117  13.726 -0.0738  0.0138 -0.1772
 7626W        W27160  11.969  16.249  12.071  0.1363  0.2302  0.1975
 7627W        W27161   4.827   7.876   1.272 -0.1617  0.0746  0.0670
 7628W        W27162  17.109  14.985   2.465  0.1751  0.0009 -0.0647
 7629W        W27163  10.674   5.735   1.647 -0.1070 -0.1898  0.0112
 7630W        W27164  15.747   4.354  14.143  0.0881  0.0353 -0.0614
 7631W        W27165   4.502   1.740  16.759  0.1144 -0.1628  0.1010
 7632W        W27166   3.260   3.945   4.441 -0.0193  0.1340  0.2687
 7633W        W27167  13.703   6.832   0.600  0.0250  0.0641  0.1539
 7634W        W27168   6.837  10.034   0.605 -0.2886 -0.0773  0.0518
 7635W        W27169  11.543   6.651  12.721  0.1335  0.1659 -0.0115
 7636W        W27170   8.997   8.151  12.709  0.0160  0.2090  0.1750
 7637W        W27171   9.664  11.121  11.999  0.0514  0.3847  0.0259
 7638W        W27172  13.198   1.748  13.918 -0.0682  0.1866  0.1452
 7639W        W27173   0.642  15.905  16.716  0.2958 -0.0141  0.0776
 7640W        W27174   3.444  15.618   1.670 -0.1498 -0.2049  0.0940
 7641W        W27175  12.318   2.395   2.832  0.0528  0.1558  0.0030
 7642W        W27176   4.460   6.574  12.863  0.2252 -0.1245 -0.2461
 7643W        W27177  13.082   6.074   4.841 -0.1638 -0.1492  0.0851
 7644W        W27178   8.904   4.770   4.358 -0.0647 -0.2460 -0.2900
 7645W        W27179   4.290  16.344   0.635  0.1960 -0.3954  0.3570
 7646W        W27180   2.359   5.947   2.806  0.2947  0.0830  0.0288
 7647W        W27181  15.536   9.515  16.659 -0.0004  0.1491  0.2443
 7648W        W27182  15.846   2.099   2.752  0.3475 -0.2246  0.2958
 7649W        W27183  16.260   9.028   3.709  0.0763 -0.1088 -0.2429
 7650W        W27184  13.554  11.764   2.103 -0.2517 -0.1649  0.1485
 7651W        W27185   3.871  13.108   2.244 -0.1010  0.0198 -0.0089
 7652W        W27186   4.912  12.095   0.693  0.0226 -0.0085  0.2861
 7653W        W27187   2.274  17.249  16.732 -0.0094  0.0057 -0.0470
 7654W        W27188   8.282  15.761  12.732 -0.0088 -0.1492 -0.1664
 7655W        W27189  10.141  12.760  13.931 -0.1353  0.0073 -0.0885
 7656W        W27190   0.360   1.573  14.451  0.1778  0.1315  0.1707
 7657W        W27191  10.334  17.216  13.427  0.0295  0.1628 -0.0897
 7658W        W27192   8.255   9.622  13.745  0.1057  0.3161 -0.0649
 7659W        W27193   5.380  15.144  16.086  0.4044 -0.0778  0.2459
 7660W        W27194   1.696   4.697   4.478 -0.0997 -0.0601 -0.0414
 7661W        W27195  11.001  13.750   2.957 -0.2498  0.4805 -0.0962
 7662W        W27196   7.601   3.601  14.772  0.0793 -0.0937  0.1742
 7663W        W27197  10.780   0.982  15.086 -0.1926  0.2874  0.1115
 7664W        W27198  13.341  12.168  16.866 -0.3886  0.1547  0.4926
 7665W        W27199   6.124  17.632   1.278 -0.0051  0.2408  0.6002
 7666W        W27200   9.584  16.503   2.990 -0.0172 -0.1865 -0.0225
 7667W        W27201  16.438  14.424   4.135  0.2431  0.0260  0.0993
 7668W        W27202   3.936   6.314  14.568 -0.0849 -0.1257  0.0756
 7669W        W27203   5.053   4.225  14.262 -0.1391 -0.2492  0.1194
 7670W        W27204   6.755   2.761  14.257  0.1345 -0.1660 -0.2050
 7671W        W27205   4.341   7.049  16.411  0.1237 -0.0871 -0.3107
 7672W        W27206   6.068  14.697   1.767  0.1283 -0.0571  0.0255
 7673W        W27207   2.874  13.488   4.123  0.3030 -0.3273 -0.1383
 7674W        W27208  13.756   5.178   0.352 -0.3431 -0.1330  0.1199
 7675W        W27209  16.969  10.263   3.115  0.0247 -0.0322 -0.1000
 7676W        W27210   8.042  16.968  15.057 -0.0865 -0.2514 -0.1167
 7677W        W27211   4.441   4.770   1.275 -0.0147  0.1125 -0.3600
 7678W        W27212   7.301  10.809  12.907 -0.4339 -0.3263  0.1971
 7679W        W27213   6.318  16.310  16.936 -0.1275  0.1451 -0.0878
 7680W        W27214  11.911  15.974   3.315 -0.1478  0.0490 -0.0276
 7681W        W27215   9.810  17.450   2.491  0.1314 -0.0450 -0.0062
 7682W        W27216   1.755  11.559  14.418  0.0020 -0.0371  0.2379
 7683W        W27217   7.731  11.560  12.177  0.1612 -0.1149 -0.0989
 7684W        W27218  14.379   3.279   0.610  0.1505  0.0365  0.1020
 7685W        W27219   6.135   6.951  13.869 -0.1582  0.1291  0.1871
 7686W        W27220  15.235   2.814   1.694  0.2799  0.0874 -0.0385
 7687W        W27221   0.179  10.654  16.658  0.1076 -0.0692  0.3028
 7688W        W27222   5.038  15.390  13.605  0.2862  0.1200 -0.3305
 7689W        W27223  10.156   2.159   2.728  0.0475 -0.1524  0.0427
 7690W        W27224   9.524   5.501   0.853  0.4180 -0.0316  0.0071
 7691W        W27225   3.754   6.785   0.890  0.0578  0.0260 -0.1321
 7692W        W27226  10.926   9.775   1.941  0.1212  0.0428  0.2238
 7693W        W27227   4.366  10.089   3.694  0.1718  0.1081 -0.1662
 7694W        W27228   7.690  13.625  15.856 -0.1091  0.0018 -0.1343
 7695W        W27229   8.843  13.316  14.247 -0.0434  0.0676  0.5220
 7696W        W27230  13.681   6.706   2.247  0.0366 -0.1157 -0.0575
 7697W        W27231   2.122  13.653  12.183  0.0383  0.0850  0.1411
 7698W        W27232  13.327   5.581   4.644 -0.0646 -0.1086 -0.1102
 7699W        W27233   1.556   4.933  16.446  0.0769 -0.0979 -0.2283
 7700W        W27234   8.269   5.184   4.482  0.1160  0.3002  0.0478
 7701W        W27235   1.418  15.366   3.827 -0.0079 -0.0579 -0.0209
 7702W        W27236  14.573   9.356   1.536  0.3373  0.0654  0.2750
 7703W        W27237  13.677  14.720  12.703  0.2757  0.0589 -0.2717
 7704W        W27238   6.360   5.638   2.848  0.0878  0.2306  0.4501
 7705W        W27239   6.412   3.963   1.225  0.2750 -0.0621  0.0928
 7706W        W27240   5.601   7.872  15.478  0.0294 -0.0240  0.0926
 7707W        W27241   9.143   4.707  12.747 -0.3639 -0.0223  0.0530
 7708W        W27242  15.148  11.624   1.194 -0.3959  0.1469 -0.0401
 7709W        W27243   7.273   5.463   2.915 -0.1886 -0.3353  0.1740
 7710W        W27244  15.889  17.074   0.545  0.0065  0.0565  0.1458
 7711W        W27245  11.747   5.081   2.440 -0.0353 -0.0798 -0.0957
 7712W        W27246   2.432   7.912  14.690  0.0401  0.2163 -0.1759
 7713W        W27247  14.008  16.869  13.268 -0.0044 -0.1097  0.0635
 7714W        W27248   0.335  12.212  13.493 -0.0769  0.0644 -0.2057
 7715W        W27249   4.067   8.699  12.036 -0.3681  0.0345 -0.1557
 7716W        W27250  17.270   5.174  13.612  0.2344  0.0725  0.0034
 7717W        W27251   9.910  10.080   0.563 -0.3247  0.1324  0.3067
 7718W        W27252   7.374   0.031  14.280 -0.1875  0.0382 -0.1991
 7719W        W27253  10.210  12.833  12.487 -0.2654 -0.3084 -0.0055
 7720W        W27254  17.128   4.754   5.164 -0.0050  0.0600  0.0312
 7721W        W27255   5.686  13.353   2.718  0.1092  0.0366 -0.2190
 7722W        W27256   5.034  17.262   0.371 -0.1011  0.2329 -0.0320
 7723W        W27257   0.627  10.377  16.884  0.1500  0.2624  0.0039
 7724W        W27258   1.463  14.365  15.342 -0.2462  0.0186 -0.0589
 7725W        W27259   2.370   1.351   4.340  0.0670  0.4111 -0.1668
 7726W        W27260  15.952   7.598   3.683  0.0406 -0.0002 -0.2694
 7727W        W27261  10.916   9.072   2.084  0.0126 -0.1603  0.1325
 7728W        W27262   6.668  13.764  16.179  0.0464 -0.1481 -0.1423
 7729W        W27263  14.263   7.981   1.669 -0.0029 -0.2092  0.0603
 7730W        W27264  15.741   2.811  13.196  0.0851 -0.0675  0.1815
 7731W        W27265  13.153  16.391   2.751 -0.0351  0.0262  0.2553
 7732W        W27266  16.574   9.922   3.302 -0.1243  0.1312  0.0750
 7733W        W27267  13.544  11.327   4.253  0.1954  0.1924 -0.1733
 7734W        W27268   9.904  14.001   4.654  0.2308  0.1476 -0.0271
 7735W        W27269   8.805  13.076  15.155 -0.3309 -0.2182  0.0495
 7736W        W27270  17.345  12.182  15.674 -0.1578  0.1860 -0.2587
 7737W        W27271   1.361  16.096  12.307  0.0774  0.2583  0.1216
 7738W        W27272  13.539  10.390  13.958 -0.1972 -0.0370  0.3616
 7739W        W27273   4.420   7.591  16.273  0.0636  0.0277  0.2533
 7740W        W27274   3.989   8.077   1.787  0.3407  0.0954 -0.0349
 7741W        W27275   9.939   8.908   4.320 -0.0426 -0.0506 -0.2015
 7742W        W27276   4.614  16.341  14.780  0.1846  0.0677  0.0437
 7743W        W27277   6.100   3.520  14.905 -0.0657 -0.3841  0.2032
 7744W        W27278  11.298   3.527   3.930  0.2389  0.0126  0.1179
 7745W        W27279   7.317   9.394   4.361 -0.1332 -0.0503 -0.0242
 7746W        W27280  11.321   0.742  15.861 -0.1744 -0.2924 -0.0010
 7747W        W27281   3.562   1.949  14.130 -0.1269  0.3347 -0.2072
 7748W        W27282  14.374  14.176  13.493  0.1806  0.0942 -0.2988
 7749W        W27283   8.649   7.592   5.019  0.0960 -0.1530 -0.0847
 7750W        W27284  12.316   8.662  11.879  0.1928 -0.1101  0.0427
 7751W        W27285  16.798   4.091   2.279 -0.0793 -0.6056  0.0368
 7752W        W27286   7.469   3.004  15.302 -0.0719  0.0476  0.1930
 7753W        W27287   4.846  13.717   2.394 -0.1183  0.4077  0.2737
 7754W        W27288   4.238  12.669  12.731 -0.1142  0.1651 -0.0743
 7755W        W27289  16.100  17.397   0.913 -0.0962 -0.1149 -0.2660
 7756W        W27290  16.302  17.565  14.623  0.0718 -0.2443  0.0610
 7757W        W27291   8.401  13.522  14.349 -0.2468 -0.0551 -0.0635
 7758W        W27292  17.071   6.854   4.868 -0.0244 -0.0317 -0.0294
 7759W        W27293   7.178  14.879  14.444 -0.0601 -0.0753  0.0190
 7760W        W27294  16.821   0.574  12.243  0.1515  0.1295 -0.0164
 7761W        W27295   3.770  17.644  12.248 -0.2049  0.0931 -0.0003
 7762W        W27296  13.170  15.079   2.494 -0.0011 -0.3129 -0.0344
 7763W        W27297   0.561  15.374   4.317  0.3190  0.1320  0.3075
 7764W        W27298  13.698   6.509  15.997 -0.0432 -0.0809  0.1167
 7765W        W27299   4.971  11.730  14.769 -0.2813  0.0315 -0.3769
 7766W        W27300  14.776   7.543  12.683 -0.1345 -0.0996  0.3320
 7767W        W27301   3.433   7.528  13.672  0.1265  0.0587 -0.1398
 7768W        W27302  14.024   9.148   4.856  0.1741  0.2719  0.1022
 7769W        W27303  12.379   0.416  13.090 -0.1428  0.2432 -0.2018
 7770W        W27304   0.811   6.482  15.982 -0.1779  0.0416 -0.0257
 7771W        W27305   1.937   3.991  16.710  0.0030 -0.1312 -0.0499
 7772W        W27306   6.884   6.303  14.757 -0.0867 -0.0046  0.2074
 7773W        W27307   1.881  17.096   4.411 -0.1353  0.0345 -0.2028
 7774W        W27308  10.434  14.679   0.823 -0.1810  0.1779  0.2845
 7775W        W27309   5.180  17.391  12.192 -0.0935  0.1106  0.1964
 7776W        W27310  14.191  11.794   5.017 -0.3069  0.2109 -0.0432
 7777W        W27311   4.688  14.785  15.183 -0.3670  0.1705  0.0553
 7778W        W27312   2.645  13.950   3.312  0.1352 -0.1200 -0.0106
 7779W        W27313   9.378  11.481  15.925 -0.0340  0.0160  0.0102
 7780W        W27314   8.636   1.689   0.430 -0.3129  0.1851 -0.1354
 7781W        W27315  12.173  16.460   3.585 -0.1293  0.0757 -0.1759
 7782W        W27316   9.845   7.378  14.082  0.2924 -0.2080  0.4593
 7783W        W27317   6.542  11.329  16.913  0.1646 -0.0857 -0.0197
 7784W        W27318  10.352  14.307   1.243 -0.1979 -0.0519 -0.1329
 7785W        W27319  12.326   9.703  12.755 -0.3332  0.0914  0.0188
 7786W        W27320  12.923   5.654   0.842  0.1552 -0.0219  0.1393
 7787W        W27321  10.982   8.236   2.095  0.1087 -0.0114  0.0573
 7788W        W27322   1.293   6.059   0.108  0.0772  0.0946  0.3665
 7789W        W27323   3.676  16.478  14.779 -0.0015  0.2238  0.0748
 7790W        W27324  15.345  16.896  13.402 -0.1716 -0.0717  0.2329
 7791W        W27325   0.271   5.316  16.598 -0.0138 -0.0444  0.2202
 7792W        W27326   1.822   5.344  16.560  0.0859 -0.1943  0.1021
 7793W        W27327  12.956   8.340  16.090 -0.0538  0.1731 -0.4826
 7794W        W27328  10.088   9.504   1.442  0.1203 -0.2680  0.0133
 7795W        W27329  14.109   4.551  13.546  0.1643 -0.2846  0.0099
 7796W        W27330   7.346   2.262   5.756 -0.1234 -0.0399  0.1280
 7797W        W27331   1.061   6.802   1.045  0.1159  0.0475  0.0580
 7798W        W27332  10.684   3.511  13.517  0.0484  0.1289 -0.0115
 7799W        W27333  13.416   0.382   4.758 -0.2171 -0.1372  0.1954
 7800W        W27334   4.291   9.451   3.803 -0.0917 -0.0877  0.1367
 7801W        W27335   9.289   6.878   4.887  0.0933  0.0669  0.0412
 7802W        W27336   2.341   5.851   0.349 -0.1451 -0.1359  0.0627
 7803W        W27337   8.951  17.092  14.991  0.0266  0.2477  0.0967
 7804W        W27338   0.899  10.772  12.327  0.1255  0.0407 -0.0408
 7805W        W27339  12.221  11.160  11.563 -0.0690 -0.0309 -0.4137
 7806W        W27340  14.334   1.099  13.122 -0.1823 -0.2275 -0.0855
 7807W        W27341   4.271  10.645  13.133 -0.0052  0.1317 -0.0374
 7808W        W27342  14.198   9.252  12.326 -0.2268  0.0367  0.1717
 7809W        W27343   7.164   2.219  12.503  0.3774  0.3234  0.0897
 7810W        W27344  10.096  17.474   4.488  0.1331 -0.0531  0.0923
 7811W        W27345   8.229   0.572  14.118  0.0151  0.1592  0.1039
 7812W        W27346   2.811   2.357   2.736  0.2354 -0.2715  0.1049
 7813W        W27347   5.950   6.247   2.853  0.3285 -0.0715 -0.0472
 7814W        W27348  12.444   2.135   2.248 -0.0121 -0.0077  0.2237
 7815W        W27349   6.061  15.195   4.860  0.0483  0.1757 -0.2854
 7816W        W27350   6.858  16.703  15.336  0.1083  0.0402 -0.0916
 7817W        W27351   9.550   9.848  12.550  0.5069 -0.0122 -0.0177
 7818W        W27352  13.741   8.177   1.612 -0.3516  0.0692 -0.1136
 7819W        W27353   7.001   0.006  15.166  0.0379 -0.0378 -0.0287
 7820W        W27354   8.131   0.856   2.407  0.0109 -0.0501  0.0044
 7821W        W27355  12.740  14.744   2.702 -0.1586  0.0694  0.1674
 7822W        W27356  13.419   1.740   4.974  0.1244 -0.0444  0.0282
 7823W        W27357  16.445   0.046   2.479 -0.2716 -0.1211 -0.0138
 7824W        W27358   2.742  14.256   1.158  0.1008 -0.2237 -0.0471
 7825W        W27359  10.655  16.214  14.213 -0.1076  0.0501 -0.1147
 7826W        W27360   1.193   8.762   2.574  0.1096  0.0954  0.0776
 7827W        W27361  11.834   0.577  13.190  0.3194 -0.0891  0.2479
 7828W        W27362  15.436  14.552  12.408 -0.0181 -0.0259  0.2303
 7829W        W27363   4.359   0.555  14.003  0.0457 -0.1132  0.2570
 7830W        W27364  14.274   4.407   0.033  0.1041  0.1322  0.0132
 7831W        W27365   6.540   4.524  16.788 -0.1104  0.2815  0.1644
 7832W        W27366   0.699  14.543   0.829 -0.1344 -0.1018 -0.2607
 7833W        W27367   0.373   0.327   1.291  0.2076 -0.1681  0.0862
 7834W        W27368   6.520  17.000  14.590 -0.0807  0.0108 -0.0705
 7835W        W27369  16.326   6.327   1.858 -0.0360 -0.1541  0.1862
 7836W        W27370  13.427   8.513   4.215  0.1284  0.0231 -0.2808
 7837W        W27371  10.445   0.827   4.541  0.1021 -0.0988 -0.0309
 7838W        W27372   7.087   8.215   2.712  0.0899 -0.0522  0.4049
 7839W        W27373   1.938  17.179   4.990  0.0245 -0.2366  0.0153
 7840W        W27374   4.312  15.918  13.238  0.0716 -0.0594  0.0490
 7841W        W27375  12.177  16.254  12.954  0.1171 -0.1502  0.0166
 7842W        W27376  11.762   3.279  14.037  0.0424 -0.0689  0.2994
 7843W        W27377  10.823  16.862   2.331 -0.1002  0.1348 -0.3160
 7844W        W27378  11.906  11.699  14.603  0.1259 -0.0315  0.1008
 7845W        W27379   9.844   0.126   1.182 -0.1173 -0.0073  0.0600
 7846W        W27380   4.120  12.054   0.029 -0.0093 -0.0156 -0.0832
 7847W        W27381  16.493  13.173  12.689  0.0433 -0.3090 -0.0356
 7848W        W27382  12.066   0.660   3.854  0.1650  0.0713 -0.2297
 7849W        W27383  16.287  12.418  12.244  0.3493 -0.1413  0.1162
 7850W        W27384   8.819   9.701  16.100  0.0601 -0.2732  0.2052
 7851W        W27385  14.616   3.976   2.742  0.0555 -0.1203  0.1502
 7852W        W27386  17.128  11.414  12.769  0.0635 -0.2480 -0.1798
 7853W        W27387  10.828   8.813  13.221  0.1718 -0.2496  0.1411
 7854W        W27388   4.253   3.250   3.445 -0.0545  0.0328 -0.0150
 7855W        W27389  15.598  15.523  14.882 -0.1250 -0.1508  0.0472
 7856W        W27390  11.232   1.316  13.037  0.1237 -0.0205  0.2265
 7857W        W27391   0.058   4.839  15.151 -0.3494  0.2225  0.1938
 7858W        W27392  15.888   2.949  13.691 -0.1215  0.1201  0.0112
 7859W        W27393   3.932  11.134   4.585 -0.0441 -0.2622 -0.2470
 7860W        W27394  11.330   2.824  16.115 -0.0967  0.2098  0.2735
 7861W        W27395   0.503  11.606   1.890 -0.1454 -0.3396 -0.0546
 7862W        W27396   3.570   4.097  12.426 -0.0933 -0.2933 -0.2970
 7863W        W27397  16.756  13.169   3.566 -0.0116 -0.1689  0.0958
 7864W        W27398   5.478   6.421   4.008 -0.0990  0.1289 -0.1716
 7865W        W27399  10.372   1.580   1.986  0.3044  0.1264  0.1444
 7866W        W27400  12.509  17.091   4.539 -0.0683  0.0530 -0.0871
 7867W        W27401   0.618   5.400   2.057 -0.0403  0.2331  0.1526
 7868W        W27402   4.596  14.318  15.264  0.1584  0.2529 -0.0750
 7869W        W27403  13.390   8.366  13.326 -0.0833  0.0042 -0.0162
 7870W        W27404  10.613  12.345   1.008  0.1205 -0.0371 -0.0831
 7871W        W27405  15.590   5.946   4.270  0.1162  0.2510  0.1815
 7872W        W27406  14.576  10.027  15.980 -0.0074 -0.3332 -0.1109
 7873W        W27407  16.088   8.524   1.394  0.1815 -0.0761 -0.1119
 7874W        W27408   7.456   1.967   1.371 -0.0769 -0.0246 -0.2974
 7875W        W27409  11.644   8.084   4.838  0.1455 -0.1186  0.1155
 7876W        W27410  14.266  15.632   5.090  0.2973  0.1444 -0.1016
 7877W        W27411   8.364   2.781  16.355 -0.1749  0.6546 -0.1600
 7878W        W27412   3.548   7.537  13.190  0.0058  0.5205  0.1624
 7879W        W27413   0.503   2.419   4.709 -0.1500  0.0521 -0.2826
 7880W        W27414   8.862   0.714  12.910 -0.1845  0.2487  0.2505
 7881W        W27415   2.062  12.357  12.978  0.2393 -0.1071  0.3370
 7882W        W27416   5.063  14.913   2.568  0.3731 -0.0539  0.0676
 7883W        W27417   6.971   0.896  14.564 -0.1152  0.1133 -0.2844
 7884W        W27418  11.507   1.231  14.398  0.1006 -0.1904 -0.0571
 7885W        W27419   9.113  15.031  12.764  0.0832  0.0645 -0.2054
 7886W        W27420   3.716  11.065  13.458 -0.2264 -0.0643  0.0804
 7887W        W27421   8.449   2.129  12.089 -0.1380 -0.2810  0.0289
 7888W        W27422  16.863   5.959  16.658 -0.0799 -0.3417 -0.1594
 7889W        W27423   3.371  13.771   4.049  0.2126  0.3658  0.3577
 7890W        W27424  16.646   5.977  12.241  0.1646  0.2241 -0.2830
 7891W        W27425   3.415   1.487   0.262  0.0534 -0.1627  0.0847
 7892W        W27426   8.449  13.830  13.412 -0.0513 -0.0623 -0.0259
 7893W        W27427   0.613  13.837   3.410  0.1346  0.0594  0.2870
 7894W        W27428   8.301   3.664  16.885  0.2300 -0.0568  0.2049
 7895W        W27429  12.200   8.587  12.879  0.1598  0.2769  0.6073
 7896W        W27430  13.697   1.284   4.055 -0.1121  0.1166  0.3295
 7897W        W27431  10.346   2.143  12.799  0.0595  0.0591  0.1847
 7898W        W27432  15.240  17.371   2.538  0.0945 -0.0354 -0.3448
 7899W        W27433  16.885   8.942  13.568 -0.1200  0.0512  0.0943
 7900W        W27434  16.080  15.135   0.839  0.3504  0.1045 -0.0306
 7901W        W27435   9.394   5.869   4.687  0.1543  0.0836 -0.1218
 7902W        W27436   2.671  11.509  12.007  0.4334 -0.0755 -0.1372
 7903W        W27437  17.221   0.537  14.023  0.2533  0.1409  0.0738
 7904W        W27438  16.881   6.352  15.468 -0.1792  0.2144  0.2351
 7905W        W27439   8.558  11.057   1.121 -0.1928  0.1670  0.1471
 7906W        W27440   0.916  12.718   5.238  0.0843 -0.0548  0.0408
 7907W        W27441   5.370   8.018   5.042 -0.0503 -0.0379  0.0736
 7908W        W27442   7.315   9.523  16.613  0.0784 -0.0025  0.2129
 7909W        W27443  13.436  15.590   0.232 -0.2535 -0.0319 -0.1020
 7910W        W27444   4.483   6.784  15.497  0.4070  0.1535 -0.0709
 7911W        W27445  13.957   9.659  14.530 -0.2631 -0.2342 -0.0220
 7912W        W27446  16.212  10.020  16.741  0.1229  0.1483 -0.0394
 7913W        W27447  12.881  14.881   5.241  0.3166 -0.0039 -0.1487
 7914W        W27448  13.325   1.808   4.074  0.2050  0.0464 -0.0762
 7915W        W27449  10.325  17.217  15.607 -0.2137  0.2450 -0.2478
 7916W        W27450   0.051  12.488  15.579 -0.0976 -0.1113 -0.1166
 7917W        W27451   9.863  14.727   0.873  0.1626 -0.3105 -0.0441
 7918W        W27452  15.373   4.787   1.273 -0.1064 -0.0624  0.0985
 7919W        W27453  17.639  10.300   4.022  0.4209 -0.0394  0.0744
 7920W        W27454   0.804   7.353   1.057  0.0135 -0.4028  0.0013
 7921W        W27455   9.096   9.756  14.068  0.0641 -0.0084 -0.2697
 7922W        W27456   6.251   7.407   0.843 -0.1147  0.0854  0.1355
 7923W        W27457   9.505   6.586  13.854 -0.0309 -0.3086 -0.3890
 7924W        W27458   4.612  12.402  14.047  0.0175  0.1051 -0.0767
 7925W        W27459   5.537  13.517   3.981 -0.0222 -0.1162  0.1109
 7926W        W27460   8.028   7.773  15.669  0.3392 -0.0985 -0.1533
 7927W        W27461   5.060  14.586   2.087  0.0384 -0.0532  0.1163
 7928W        W27462   9.732   8.871   2.098  0.0803  0.0352 -0.0407
 7929W        W27463   7.861  17.362  14.782 -0.0097 -0.0136 -0.0388
 7930W        W27464  17.023   1.940   3.619  0.0983 -0.0046 -0.0746
 7931W        W27465   6.673   2.593   2.261  0.0080 -0.0099 -0.2993
 7932W        W27466   8.840   8.747  14.035  0.3868 -0.0312  0.1333
 7933W        W27467  10.211  11.810   1.183  0.0120 -0.1296 -0.2512
 7934W        W27468   8.592   8.339   3.284  0.0261  0.1124  0.1276
 7935W        W27469  12.133   9.730  13.589  0.0293 -0.2175  0.1053
 7936W        W27470  11.420  14.827   1.986  0.0967 -0.0221 -0.0644
 7937W        W27471   9.024   6.412  15.596  0.0478  0.1705  0.0609
 7938W        W27472  15.742  16.484   0.840 -0.3406 -0.0243  0.1307
 7939W        W27473  10.347   7.032  17.050  0.1237  0.2714  0.0014
 7940W        W27474  16.918   5.352  13.324 -0.1318  0.1172 -0.2366
 7941W        W27475  12.416  16.116   5.710  0.2741  0.2863 -0.1537
 7942W        W27476   5.871   7.444  15.610 -0.1318 -0.1283 -0.0369
 7943W        W27477  17.333   8.502  15.023 -0.2946 -0.0418  0.1448
 7944W        W27478   1.684   6.943   5.114  0.1937  0.0297 -0.1492
 7945W        W27479  12.622   2.636   4.171  0.0706  0.1164  0.1499
 7946W        W27480  10.953  15.536   2.302 -0.0066  0.0313  0.0854
 7947W        W27481  16.774   5.116   5.181 -0.2902 -0.3502 -0.2954
 7948W        W27482   0.050   5.423  12.268  0.1366  0.0344 -0.2508
 7949W        W27483   6.402   8.630  14.933  0.1739  0.0976 -0.2159
 7950W        W27484  16.454   1.195   4.540  0.3653 -0.1090 -0.1148
 7951W        W27485   5.894   4.430  15.027  0.2434  0.1399 -0.1118
 7952W        W27486   7.362   0.294   2.469 -0.1748  0.1622 -0.1598
 7953W        W27487   0.418   7.038  14.215 -0.0348  0.0639  0.2116
 7954W        W27488  15.843   7.132   3.536  0.1418  0.4402 -0.0452
 7955W        W27489   7.763  15.638   0.034 -0.2204 -0.2058  0.0885
 7956W        W27490   7.801   0.245  14.210  0.1015 -0.0485  0.0580
 7957W        W27491   4.832   8.972   0.750  0.0453  0.2651  0.1582
 7958W        W27492   7.929   2.017  16.258  0.0049  0.0604  0.0600
 7959W        W27493   3.033  10.968  14.498 -0.0046  0.2349 -0.0948
 7960W        W27494   9.759   0.828   3.937  0.1321  0.2612  0.2544
 7961W        W27495  14.696  16.719  12.707 -0.0460  0.0304 -0.1220
 7962W        W27496   1.947   7.466   0.290 -0.1467  0.0191  0.1087
 7963W        W27497  13.911   7.702  15.491  0.1572 -0.1559  0.0419
 7964W        W27498   3.912  13.967   3.412  0.0633  0.1701 -0.0385
 7965W        W27499   0.324  11.947  16.311  0.2061  0.2303  0.3718
 7966W        W27500  12.321   4.161   1.520  0.1865 -0.2709 -0.1848
 7967W        W27501   5.094  15.017   4.015 -0.1218 -0.0950 -0.1735
 7968W        W27502   1.956  12.054  16.111 -0.3296 -0.0108 -0.1305
 7969W        W27503   6.983  17.094   4.838  0.0628 -0.2874 -0.0855
 7970W        W27504  15.432  14.377  14.719  0.1040  0.1535  0.0841
 7971W        W27505   9.823  10.764   3.180  0.0310  0.1532 -0.2045
 7972W        W27506   4.776   5.918  13.376 -0.1624  0.2409 -0.1041
 7973W        W27507  11.093  11.019   5.128  0.3159  0.0078  0.2393
 7974W        W27508   3.502  16.047  12.511 -0.5104 -0.2153 -0.1584
 7975W        W27509   1.810  12.206  14.313 -0.2136  0.3098 -0.2110
 7976W        W27510   2.885   6.800  14.060  0.2644 -0.0011 -0.0773
 7977W        W27511   8.520   3.870  12.728  0.1900 -0.0586 -0.0931
 7978W        W27512   8.885   9.822  14.913  0.0534 -0.0863  0.1591
 7979W        W27513   0.229   2.740   5.017 -0.3069 -0.0807  0.2590
 7980W        W27514  10.143   1.113   3.096  0.2106  0.1292  0.0633
 7981W        W27515  14.306   6.501  14.833  0.1641  0.2487  0.0972
 7982W        W27516   3.325   1.180   4.662  0.1595 -0.0327 -0.0295
 7983W        W27517   7.433  10.611   1.035 -0.0619 -0.1153  0.2187
 7984W        W27518   6.709   9.478   2.601 -0.0719 -0.2345  0.0277
 7985W        W27519   6.743  15.708   2.287 -0.1033  0.0417 -0.0868
 7986W        W27520   9.579  11.398   0.457 -0.2264 -0.0417  0.0878
 7987W        W27521  10.127   6.904  13.378 -0.2457  0.0669  0.0706
 7988W        W27522   4.424   7.392  13.272  0.1244  0.0263  0.0356
 7989W        W27523  14.187   1.618  13.857 -0.1679 -0.0332  0.0976
 7990W        W27524   7.185  13.242  12.864  0.1071 -0.1155 -0.0497
 7991W        W27525   2.067   2.879   4.096 -0.2821  0.0664 -0.0135
 7992W        W27526  17.354   1.896  15.122 -0.0082 -0.3741 -0.0940
 7993W        W27527  12.525   7.958   3.067 -0.3467  0.1573  0.0304
 7994W        W27528  14.715   5.334   0.204 -0.1333  0.0332  0.0784
 7995W        W27529  13.808   8.604  13.604  0.1107 -0.0634 -0.3327
 7996W        W27530   9.205   2.162   4.753  0.1576  0.1374  0.0833
 7997W        W27531   2.051  12.373   2.989 -0.1186  0.1855 -0.2987
 7998W        W27532   6.200  10.922   2.693  0.0304  0.0443 -0.3915
 7999W        W27533   4.074   8.073  12.524  0.1518 -0.0019  0.4784
 8000W        W27534  14.608   4.768  13.089  0.1396 -0.0835  0.1260
 8001W        W27535  14.011   2.261  12.967 -0.0721  0.1131 -0.1726
 8002W        W27536   4.149   5.791  16.606 -0.2081 -0.4913  0.2688
 8003W        W27537   2.836  17.400  12.118  0.1770  0.0399 -0.0755
 8004W        W27538   4.745  10.024  13.582 -0.1474  0.0155  0.3221
 8005W        W27539   0.062  12.401   2.592 -0.1620  0.1140  0.1357
 8006W        W27540  11.545  14.379  16.600 -0.0852 -0.2121 -0.0378
 8007W        W27541   1.031  12.991   2.100  0.1637 -0.0248 -0.0574
 8008W        W27542   9.909   0.168  15.768 -0.1722 -0.1083  0.1983
 8009W        W27543  11.513  15.338   0.766  0.1815  0.0592  0.3364
 8010W        W27544  15.130   9.050  14.091  0.1092  0.0951 -0.0186
 8011W        W27545  10.414  10.722  14.647  0.0821  0.1925  0.0434
 8012W        W27546   8.261   4.712   2.564  0.0708 -0.1302  0.2087
 8013W        W27547   0.717  10.614   3.651  0.1190 -0.0438 -0.0408
 8014W        W27548   0.228  15.320   1.556  0.3283 -0.0458  0.3030
 8015W        W27549   6.971   2.749  15.687 -0.1826 -0.0359 -0.1033
 8016W        W27550   9.573  13.615  14.662 -0.0725  0.1440 -0.2044
 8017W        W27551   1.552   4.308  16.919  0.0273  0.1378  0.0075
 8018W        W27552  11.812  16.449   0.853 -0.2260  0.1817  0.1060
 8019W        W27553   2.425  13.808  16.584  0.1611 -0.2967 -0.0480
 8020W        W27554  12.643   7.411   1.750  0.1630  0.0273 -0.2806
 8021W        W27555  12.158   2.337   3.845 -0.3512  0.1311 -0.1998
 8022W        W27556  17.454  15.218  15.009  0.2441  0.1738 -0.0234
 8023W        W27557   5.006  17.125  13.505  0.1043 -0.3047  0.0322
 8024W        W27558   7.302  15.226  16.362 -0.2782  0.0495  0.2174
 8025W        W27559   4.285   2.323   2.707  0.2188 -0.1983  0.0957
 8026W        W27560   7.311  14.716   2.706 -0.2511 -0.1928  0.1739
 8027W        W27561  11.765   9.717  13.114  0.2511  0.2675  0.1397
 8028W        W27562   1.466   9.125   4.298 -0.0621 -0.0440  0.1489
 8029W        W27563  15.937  10.427  13.360  0.2356 -0.1159  0.1018
 8030W        W27564   1.559   0.115   4.004  0.3066 -0.3034  0.0071
 8031W        W27565   7.703   5.908   0.724 -0.2051 -0.4228  0.0821
 8032W        W27566   8.626   8.137  15.482  0.3620  0.0308  0.1796
 8033W        W27567   9.007   7.965  13.658  0.0582  0.1171  0.0360
 8034W        W27568  17.046  10.476   4.847 -0.2262  0.2102 -0.0157
 8035W        W27569  12.143   2.682   0.141 -0.3387 -0.2020  0.2658
 8036W        W27570   3.956  16.484   1.351 -0.1735 -0.0826  0.0184
 8037W        W27571   4.196   6.833   4.642  0.3886 -0.0921  0.0198
 8038W        W27572   3.879   5.376  13.672 -0.0550 -0.0313 -0.1033
 8039W        W27573   0.183  14.360   3.131 -0.0719 -0.1174  0.1710
 8040W        W27574  15.145  16.193   3.910 -0.2547 -0.0759 -0.0949
 8041W        W27575   0.020   9.902   4.856 -0.2137  0.0256  0.0351
 8042W        W27576  15.604  16.001   3.963  0.2931  0.0791 -0.0058
 8043W        W27577   5.406   6.406  16.834  0.0214 -0.0071 -0.0572
 8044W        W27578  15.673  13.537  15.406  0.2988 -0.1162 -0.1653
 8045W        W27579   4.795  15.265  15.427 -0.0039  0.0717 -0.3691
 8046W        W27580  13.794   0.930   0.917  0.1521  0.0286 -0.0352
 8047W        W27581   2.518  10.140   4.374 -0.0589  0.1261  0.1039
 8048W        W27582  16.057  11.039  14.742  0.1472  0.3199  0.1101
 8049W        W27583   7.667   8.199   0.647 -0.1286 -0.0390 -0.1496
 8050W        W27584   6.769   8.818  13.752  0.1185  0.2119  0.0547
 8051W        W27585   1.750   3.255  15.547 -0.3441  0.3254 -0.1947
 8052W        W27586   2.297   0.612  16.497 -0.1628 -0.4237  0.0488
 8053W        W27587  14.567   8.257   4.109 -0.1002 -0.2782 -0.1086
 8054W        W27588  13.656   9.524   0.513  0.0439  0.1569 -0.0841
 8055W        W27589  17.353   9.557  15.336 -0.0058 -0.0111 -0.0363
 8056W        W27590   6.883  14.496   3.902  0.1073 -0.0765 -0.1124
 8057W        W27591  11.257   8.215  16.453  0.0828 -0.2894 -0.4851
 8058W        W27592  10.233  15.082  13.110 -0.0492  0.0270 -0.2626
 8059W        W27593   2.471   2.113   1.205 -0.3828  0.2024  0.0860
 8060W        W27594  16.598  13.113  16.863  0.0196 -0.0846 -0.1409
 8061W        W27595   1.098   5.807   2.284  0.0380 -0.0451 -0.1212
 8062W        W27596   8.018  12.851  13.549  0.3747 -0.1076  0.0090
 8063W        W27597   9.812   3.519  15.830  0.2488 -0.1009  0.0801
 8064W        W27598  16.178   6.077   3.656  0.0778  0.1734 -0.0488
 8065W        W27599  11.707   3.480  15.949 -0.2130 -0.0410 -0.3157
 8066W        W27600   0.094  15.924  14.914  0.0845  0.1971 -0.2491
 8067W        W27601  16.119   4.709  15.387 -0.2656 -0.1255 -0.0348
 8068W        W27602   2.973   3.445   2.036  0.0883 -0.0948  0.0439
 8069W        W27603   2.357   3.481   0.405  0.1956 -0.1647 -0.1012
 8070W        W27604  16.584   8.179   0.092 -0.0288 -0.0507  0.1820
 8071W        W27605   2.995   1.145  15.199  0.0414 -0.5480 -0.0260
 8072W        W27606  11.956   5.996  12.013 -0.0971 -0.0006 -0.1081
 8073W        W27607   1.269   4.552   2.133  0.3743 -0.1332 -0.1722
 8074W        W27608   4.057  16.616   3.453  0.1253 -0.0656 -0.0769
 8075W        W27609   6.881  10.640  12.059 -0.2432 -0.1039  0.1740
 8076W        W27610   0.059  11.670  11.939  0.0714  0.1770  0.0985
 8077W        W27611  16.794   7.907  16.802  0.0747  0.0389 -0.1351
 8078W        W27612  10.673   8.484  13.589  0.1368  0.1355  0.1490
 8079W        W27613   6.403   5.352  13.039 -0.2854  0.1375  0.2926
 8080W        W27614  12.809  12.150  12.100  0.0871 -0.0998  0.1692
 8081W        W27615   1.812   4.137  12.443 -0.1049 -0.0590 -0.0473
 8082W        W27616   7.972   8.720   0.031  0.1908  0.0060 -0.1246
 8083W        W27617  10.078   2.752  13.730 -0.0892 -0.1675  0.0187
 8084W        W27618  14.747   7.187  15.090  0.0224  0.1430  0.0885
 8085W        W27619  13.142   0.791  13.543 -0.0114 -0.0626  0.0427
 8086W        W27620   5.428  14.939   2.229 -0.1936 -0.3916 -0.0293
 8087W        W27621   2.105  12.043  13.542  0.1299 -0.0848 -0.3742
 8088W        W27622   9.838  17.300  14.213 -0.0830 -0.2685 -0.1578
 8089W        W27623  17.237   1.717   2.759 -0.1546  0.1720 -0.0167
 8090W        W27624   5.441   4.379   4.964  0.1774 -0.0479 -0.1534
 8091W        W27625   3.563   8.378   2.388  0.1788 -0.1904 -0.1246
 8092W        W27626   8.641  14.192   1.589 -0.0980  0.0636  0.0266
 8093W        W27627  11.062   8.254  15.404 -0.3249  0.1449 -0.3073
 8094W        W27628  13.773   3.509   2.445 -0.2086 -0.2632 -0.0547
 8095W        W27629   7.893   8.637   2.413  0.0761  0.4960  0.0839
 8096W        W27630  10.275  16.492  12.513  0.1159 -0.2182  0.3027
 8097W        W27631   7.373   9.648   4.830 -0.3279  0.1243  0.1079
 8098W        W27632  10.854  10.891  14.938 -0.0108 -0.1369  0.0281
 8099W        W27633  16.816  13.051   1.549  0.2169 -0.3052 -0.3519
 8100W        W27634   5.414   5.098   3.675  0.2059  0.1167  0.1618
 8101W        W27635   7.115  12.781  12.548  0.1103  0.0792 -0.3336
 8102W        W27636   9.256  15.252  15.087 -0.3553  0.1024  0.1925
 8103W        W27637   3.493   3.679  16.748  0.0210 -0.0216 -0.0697
 8104W        W27638  16.116  10.578  14.871 -0.0622  0.3112  0.0696
 8105W        W27639  12.931  10.551  15.847  0.1665  0.2281 -0.2008
 8106W        W27640   6.831   6.637  13.737 -0.3101 -0.1694 -0.0518
 8107W        W27641  10.802  15.062  15.659 -0.0477 -0.0702  0.0844
 8108W        W27642   8.790  14.127   4.971  0.0321 -0.0509  0.0364
 8109W        W27643  10.391   4.551  12.804 -0.0818  0.0602  0.6682
 8110W        W27644   6.832   5.870  15.418 -0.0161  0.1607  0.0563
 8111W        W27645   3.477   5.265   0.924 -0.1331  0.1288  0.1761
 8112W        W27646   5.204   1.279   0.182  0.2113  0.2294  0.0115
 8113W        W27647  16.082   4.299  14.528 -0.0402  0.4784  0.0002
 8114W        W27648   3.916  11.126  12.504  0.1788  0.1915  0.0441
 8115W        W27649  11.452   3.257   4.649 -0.0388  0.1670  0.0945
 8116W        W27650   4.211   7.025   0.868 -0.0337  0.1060  0.0189
 8117W        W27651   8.730   4.664   2.415  0.2250 -0.1920 -0.2967
 8118W        W27652   6.064   5.201   1.914  0.1132  0.2784  0.0655
 8119W        W27653  15.325  10.282  16.566 -0.2995  0.0650 -0.1693
 8120W        W27654   1.282  13.619  13.404 -0.3662  0.0431  0.5036
 8121W        W27655  17.508  15.013  16.312 -0.4430 -0.2107 -0.3020
 8122W        W27656  16.444   5.575  13.007  0.2442  0.0872  0.0945
 8123W        W27657   1.303   4.578  12.601 -0.1039  0.1938  0.2099
 8124W        W27658   4.076   7.373   1.870  0.1647 -0.0854 -0.0521
 8125W        W27659  10.866  16.927   0.187  0.0993 -0.1123 -0.2485
 8126W        W27660  11.647  13.913  16.295  0.0738 -0.0131  0.3080
 8127W        W27661   7.286   3.875   4.810  0.2393  0.2919 -0.1264
 8128W        W27662   2.112  10.461  12.936 -0.2955 -0.1826  0.1561
 8129W        W27663   7.149   3.721   3.290 -0.1334  0.3295 -0.0603
 8130W        W27664  14.767  10.649   2.904 -0.2284  0.1209 -0.1388
 8131W        W27665   5.698   3.261   3.912 -0.5409  0.0131  0.3094
 8132W        W27666  12.999   5.352  14.065  0.0029  0.2554 -0.0179
 8133W        W27667  14.519   7.651  16.712  0.1056  0.1119 -0.0692
 8134W        W27668   8.527  11.997   0.440 -0.1120 -0.0584 -0.0006
 8135W        W27669   8.030  14.449  14.999  0.1261 -0.0829  0.2051
 8136W        W27670   3.933  16.651  12.189  0.2843  0.3045  0.2800
 8137W        W27671   2.957   6.172  13.297  0.0473  0.0399 -0.0688
 8138W        W27672   9.081   0.654  12.456  0.2410  0.2024  0.0202
 8139W        W27673   0.191  17.649   2.521  0.0717  0.2620  0.0713
 8140W        W27674   3.384  15.287   0.605  0.1961  0.2416 -0.1195
 8141W        W27675   5.680  13.183  14.648  0.0116 -0.0008 -0.1669
 8142W        W27676   1.055  15.896   3.294 -0.0077  0.2780  0.1636
 8143W        W27677   3.910   5.048  16.650 -0.1128 -0.0003 -0.2038
 8144W        W27678  14.983  10.146   2.399 -0.2940  0.1518  0.3096
 8145W        W27679   6.303   0.027   0.804 -0.2690  0.0536 -0.2262
 8146W        W27680   3.988   5.162   2.671 -0.0220 -0.2486 -0.0273
 8147W        W27681   6.822  16.647  14.827 -0.0976  0.1703 -0.0154
 8148W        W27682   8.316   2.312  13.662 -0.0071 -0.0443  0.1017
 8149W        W27683   1.462  14.626   1.436 -0.1202  0.0060  0.0197
 8150W        W27684   9.978  14.710   3.207  0.0125 -0.0222 -0.2675
 8151W        W27685  16.315   2.895  15.261  0.0691  0.1942  0.3709
 8152W        W27686  12.750  16.238   0.208 -0.1595  0.0569  0.1358
 8153W        W27687   6.112   4.912   4.637 -0.1321 -0.0265  0.4261
 8154W        W27688  11.688   5.599  11.766 -0.1424  0.2013 -0.3676
 8155W        W27689  10.219   5.801  11.968 -0.0615 -0.1387  0.1838
 8156W        W27690   9.242   2.603   2.807 -0.3704  0.1159 -0.0259
 8157W        W27691   5.006   8.268   3.222 -0.0420  0.0700 -0.1385
 8158W        W27692   6.183   1.371  16.198  0.2271 -0.0442  0.2346
 8159W        W27693  10.672   9.105   1.650  0.2458 -0.3157  0.1077
 8160W        W27694   4.873   8.102  12.099 -0.2227 -0.0794 -0.0549
 8161W        W27695   2.305  17.366  15.925 -0.2756 -0.0202  0.0374
 8162W        W27696  15.031   2.255  12.932  0.0311  0.1210  0.0120
 8163W        W27697   6.158  16.048  16.512  0.1585  0.1305  0.3032
 8164W        W27698  12.745   0.373  15.022 -0.1997 -0.3167 -0.0843
 8165W        W27699   1.246   6.921  14.283  0.1277  0.1496  0.0981
 8166W        W27700  10.594   9.277  15.392 -0.1977  0.3678 -0.1032
 8167W        W27701  16.414   2.637  15.978  0.4550  0.2042 -0.0450
 8168W        W27702   4.553   8.592   4.573 -0.1865 -0.4401  0.2005
 8169W        W27703  11.240   4.078  15.106 -0.0653 -0.0744  0.1457
 8170W        W27704   9.166  11.962   6.203  0.5340 -0.0178 -0.1089
 8171W        W27705   7.067   4.597  13.223 -0.4521 -0.2247 -0.1863
 8172W        W27706  15.720   3.979   0.432  0.0573 -0.1929  0.0745
 8173W        W27707  10.563   3.566   2.341 -0.0145 -0.1894  0.0149
 8174W        W27708   8.106   4.193  15.273 -0.3095 -0.0257 -0.0204
 8175W        W27709  10.932  10.392   1.411  0.0419  0.2447  0.1842
 8176W        W27710   1.261   6.087  12.118 -0.3175 -0.1363 -0.0094
 8177W        W27711  10.824   2.485   2.109 -0.1996 -0.2021  0.2376
 8178W        W27712   1.822   1.940  14.189  0.0109  0.0552 -0.1528
 8179W        W27713   7.423   6.405  14.437  0.0767  0.0962  0.0712
 8180W        W27714  12.774   5.331  13.601  0.1546  0.1192 -0.0030
 8181W        W27715   3.661   7.380   2.723  0.0250  0.2144  0.4351
 8182W        W27716   7.596   6.115   3.354  0.1539  0.1815 -0.0101
 8183W        W27717   2.418   1.443   4.837 -0.2159  0.1422  0.2267
 8184W        W27718  14.804   0.967   4.254 -0.2387 -0.0307 -0.0307
 8185W        W27719  11.014   2.430  16.732  0.2263  0.2055 -0.3065
 8186W        W27720   9.353  14.456  14.170  0.0694 -0.5925  0.1319
 8187W        W27721   2.086   9.592   1.168 -0.1695  0.0964 -0.2922
 8188W        W27722   8.964  11.042   3.790 -0.2067 -0.0215  0.1171
 8189W        W27723   9.568   1.108   5.384  0.1916  0.1847  0.3275
 8190W        W27724  10.434   9.085  13.175  0.1264 -0.3384 -0.0910
 8191W        W27725  13.232   0.962  15.738  0.0554 -0.3799  0.0554
 8192W        W27726   0.735   1.236  14.562 -0.0961  0.2314  0.0468
 8193W        W27727   7.789  15.010  13.692  0.1675 -0.1260 -0.0327
 8194W        W27728   9.763   5.179   4.570  0.1224 -0.1228 -0.1773
 8195W        W27729  16.607   3.977  13.773  0.0342  0.1757 -0.0536
 8196W        W27730  14.132   0.377  14.585  0.3028  0.0423 -0.0535
 8197W        W27731  13.891   2.594  16.440  0.0047 -0.1896 -0.2902
 8198W        W27732  13.859  10.034   0.460 -0.1174  0.0633 -0.2317
 8199W        W27733  14.457   5.511  15.810  0.0839  0.0988  0.2427
 8200W        W27734  11.772   4.008   4.587 -0.2772  0.0640 -0.2193
 8201W        W27735  11.286   6.689  13.986 -0.1327  0.0474  0.1553
 8202W        W27736   8.029  16.768  16.132  0.1221  0.0689 -0.0841
 8203W        W27737  17.238  14.291  12.688 -0.2220  0.2337 -0.1988
 8204W        W27738   1.779   0.338  16.702 -0.1024  0.0448 -0.0233
 8205W        W27739  15.204  12.602  16.946  0.2700 -0.1365 -0.0580
 8206W        W27740   4.691  11.103   3.354  0.1153  0.1536 -0.2792
 8207W        W27741   4.850   3.381   4.102  0.0965 -0.0362 -0.0176
 8208W        W27742   8.424   3.414  12.834 -0.0502 -0.1204 -0.1457
 8209W        W27743   1.611  14.494  16.714 -0.1089 -0.2504  0.3156
 8210W        W27744   5.313  12.151  17.046 -0.0655  0.2509  0.2840
 8211W        W27745  16.428  11.362   0.035 -0.1240  0.0162  0.1936
 8212W        W27746   6.262  13.021  14.423 -0.2462 -0.2771 -0.0869
 8213W        W27747  13.656  14.989   2.520 -0.2727  0.0502  0.3103
 8214W        W27748  11.531   4.890  16.999 -0.0470 -0.1632 -0.0403
 8215W        W27749  15.692   9.647   4.754 -0.2283  0.1983  0.2524
 8216W        W27750  13.514   0.860  13.008  0.0107 -0.0616  0.0446
 8217W        W27751  17.469  14.318   2.798  0.0890  0.3204 -0.0840
 8218W        W27752  13.861  16.797  16.580  0.0209  0.3209  0.1694
 8219W        W27753   9.552   8.706  13.373  0.2198  0.1024 -0.1045
 8220W        W27754  13.597   5.588  14.337 -0.0907  0.1147  0.0283
 8221W        W27755  13.970   8.810   0.060  0.1618 -0.1161 -0.0838
 8222W        W27756   8.277   3.353   0.196  0.1554 -0.1191  0.2829
 8223W        W27757   9.435   3.037  12.993 -0.0809 -0.0701  0.1185
 8224W        W27758   1.015   0.405  14.393 -0.0155  0.0542 -0.0804
 8225W        W27759   6.909   8.965  12.793  0.0715 -0.0881  0.1296
 8226W        W27760   4.030  11.454  15.395  0.0591 -0.0088 -0.0933
 8227W        W27761  15.636   6.676  16.040 -0.1631 -0.0585  0.2094
 8228W        W27762  16.101  15.798   2.617 -0.0583  0.1358  0.1000
 8229W        W27763   5.799   2.722   4.696  0.2739  0.0226 -0.2557
 8230W        W27764   6.929   3.910  16.201 -0.0357 -0.1784 -0.0243
 8231W        W27765   5.609  11.763  12.657 -0.0600  0.0648 -0.1128
 8232W        W27766   2.399  13.872   1.234 -0.2971 -0.2168 -0.1912
 8233W        W27767   0.229  12.148  14.093  0.1569 -0.0040 -0.0297
 8234W        W27768  12.150  15.497  12.279 -0.0786 -0.1386 -0.0731
 8235W        W27769  12.377  15.949   3.779 -0.1511 -0.0494  0.0292
 8236W        W27770  15.813  14.086  12.423  0.4335  0.1015 -0.1601
 8237W        W27771   3.907   5.057   3.221  0.0110  0.3233 -0.2087
 8238W        W27772  12.022  12.161   4.063 -0.1860  0.2940  0.3962
 8239W        W27773  16.586   8.564  13.496  0.0557 -0.0808 -0.0570
 8240W        W27774  15.999  14.443  16.876 -0.2532  0.0772  0.0792
 8241W        W27775  13.442   9.843   5.258 -0.2389 -0.0158  0.0728
 8242W        W27776   5.163   6.153   0.145 -0.0533 -0.3740  0.1659
 8243W        W27777   9.074   5.657  12.111 -0.4110 -0.2084 -0.0307
 8244W        W27778  13.342   2.972  14.349 -0.1233 -0.1050  0.2894
 8245W        W27779   9.972  11.100  13.316  0.3202 -0.2405  0.0030
 8246W        W27780   9.061  15.601   2.373 -0.0388 -0.1411  0.3182
 8247W        W27781  12.730  15.182  12.864 -0.2242  0.2527 -0.2263
 8248W        W27782  10.333   7.756   4.088  0.2418 -0.0764  0.0420
 8249W        W27783  14.689  12.576  14.349  0.0925  0.1047 -0.3091
 8250W        W27784   0.733   7.796  15.828  0.4015 -0.1423  0.1523
 8251W        W27785   1.686   9.726   4.994  0.0942 -0.0578 -0.1104
 8252W        W27786   7.410   3.355   0.013  0.1964  0.0142  0.0499
 8253W        W27787  16.814   7.215  15.643  0.1314 -0.1627 -0.2238
 8254W        W27788  12.170  12.708  14.081 -0.2757  0.0200  0.2432
 8255W        W27789   4.346  17.624   0.061  0.2044 -0.2336  0.1660
 8256W        W27790   4.844   1.959   2.999  0.1282  0.1123 -0.0354
 8257W        W27791  14.417  12.543  15.062 -0.0541 -0.0917 -0.1163
 8258W        W27792  13.235  13.170  13.064  0.2104  0.1338 -0.2191
 8259W        W27793   8.412  15.869   4.450  0.2868 -0.1288  0.0095
 8260W        W27794   1.368  13.356  16.249  0.4104 -0.0096 -0.2729
 8261W        W27795  12.512   3.082   0.377  0.0561 -0.1662  0.0377
 8262W        W27796   7.474  12.096  13.867  0.0520  0.0620  0.3374
 8263W        W27797   8.370   3.823  13.208  0.1863 -0.0216 -0.0523
 8264W        W27798   0.761  10.703  12.948  0.1462 -0.1100  0.0995
 8265W        W27799   8.546  10.615   3.685 -0.3290  0.1589  0.0762
 8266W        W27800   2.139  11.295   4.762 -0.0100  0.3749  0.3885
 8267W        W27801   1.371  13.133  11.805 -0.2583  0.0120 -0.0274
 8268W        W27802   3.947  12.601   2.350  0.0367 -0.0774 -0.2402
 8269W        W27803  11.055   7.244  14.204 -0.4816  0.1038  0.0459
 8270W        W27804   9.927   0.775  12.629  0.0112 -0.0374  0.0025
 8271W        W27805   1.045   4.983  16.277  0.1300 -0.0276  0.1733
 8272W        W27806  13.404  12.342   2.464  0.1700 -0.1496 -0.1003
 8273W        W27807  10.605  14.797   4.598 -0.0579 -0.4445 -0.0706
 8274W        W27808  10.573   1.750   2.438  0.1196 -0.3718 -0.1264
 8275W        W27809  15.047   8.803   4.849 -0.0847  0.1340 -0.0579
 8276W        W27810   8.314   6.524  13.836 -0.0178 -0.0325 -0.0671
 8277W        W27811  16.856   7.166   3.250 -0.1041  0.2256 -0.2073
 8278W        W27812   0.547  14.504   1.484 -0.2265 -0.0701  0.0841
 8279W        W27813  12.713   9.518   4.661  0.1399  0.0902 -0.1375
 8280W        W27814  14.407   5.789  13.079  0.2189 -0.2754 -0.0989
 8281W        W27815  12.558  16.646   4.856 -0.2369 -0.1372 -0.2330
 8282W        W27816  14.688  13.047  13.049 -0.3280  0.2941  0.0944
 8283W        W27817  15.454   0.545   0.477 -0.0579 -0.0376 -0.0212
 8284W        W27818   7.060   8.027  13.125  0.1336 -0.0665  0.0940
 8285W        W27819   3.248   0.097  14.003  0.1336 -0.2106 -0.1537
 8286W        W27820   6.071   9.152   2.824  0.1704  0.2181 -0.1608
 8287W        W27821  16.368  13.807  16.068 -0.2979 -0.1074 -0.0547
 8288W        W27822   3.526   0.219   3.714  0.0048  0.1565 -0.0674
 8289W        W27823   1.136   6.931   5.007  0.0387  0.2359  0.1236
 8290W        W27824  15.805   6.901  13.676 -0.1454  0.0744  0.1680
 8291W        W27825   7.296   0.141  12.826 -0.1599  0.1824  0.0454
 8292W        W27826   2.173  10.984  14.790  0.0781 -0.2741  0.0959
 8293W        W27827   7.896  15.341  11.705  0.0166 -0.0433 -0.2352
 8294W        W27828   6.744   2.452  12.459  0.0125 -0.1400 -0.0003
 8295W        W27829  16.709  16.075  16.268  0.0443  0.2437 -0.0750
 8296W        W27830   5.333  17.472   1.184  0.1928 -0.0695  0.0428
 8297W        W27831  17.552   8.315   3.509  0.0507 -0.0628  0.3677
 8298W        W27832  11.229  14.061   5.086  0.0198  0.3174  0.0870
 8299W        W27833   3.379  10.316  15.263 -0.1343 -0.0727 -0.1412
 8300W        W27834   0.194  13.092  15.462 -0.4359  0.1688 -0.0482
 8301W        W27835  10.715  14.098  16.232 -0.0301  0.2282  0.3286
 8302W        W27836  14.041  14.984   2.164 -0.2377 -0.1373 -0.0592
 8303W        W27837  13.899   5.873   0.235  0.3647 -0.0355 -0.2209
 8304W        W27838   5.232   5.553  16.943 -0.1769  0.1556 -0.0587
 8305W        W27839   8.161   3.067  13.055 -0.3135 -0.1138  0.1379
 8306W        W27840   5.505   0.348  16.686  0.1987 -0.0102 -0.0651
 8307W        W27841   1.407   1.907   0.443  0.1201 -0.0412  0.2782
 8308W        W27842  12.063  15.993   1.757 -0.0095  0.0311 -0.0356
 8309W        W27843  14.643   4.246   4.911 -0.0011 -0.1059 -0.0505
 8310W        W27844  14.136   5.467   4.266 -0.1520  0.0207 -0.0661
 8311W        W27845   6.888   0.487  12.649 -0.0533 -0.0461 -0.1456
 8312W        W27846   5.977  10.953  14.258  0.1411  0.2827  0.0858
 8313W        W27847   9.103  12.554   0.253 -0.0828  0.1354  0.4109
 8314W        W27848   7.146  11.553   1.661 -0.2499  0.1470  0.0670
 8315W        W27849   9.047   1.862  14.897  0.3198  0.0049 -0.3236
 8316W        W27850   9.505   6.384  13.296 -0.0063 -0.1042 -0.1099
 8317W        W27851   3.646  11.808  15.440  0.2425  0.0398  0.3459
 8318W        W27852  10.027  17.415   0.265  0.2113  0.0663 -0.3098
 8319W        W27853  13.434  15.447  16.294  0.0365 -0.2837  0.0997
 8320W        W27854  10.680  12.668   0.249  0.0288 -0.2312 -0.2692
 8321W        W27855   0.274   1.378   2.758  0.0688  0.2191 -0.0970
 8322W        W27856   2.695   6.319  15.780  0.2613  0.1064  0.0979
 8323W        W27857   1.444   8.165  13.973 -0.0481  0.0064  0.1174
 8324W        W27858  13.983  14.894  16.101  0.0469  0.0923 -0.0563
 8325W        W27859  16.184  10.638   0.828 -0.1316  0.2263  0.1910
 8326W        W27860  17.018   4.470   2.533 -0.0089 -0.0692 -0.3037
 8327W        W27861  15.346   6.355   1.510  0.1915 -0.0358  0.0572
 8328W        W27862  12.875  10.216  15.366  0.0099 -0.1659  0.1195
 8329W        W27863   0.623  12.228   4.915  0.0138  0.2685 -0.0098
 8330W        W27864   5.825   9.161   3.692  0.3228 -0.4534 -0.0603
 8331W        W27865   8.944   2.169  14.460 -0.0378 -0.0214 -0.0060
 8332W        W27866   3.780   4.221  16.522 -0.0674 -0.3529 -0.3674
 8333W        W27867   9.989  12.807  14.752 -0.0524 -0.4051  0.0507
 8334W        W27868  17.217   2.938   2.750  0.0216  0.0492  0.1890
 8335W        W27869   0.320   4.391   1.126 -0.3465 -0.0413  0.1067
 8336W        W27870  14.777  12.726  15.529  0.3395  0.2401  0.0214
 8337W        W27871  15.810  13.029  15.399  0.1181 -0.0241 -0.1707
 8338W        W27872  12.615   8.884   0.477  0.0066 -0.2299 -0.2756
 8339W        W27873  11.250  16.398  11.483 -0.2206 -0.2089  0.1244
 8340W        W27874   3.429   5.095  16.936 -0.3200  0.0706 -0.3366
 8341W        W27875   9.605   8.085   0.332 -0.0294 -0.2747 -0.0373
 8342W        W27876   5.956  16.606  15.928  0.1066 -0.1767 -0.0570
 8343W        W27877   6.915   6.477   3.887  0.0227 -0.1677 -0.0448
 8344W        W27878  16.121   8.631  13.359 -0.0551 -0.0517 -0.0864
 8345W        W27879  10.679   7.185   4.723  0.2359  0.0386 -0.0982
 8346W        W27880  13.277  14.342  16.016  0.1159 -0.1390  0.0899
 8347W        W27881   1.999   0.654  15.943 -0.1742 -0.3432 -0.0355
 8348W        W27882  16.074   1.336  13.115 -0.2746 -0.1324  0.1555
 8349W        W27883  11.435  10.593   4.470 -0.0399  0.2290 -0.1654
 8350W        W27884  13.092   4.808   1.938 -0.0633  0.0030 -0.1362
 8351W        W27885   8.068  14.536   1.044 -0.3302 -0.0790 -0.0871
 8352W        W27886   5.327   6.802   0.802 -0.1579 -0.2380  0.2590
 8353W        W27887   0.324  17.159  14.367  0.0807 -0.1627  0.0288
 8354W        W27888   5.957  17.586   0.420 -0.3187  0.1851  0.2019
 8355W        W27889  15.422   5.175   1.672 -0.4503 -0.4622 -0.0885
 8356W        W27890  11.016   3.238  16.136 -0.1034  0.3705  0.1945
 8357W        W27891   9.866   5.028  12.227 -0.0278  0.4242 -0.3280
 8358W        W27892   7.292   5.900  13.058 -0.0214 -0.0087 -0.2310
 8359W        W27893  16.892  16.693   2.159 -0.0043  0.0281  0.1070
 8360W        W27894   8.893  13.138   4.251 -0.0611 -0.2083 -0.1315
 8361W        W27895   1.067   3.428   3.348 -0.1296  0.1592  0.1914
 8362W        W27896  11.525   8.567  12.935 -0.1775  0.2063 -0.1101
 8363W        W27897   3.080   3.910   3.497 -0.3098  0.1157  0.2899
 8364W        W27898   8.965   9.521   2.075  0.2506 -0.2797  0.1543
 8365W        W27899  13.691   7.632  14.599  0.3702  0.2465 -0.0982
 8366W        W27900  12.639   3.991  16.834  0.2535  0.0922  0.0595
 8367W        W27901  17.186  15.192  12.380  0.2700 -0.0552  0.3351
 8368W        W27902   6.116   1.335   1.045 -0.2633 -0.2420 -0.1721
 8369W        W27903  12.831   5.436  15.017 -0.2134  0.1826 -0.0518
 8370W        W27904   8.665   1.739  14.602  0.0362 -0.1048  0.2771
 8371W        W27905  11.507  10.784   5.348  0.1994  0.1067  0.4435
 8372W        W27906   4.540   1.369  16.435  0.0471 -0.0019  0.1901
 8373W        W27907   7.091   0.348  16.552 -0.0805 -0.2367 -0.0102
 8374W        W27908   6.463  12.262  12.886  0.0527  0.0507 -0.3980
 8375W        W27909  11.142   2.579  13.536 -0.3459  0.1822  0.2148
 8376W        W27910   5.385   6.340  15.564 -0.1239  0.0553 -0.0836
 8377W        W27911  12.191   0.498  13.520 -0.0699 -0.1583  0.2497
 8378W        W27912   7.249  15.205  14.858  0.1156 -0.2699  0.0596
 8379W        W27913   0.026  14.806  15.305  0.1460 -0.2653  0.2265
 8380W        W27914   8.198  10.326  16.360  0.0304 -0.1350  0.0707
 8381W        W27915  11.430   5.165  13.937  0.2005 -0.0582 -0.0716
 8382W        W27916  10.238  11.727   3.577 -0.1726 -0.0109  0.0941
 8383W        W27917  11.363   2.259  16.202  0.0286 -0.1959  0.0096
 8384W        W27918  11.837  10.602   2.463  0.1308 -0.1205 -0.3424
 8385W        W27919   9.780   0.952  16.819 -0.0517 -0.1026  0.2118
 8386W        W27920   0.047   6.192  14.228  0.1776  0.0513 -0.0346
 8387W        W27921  15.007  16.148  15.411 -0.1251 -0.4664  0.2632
 8388W        W27922   2.681   8.968  13.693 -0.2153  0.1920  0.1679
 8389W        W27923  13.802   0.130  13.769 -0.0032  0.1526 -0.1838
 8390W        W27924  17.349  12.798  12.946  0.3143  0.0392 -0.0615
 8391W        W27925  16.430  13.480   3.916 -0.0503  0.3733  0.0568
 8392W        W27926   0.550   3.441  15.739  0.1216  0.1262  0.2966
 8393W        W27927   5.069  10.815   4.579  0.2197 -0.1442 -0.2337
 8394W        W27928  15.189   0.092   3.738 -0.1428 -0.1366 -0.1455
 8395W        W27929   6.406  11.595  12.217  0.0520  0.0995  0.1019
 8396W        W27930  10.359   2.634   5.058 -0.0693  0.2284 -0.0021
 8397W        W27931   1.133  16.377   1.818 -0.2908  0.0410 -0.0259
 8398W        W27932   2.382   5.538   3.919 -0.0431 -0.3366  0.1680
 8399W        W27933  13.433  16.305  16.178  0.1897 -0.2642  0.1112
 8400W        W27934   1.004   3.748  15.705  0.2438 -0.0185 -0.2143
 8401W        W27935  15.113   7.883  12.614  0.1971  0.1195 -0.0616
 8402W        W27936  14.860   0.808  14.409  0.0327  0.1071 -0.1094
 8403W        W27937   4.778  10.092   1.954  0.1529 -0.2511 -0.0814
 8404W        W27938   1.075   1.080  12.557  0.0749 -0.2257  0.2431
 8405W        W27939   7.468   2.273   3.873 -0.0646 -0.3335  0.2149
 8406W        W27940  16.498   8.939   1.580 -0.1655  0.2232  0.3282
 8407W        W27941  15.634   2.067   3.720  0.1710  0.0091 -0.0249
 8408W        W27942  15.113   6.642  15.161 -0.0165  0.1155  0.1118
 8409W        W27943  12.000   4.708   0.716  0.1538  0.0884 -0.0083
 8410W        W27944   4.241   4.581  14.702  0.0770 -0.0857 -0.0021
 8411W        W27945   7.811   1.974  15.118  0.0035 -0.4021 -0.3865
 8412W        W27946   0.279  13.787   4.206  0.1408 -0.0431 -0.1979
 8413W        W27947   4.824   9.098  12.442  0.1068 -0.0688 -0.0905
 8414W        W27948  12.462   2.131   4.215 -0.3522 -0.2885  0.0829
 8415W        W27949   4.197  15.030   0.114  0.3091 -0.0103  0.2067
 8416W        W27950   0.720  16.004  13.711 -0.0590 -0.2443  0.1773
 8417W        W27951  16.137   0.746   4.800 -0.0825 -0.1168  0.0347
 8418W        W27952  17.474  15.294  14.137  0.1419  0.1638 -0.1566
 8419W        W27953  14.421   4.176  12.223 -0.1803 -0.3013  0.1850
 8420W        W27954  12.759   4.882  14.887  0.0032 -0.0068 -0.0949
 8421W        W27955  17.558   1.033  15.223 -0.0480 -0.0126  0.1586
 8422W        W27956   3.901   5.688  15.319 -0.2393 -0.0478  0.0993
 8423W        W27957   3.224   4.402  12.191  0.0273  0.0100 -0.0863
 8424W        W27958   0.607  14.536   4.382 -0.0931 -0.4370 -0.1366
 8425W        W27959   2.248  13.842   1.741  0.2110  0.1826  0.0061
 8426W        W27960  16.328   2.888  13.927 -0.3011 -0.1070  0.0300
 8427W        W27961   7.028   3.960   1.526  0.0406 -0.1579  0.2021
 8428W        W27962   7.672  14.663   2.057 -0.0922  0.3295  0.2225
 8429W        W27963   7.335   6.513   2.082  0.0390 -0.2634 -0.0044
 8430W        W27964   6.215  16.031  13.069 -0.1438 -0.0050 -0.1420
 8431W        W27965   9.118   8.499   0.815 -0.1179 -0.2839  0.1522
 8432W        W27966  14.802   5.149  12.885  0.0898  0.1425  0.3017
 8433W        W27967  10.543  10.622  14.164 -0.1311  0.1436 -0.3143
 8434W        W27968   8.787  11.757   0.825 -0.0616  0.0271  0.0677
 8435W        W27969  17.261  14.382  14.853 -0.2829 -0.1153 -0.0300
 8436W        W27970   6.587  15.223   1.314 -0.0435  0.1146 -0.2748
 8437W        W27971   1.397  15.978   4.169  0.0764  0.1871 -0.1637
 8438W        W27972   1.923   6.778   3.254 -0.0022 -0.4515  0.2267
 8439W        W27973   0.264  16.475   2.896  0.2062 -0.2169  0.1199
 8440W        W27974   2.045  10.038  17.007 -0.0231 -0.2204  0.0544
 8441W        W27975   0.612   5.702   0.908 -0.2627 -0.0903 -0.1479
 8442W        W27976  14.891  11.949  16.276 -0.2040  0.0808 -0.4058
 8443W        W27977  11.648  17.669   2.029 -0.0601  0.2873  0.2398
 8444W        W27978  14.790  14.313  16.074  0.1942  0.2006  0.0559
 8445W        W27979   3.462  11.850   1.756 -0.1678  0.0293  0.2507
 8446W        W27980   1.142   7.667  14.795 -0.1257  0.0139  0.0990
 8447W        W27981   7.443   7.868  13.437 -0.0773 -0.3983 -0.0503
 8448W        W27982   6.901  12.269  14.783 -0.0914  0.1463  0.5501
 8449W        W27983  12.122   6.745  14.398  0.1280  0.1843 -0.1397
 8450W        W27984   6.438  17.152  16.950  0.1549  0.1755 -0.0959
 8451W        W27985   4.803   3.806  14.222  0.2684  0.1648  0.1007
 8452W        W27986   1.235  15.860   4.703  0.0460 -0.1315  0.1456
 8453W        W27987   9.787  15.721  15.978 -0.0087 -0.1231  0.0533
 8454W        W27988  14.279   5.050  15.032  0.0267 -0.0129 -0.2003
 8455W        W27989  12.246   2.602  12.408 -0.2396  0.0761 -0.0754
 8456W        W27990  16.964  13.527   2.627  0.2080  0.1292 -0.1930
 8457W        W27991   5.998  11.526   1.977 -0.2418  0.2790 -0.1064
 8458W        W27992   0.457  12.490   0.733 -0.0436 -0.4433  0.1156
 8459W        W27993  11.110  13.964  14.812  0.0367 -0.1531 -0.0972
 8460W        W27994   4.058  12.025  13.318 -0.1046 -0.1706 -0.3151
 8461W        W27995   6.486   6.721   5.043 -0.0825  0.0571  0.2367
 8462W        W27996  12.403  13.539  15.643  0.5668 -0.0316 -0.0994
 8463W        W27997   3.608   1.447  14.033  0.3400  0.1611  0.0553
 8464W        W27998  15.970  13.068   4.671 -0.1810  0.0489 -0.0719
 8465W        W27999   0.615   6.986   0.760 -0.0684  0.0788  0.1857
 8466W        W28000   6.969  14.090  14.350  0.2398 -0.0110 -0.0984
 8467W        W28001  11.399   4.340   1.679 -0.1014  0.1727  0.0645
 8468W        W28002   1.983   5.445   0.334 -0.1067  0.2615 -0.1839
 8469W        W28003   9.732  12.553   0.302  0.1490 -0.1456  0.2159
 8470W        W28004   7.875  11.713   4.268  0.2290 -0.0080 -0.1142
 8471W        W28005  13.841  15.295   1.823  0.0208  0.3798 -0.2465
 8472W        W28006  16.818   3.620   0.696 -0.3485  0.1484  0.1872
 8473W        W28007   8.744  11.997   2.782 -0.0110  0.2117  0.0680
 8474W        W28008   6.341  14.822  15.102  0.2617 -0.0495  0.0962
 8475W        W28009   5.344  11.515   2.554 -0.0065  0.2128  0.0469
 8476W        W28010   6.959  14.490  16.477  0.1519 -0.0219 -0.2380
 8477W        W28011   3.333  13.075   2.179  0.0576 -0.0897  0.2574
 8478W        W28012   0.539  14.399   2.781 -0.1240  0.0611  0.0621
 8479W        W28013  10.481   9.281  16.410 -0.3540 -0.0847 -0.1192
 8480W        W28014   0.386   8.547  14.379  0.0911  0.3306 -0.2374
 8481W        W28015   7.817   2.707  12.902  0.0837  0.0170  0.0144
 8482W        W28016   8.445   8.544   1.065 -0.2106  0.0235 -0.0368
 8483W        W28017   5.392  13.434   4.469  0.2111 -0.0744 -0.0616
 8484W        W28018  10.854   1.814  14.958  0.0703  0.0691 -0.1559
 8485W        W28019  17.083   6.969  13.522  0.3432  0.3914  0.0281
 8486W        W28020  10.524   2.203   0.886  0.0243  0.2743  0.0452
 8487W        W28021   8.453  12.447   0.582  0.1215 -0.2907 -0.1367
 8488W        W28022   0.643   9.256   3.369  0.1250 -0.0385  0.2482
 8489W        W28023   2.234   1.924  16.252 -0.0932 -0.0419  0.1418
 8490W        W28024   0.596  10.874  16.957  0.1112 -0.1259  0.1277
 8491W        W28025   4.623  11.479   4.674 -0.0792 -0.2001  0.0377
 8492W        W28026  16.598   1.688   3.358  0.0691  0.2621 -0.2961
 8493W        W28027   7.938   6.057  16.893  0.1429 -0.0814  0.1672
 8494W        W28028   0.541   1.224   1.278  0.0802 -0.1264  0.2117
 8495W        W28029  13.194  11.891   2.413  0.0653  0.1160  0.0383
 8496W        W28030  16.293   8.202   4.793 -0.1863 -0.1418 -0.1932
 8497W        W28031   2.027   8.286   4.090 -0.1541 -0.2788 -0.0819
 8498W        W28032   8.413   8.493   2.318 -0.0129 -0.0241 -0.0658
 8499W        W28033   3.812   8.297  13.147 -0.2266 -0.0383  0.1488
 8500W        W28034   2.720   5.527  15.410 -0.1788 -0.0082  0.1338
 8501W        W28035  17.520   1.988   3.642  0.2553 -0.1612  0.0783
 8502W        W28036  14.313   9.058   3.411  0.0222  0.1802  0.1071
 8503W        W28037  12.496  14.146   3.283 -0.1383  0.1646  0.2393
 8504W        W28038   1.781   1.123  14.692 -0.1160  0.2208  0.0650
 8505W        W28039   0.147  17.201   0.531  0.4657 -0.0889  0.0757
 8506W        W28040  10.423   0.888  13.431  0.1932  0.4147 -0.0040
 8507W        W28041   9.458  12.733   3.800  0.1244 -0.1294 -0.3895
 8508W        W28042  12.017  10.877  12.297  0.1384 -0.2951  0.1369
 8509W        W28043   1.385   4.755   2.992 -0.0284  0.3323 -0.0754
 8510W        W28044  12.867  15.834   4.069  0.2413  0.0017  0.0266
 8511W        W28045   4.158   5.105  16.026 -0.1815 -0.0668  0.2090
 8512W        W28046   2.883   8.389   0.844 -0.0795 -0.3361  0.2018
 8513W        W28047  10.744  10.842   4.855  0.2226  0.2167 -0.1451
 8514W        W28048   9.569  12.040   5.292  0.1491  0.1472 -0.0651
 8515W        W28049   5.613   2.280  14.354 -0.1513 -0.0506 -0.0472
 8516W        W28050   6.018   1.692   6.047  0.0667 -0.1739 -0.5192
 8517W        W28051  10.670  13.817   1.187 -0.0999  0.0274  0.0479
 8518W        W28052   1.276  17.291  16.880 -0.3816  0.2562 -0.0483
 8519W        W28053   4.229   0.475  12.823 -0.0069 -0.0424  0.0015
 8520W        W28054   4.913   8.598  16.489  0.2224 -0.0726  0.0961
 8521W        W28055   1.476   5.676  15.540  0.0693  0.0096 -0.1613
 8522W        W28056  14.243  13.540   0.166 -0.0281 -0.0854  0.3485
 8523W        W28057   5.557   4.740   4.592  0.0340 -0.0282  0.0769
 8524W        W28058   9.878  13.052  14.228  0.0176 -0.0977  0.0737
 8525W        W28059   1.134   0.218   2.559  0.1872 -0.0839  0.1282
 8526W        W28060   4.402   0.527  12.360 -0.2074 -0.3643  0.2424
 8527W        W28061   4.803   6.550  14.472 -0.2330  0.0631  0.0159
 8528W        W28062   0.561  11.055  12.094 -0.0466  0.0727  0.1047
 8529W        W28063   5.070  16.138   2.220 -0.0476 -0.0586  0.2239
 8530W        W28064   2.421   8.934  13.221  0.3637  0.1555 -0.0206
 8531W        W28065  11.249  13.443  16.528  0.2375  0.2444 -0.0826
 8532W        W28066  17.275   4.010   2.193 -0.4837  0.0974 -0.3190
 8533W        W28067  11.672   5.094  16.558  0.0308 -0.0103  0.0872
 8534W        W28068   0.958   5.903  13.830  0.5552 -0.1302 -0.0274
 8535W        W28069   9.694   2.490   2.558  0.0148 -0.1332  0.0653
 8536W        W28070  15.624  14.524   2.551  0.3265 -0.0046  0.1488
 8537W        W28071  16.229  16.876   2.168 -0.1469 -0.0172 -0.0093
 8538W        W28072   5.759   5.371   1.358  0.1167  0.0580  0.1984
 8539W        W28073   4.868  17.231  13.027  0.2098 -0.2172 -0.3306
 8540W        W28074  14.256   3.562   1.169 -0.0724 -0.4841  0.2792
 8541W        W28075   3.768  14.290   2.675  0.3888 -0.0406 -0.0275
 8542W        W28076  14.024  13.477  14.005  0.0049 -0.3886  0.0016
 8543W        W28077   4.550   2.661   5.475 -0.2046 -0.0488  0.1277
 8544W        W28078  15.715  14.059  14.294  0.0663  0.1612 -0.1810
 8545W        W28079   7.287  12.307   1.902  0.0082  0.2222 -0.1882
 8546W        W28080   1.988   2.911   1.686 -0.2128 -0.1049 -0.1042
 8547W        W28081   7.895   2.166   1.147 -0.1528  0.0586 -0.0567
 8548W        W28082  12.250   3.477  12.629 -0.1221 -0.0117 -0.1595
 8549W        W28083  12.415   9.389  12.279  0.1593 -0.3917 -0.0099
 8550W        W28084   0.426  11.068  16.007  0.0572 -0.4226  0.0301
 8551W        W28085  14.386   7.620   0.123 -0.2948  0.0342 -0.1703
 8552W        W28086   5.209   5.697  14.742  0.0884  0.1072  0.1651
 8553W        W28087  12.656  13.274  13.685 -0.0684 -0.2214  0.1307
 8554W        W28088  16.489  13.386   2.823 -0.0992  0.4586 -0.1256
 8555W        W28089   1.507  11.748  13.617  0.2569 -0.3207  0.0760
 8556W        W28090  14.834   0.626   2.456  0.0601 -0.2304 -0.1825
 8557W        W28091   8.008  15.551  13.647  0.1235  0.2610  0.2304
 8558W        W28092  14.559   8.230   2.874 -0.0411 -0.0451  0.1229
 8559W        W28093   5.965   4.225  11.227  0.0708 -0.0170  0.1011
 8560W        W28094  17.564   3.215   0.938 -0.0757 -0.1511 -0.2351
 8561W        W28095  14.793   1.504  15.883  0.1290  0.0818  0.0008
 8562W        W28096  16.181  16.583  14.994 -0.1181 -0.2320 -0.2855
 8563W        W28097   2.391   3.606   4.146  0.1319  0.0043  0.1658
 8564W        W28098   1.274  16.238   3.697  0.0083 -0.0220 -0.4063
 8565W        W28099   2.050   6.885   4.730 -0.1683  0.2829  0.2503
 8566W        W28100   7.062   1.811   2.325  0.1871  0.0720 -0.2250
 8567W        W28101   7.219  12.227  13.376 -0.3362  0.1600  0.0828
 8568W        W28102   9.232   5.811   1.862 -0.0373  0.1127  0.1921
 8569W        W28103  11.299  16.775   1.087 -0.2471  0.0396 -0.4187
 8570W        W28104  15.175  13.096  14.748 -0.2536 -0.0240  0.3370
 8571W        W28105  11.256   7.392  16.787  0.4250  0.6304 -0.1662
 8572W        W28106   3.225  11.504  14.185  0.1316  0.0143 -0.3756
 8573W        W28107   0.675   1.433   4.437 -0.2575 -0.1097  0.0483
 8574W        W28108   9.754  15.112   0.370 -0.1956 -0.3043 -0.0625
 8575W        W28109  12.123   0.227   4.717 -0.2699 -0.0129 -0.1409
 8576W        W28110  15.374  13.644   1.689 -0.2347 -0.0416  0.0164
 8577W        W28111   2.815   2.584  15.089 -0.1477 -0.1876  0.0566
 8578W        W28112   0.402  10.810   1.119 -0.1149  0.0757 -0.0667
 8579W        W28113  16.307  10.870  12.465  0.0462  0.0625 -0.0745
 8580W        W28114  11.172  10.109   4.777 -0.0499  0.4604  0.1474
 8581W        W28115  14.788   5.750  14.880  0.3274 -0.0475  0.1716
 8582W        W28116   4.132  17.153   3.536  0.1897 -0.2074  0.0438
 8583W        W28117   3.001   4.330  15.019  0.0299 -0.3172  0.2234
 8584W        W28118  13.893   4.451   2.083 -0.1667 -0.0277 -0.0585
 8585W        W28119  13.762   9.561  15.127  0.0890  0.0385 -0.4174
 8586W        W28120   2.944   3.093   1.606  0.0541 -0.0296 -0.0131
 8587W        W28121  14.502   6.649   1.415 -0.1170  0.0413 -0.2053
 8588W        W28122   6.235  10.404  16.627 -0.3158 -0.0849  0.0648
 8589W        W28123  15.064  11.910  13.449  0.0395  0.1953 -0.3951
 8590W        W28124   7.422   9.679   0.086  0.0290  0.1212 -0.1120
 8591W        W28125  15.198   7.814  14.186  0.2529  0.0333  0.2869
 8592W        W28126   6.587   3.420   3.833  0.2110 -0.1650 -0.2238
 8593W        W28127   1.460   1.172   0.912  0.0461  0.0694 -0.2533
 8594W        W28128  14.363   9.131  17.016  0.1437 -0.0300 -0.0699
 8595W        W28129   1.884  16.524  15.585 -0.1824  0.1805  0.0864
 8596W        W28130   0.255  13.863  14.249  0.0689  0.1499  0.2613
 8597W        W28131   6.615  12.910  15.277  0.3166 -0.0028 -0.0865
 8598W        W28132   5.270   0.402  15.734 -0.0653 -0.1486 -0.1816
 8599W        W28133  15.489   4.159   4.337  0.0438  0.2464 -0.1494
 8600W        W28134  16.287  12.631  12.707 -0.0218  0.1713 -0.0336
 8601W        W28135  15.289  10.218   0.128 -0.1753  0.0172  0.0033
 8602W        W28136   0.409   4.701  12.674  0.0034  0.2971  0.0297
 8603W        W28137   4.545  16.772  14.956  0.2637 -0.1549  0.0892
 8604W        W28138  12.385  10.067   1.706  0.0214 -0.3565 -0.0971
 8605W        W28139  12.228   7.784   1.803  0.2563  0.1916 -0.0651
 8606W        W28140   6.975   6.586   0.036 -0.1883  0.2502 -0.0591
 8607W        W28141  13.330   8.342  13.919 -0.0897 -0.0372  0.0084
 8608W        W28142   8.352  14.932  16.083 -0.0433  0.0561  0.2222
 8609W        W28143  12.710  17.380  15.510  0.1494 -0.0294  0.0486
 8610W        W28144  13.374   2.963  13.220  0.2870  0.0341  0.2920
 8611W        W28145   7.798   3.668   1.215 -0.1106 -0.0792  0.1653
 8612W        W28146  13.884   4.188  16.338 -0.1632 -0.0157 -0.1700
 8613W        W28147   8.672  15.862  15.209 -0.1116  0.0867  0.0525
 8614W        W28148  12.585  10.993  13.976  0.1838  0.2009 -0.3320
 8615W        W28149  10.320  13.196  15.993 -0.1494 -0.3280  0.3230
 8616W        W28150   5.542   5.212   2.234 -0.1219  0.2015 -0.0688
 8617W        W28151   6.729  13.837   0.698  0.1518 -0.1340  0.0309
 8618W        W28152  14.167   9.798   4.597 -0.0249 -0.0672  0.1756
 8619W        W28153   6.595   3.038  13.498  0.4296  0.2381 -0.1862
 8620W        W28154   9.644   4.307  15.884 -0.0950  0.1586  0.0363
 8621W        W28155  12.325   2.078   0.058  0.0888  0.1837  0.1491
 8622W        W28156   2.320   4.457  15.028 -0.1502  0.0549  0.2773
 8623W        W28157  14.778  17.403  12.451  0.0812  0.1268  0.2905
 8624W        W28158  10.529  15.777   2.381 -0.2935  0.1105 -0.1625
 8625W        W28159  12.617   4.179   4.896  0.1198 -0.5586  0.0754
 8626W        W28160   2.447   8.200  15.552 -0.1809  0.1826 -0.2018
 8627W        W28161   7.877   9.586  15.505 -0.3184  0.2236  0.2148
 8628W        W28162  16.917   0.004   3.504 -0.1204 -0.1649 -0.1008
 8629W        W28163   1.474   8.388   1.029  0.1212 -0.0473 -0.0678
 8630W        W28164   6.378  15.785   1.458  0.3474 -0.0285 -0.0214
 8631W        W28165   4.469   3.799   0.776  0.2568 -0.3035  0.2117
 8632W        W28166  14.707  14.432   0.266 -0.3246 -0.1910 -0.0078
 8633W        W28167  14.190  16.201   2.926  0.2867  0.0333 -0.3935
 8634W        W28168   6.664  15.654   1.036  0.4235  0.1200 -0.1683
 8635W        W28169   2.707   1.779  16.331 -0.1211  0.2704 -0.2984
 8636W        W28170  16.866   3.741  16.903 -0.0411  0.0369 -0.3259
 8637W        W28171   0.944   5.915  12.881  0.2251  0.3023 -0.0826
 8638W        W28172   9.917   8.564   1.383  0.1996 -0.2525  0.0725
 8639W        W28173   7.600   5.385  14.435  0.2541  0.2628  0.0801
 8640W        W28174   3.919  16.529  15.552  0.2974 -0.1258 -0.1763
 8641W        W28175  10.319   3.520   4.145 -0.1166  0.0812 -0.1615
 8642W        W28176  11.478   3.247   0.126  0.1467 -0.1823  0.2409
 8643W        W28177  14.597   7.818  13.731 -0.0252  0.2159  0.0343
 8644W        W28178  10.658  15.839  12.830 -0.0743  0.0544 -0.1128
 8645W        W28179   0.013   2.615   2.642  0.0367  0.0545  0.0414
 8646W        W28180   3.336   9.835  12.951  0.1379 -0.0066  0.1728
 8647W        W28181   6.812   6.840   0.804 -0.0765  0.2942  0.2887
 8648W        W28182   5.353  17.069  16.244  0.0247  0.0819  0.2331
 8649W        W28183   3.110   0.250  14.544 -0.0522 -0.1801  0.1884
 8650W        W28184  14.513   8.982  15.127 -0.1013 -0.3575  0.3492
 8651W        W28185   0.604  17.258   5.133  0.0243 -0.0353  0.2338
 8652W        W28186   1.492   4.738   1.508 -0.2228 -0.0639  0.3985
 8653W        W28187   9.527   3.092  16.011 -0.2179 -0.2105 -0.2462
 8654W        W28188   6.065  10.161  13.597  0.3528  0.0090 -0.2258
 8655W        W28189   6.948  12.173  15.493 -0.3140 -0.2157 -0.1690
 8656W        W28190   0.321   4.228  16.230 -0.1384  0.2483  0.1887
 8657W        W28191  13.663  15.962  16.477 -0.4316  0.1159  0.0680
 8658W        W28192  15.435   8.767  15.617 -0.1239  0.0528  0.2869
 8659W        W28193  16.943   9.714  15.589  0.1628 -0.2335  0.0221
 8660W        W28194   4.371   4.557  15.989  0.0641  0.0116 -0.1969
 8661W        W28195   7.727  10.116   0.175 -0.0154 -0.0929  0.1178
 8662W        W28196   6.150  14.878  16.009  0.2991  0.0703  0.1244
 8663W        W28197  14.098  11.513  12.568 -0.0457  0.1411 -0.1921
 8664W        W28198  17.195   8.501   3.145 -0.2268  0.3604  0.0906
 8665W        W28199  14.005   9.618   2.673  0.3104  0.0958  0.2285
 8666W        W28200   4.908  12.902   2.645 -0.3004 -0.1685 -0.0161
 8667W        W28201   1.881   7.034   3.686 -0.1957 -0.1504  0.0717
 8668W        W28202  12.554   6.539  13.522  0.2854 -0.1193  0.2619
 8669W        W28203   9.136   3.246  15.657  0.0221 -0.1372  0.1534
 8670W        W28204   8.069  14.025   0.843 -0.1994  0.0417 -0.1538
 8671W        W28205   2.696  12.410   4.376 -0.2311 -0.3255 -0.1398
 8672W        W28206  15.815   2.544  14.615 -0.0094 -0.0892 -0.0373
 8673W        W28207   6.975  13.638   4.893  0.1867 -0.1025 -0.1529
 8674W        W28208  10.962   3.919   0.024  0.0316  0.1256  0.4279
 8675W        W28209   2.233  10.542   3.230 -0.1940 -0.0918  0.4010
 8676W        W28210   9.537  15.978   0.530 -0.1133  0.2066 -0.0720
 8677W        W28211  14.484  11.997   1.024 -0.2409 -0.3136 -0.2094
 8678W        W28212   3.327  15.169   3.615  0.2548 -0.2746  0.1595
 8679W        W28213  10.463  12.283  12.199 -0.0588 -0.1773 -0.0194
 8680W        W28214   6.462   5.780   0.554 -0.1464  0.0827 -0.0652
 8681W        W28215  16.504  12.086  14.041  0.0946 -0.0394 -0.3183
 8682W        W28216   3.796   6.890  13.737 -0.1318  0.1759 -0.0370
 8683W        W28217   9.154   6.321   1.763  0.1448 -0.0868  0.1359
 8684W        W28218   1.119   7.535   1.817 -0.1651  0.2057 -0.2895
 8685W        W28219   9.800  17.036   4.618 -0.2056  0.0421 -0.1656
 8686W        W28220   9.249  10.264   3.126 -0.2999  0.0776  0.4780
 8687W        W28221   9.305  11.914   4.732  0.1241 -0.1599 -0.0647
 8688W        W28222   3.116   6.285  15.482  0.3897 -0.1630 -0.1486
 8689W        W28223   4.601   8.276   3.515 -0.2528 -0.0203  0.0661
 8690W        W28224   7.186  13.723  15.299  0.2006  0.0694  0.0249
 8691W        W28225   3.772  10.870  12.926  0.0900  0.0775  0.0419
 8692W        W28226   9.106  11.698  15.017 -0.3863 -0.0663  0.0024
 8693W        W28227  10.087  12.332  14.916 -0.1922  0.4043 -0.0140
 8694W        W28228   1.255  15.395  16.692  0.0707 -0.2125  0.0950
 8695W        W28229   7.512  16.580   4.894  0.2941 -0.0825  0.2049
 8696W        W28230  11.925   2.161   3.057  0.3331  0.0773 -0.0582
 8697W        W28231   4.935  12.054  13.930  0.1811  0.0588 -0.1220
 8698W        W28232   5.953   9.780  15.721  0.1562 -0.0292  0.0244
 8699W        W28233  15.535   6.514  13.508 -0.1503 -0.2702  0.1501
 8700W        W28234  15.816   1.735   4.120 -0.0229  0.3105 -0.0363
 8701W        W28235   3.248  15.129  13.400 -0.2228  0.0038  0.1032
 8702W        W28236  12.752  17.392  14.040  0.1889  0.0142  0.0483
 8703W        W28237  13.129   2.785   2.440  0.0069  0.4654  0.1108
 8704W        W28238  16.118  10.126   0.653  0.1559  0.1012  0.2975
 8705W        W28239   5.041  12.542  14.229  0.0599 -0.1576  0.1011
 8706W        W28240   6.902   3.434   2.877 -0.0836 -0.3054 -0.0850
 8707W        W28241  12.684   2.142  16.348 -0.0046 -0.0451  0.1333
 8708W        W28242   2.020   3.911  14.256 -0.1660  0.1210 -0.0038
 8709W        W28243   6.703   8.339   1.657 -0.0946  0.2443 -0.1079
 8710W        W28244   4.831   9.493  13.409 -0.1263 -0.2025  0.3330
 8711W        W28245  10.966   9.789  12.138 -0.1239 -0.1092 -0.0660
 8712W        W28246   9.095   1.604   1.959  0.0485  0.0290 -0.2226
 8713W        W28247   1.875   1.629  16.349 -0.1463  0.1641  0.2110
 8714W        W28248   1.001   8.704  13.233  0.1876 -0.0119  0.4807
 8715W        W28249   2.506  16.464   1.084 -0.1031 -0.1178  0.0808
 8716W        W28250   2.094  11.530  15.513 -0.3476 -0.2472 -0.0203
 8717W        W28251  12.281   3.705   2.995 -0.0653 -0.0006 -0.0106
 8718W        W28252   1.627   2.198   5.267  0.2980 -0.1497 -0.0772
 8719W        W28253   6.689  17.522  16.487  0.0533 -0.3562 -0.1130
 8720W        W28254   3.059   8.265  14.910  0.3838 -0.0519  0.2473
 8721W        W28255  14.613  15.741  16.213  0.0801  0.4480 -0.0278
 8722W        W28256   2.076  17.405  14.519 -0.2669 -0.1344 -0.2766
 8723W        W28257   1.906   7.648   1.216  0.0703 -0.0787  0.0055
 8724W        W28258  16.414   4.795  16.365 -0.1143 -0.0156  0.3195
 8725W        W28259   3.795   8.111   3.940 -0.3330 -0.1045 -0.4736
 8726W        W28260   8.631  10.572  16.420  0.0610 -0.0749 -0.2656
 8727W        W28261  13.202   9.661   0.663 -0.1669  0.1610 -0.1647
 8728W        W28262  13.705  13.917  12.976  0.0474  0.0863  0.1341
 8729W        W28263   9.844  14.469   1.946  0.0519  0.0113 -0.0120
 8730W        W28264  14.870  17.185  15.622 -0.2534 -0.2371 -0.1481
 8731W        W28265   5.142  16.536   4.055  0.1117  0.2026 -0.0254
 8732W        W28266   3.593   6.178  13.142 -0.0249 -0.0514 -0.2579
 8733W        W28267   1.136  15.746   3.786  0.0969 -0.3905  0.1211
 8734W        W28268  15.710  12.376  15.447 -0.1360 -0.0013  0.0391
 8735W        W28269   6.052   1.537  17.026 -0.1064  0.0318 -0.1533
 8736W        W28270   1.658   5.886  13.361 -0.1085 -0.0457 -0.0764
 8737W        W28271  13.074  15.792   1.255  0.0552 -0.0636 -0.0137
 8738W        W28272   4.104  16.032   2.991 -0.0128 -0.1722  0.0808
 8739W        W28273   7.498   4.609   0.258  0.1738 -0.3415  0.1548
 8740W        W28274   4.250   0.168   3.464 -0.2487  0.2094 -0.2285
 8741W        W28275   2.633   2.299   5.149  0.2902 -0.1416 -0.1784
 8742W        W28276  12.628   7.590  12.664 -0.1102  0.0172  0.2768
 8743W        W28277  16.665  12.875  15.713 -0.0200 -0.1756  0.2251
 8744W        W28278   7.368   4.548  15.695  0.4935  0.1297 -0.1776
 8745W        W28279   4.245   7.777   2.060 -0.2207  0.0098  0.2144
 8746W        W28280   1.228   3.436   0.067 -0.0224  0.1607  0.2226
 8747W        W28281  10.702  11.528   3.250  0.1594  0.0084 -0.0685
 8748W        W28282  16.261  12.998   1.368  0.0469 -0.1611  0.2443
 8749W        W28283  10.967  11.901   3.469  0.0290 -0.1100 -0.2615
 8750W        W28284   5.227   1.772   0.977  0.0768 -0.2670  0.2177
 8751W        W28285  11.845   2.948  15.763  0.0604  0.2444  0.1437
 8752W        W28286  11.139   5.869   4.029 -0.0099 -0.2009  0.0056
 8753W        W28287   1.915   0.568  14.836 -0.1300 -0.1591 -0.2052
 8754W        W28288   0.973   5.598  15.899  0.0875  0.2089 -0.3463
 8755W        W28289   0.380   9.669   1.171  0.1194  0.1170  0.1958
 8756W        W28290   6.068  10.802  13.359  0.3888 -0.1507 -0.1468
 8757W        W28291   6.296   0.087  16.193 -0.2900  0.0447  0.3299
 8758W        W28292  17.598   9.569   0.922 -0.4137 -0.2462 -0.0935
 8759W        W28293  16.909   2.065   2.477  0.1385 -0.0388 -0.2366
 8760W        W28294   2.513  14.869  13.738  0.2997 -0.0415 -0.0036
 8761W        W28295   6.693   1.977   3.533 -0.1627  0.1676 -0.0604
 8762W        W28296   3.493  12.061  15.882  0.0853  0.2880 -0.3436
 8763W        W28297  14.244   7.021   0.861 -0.0389 -0.3331  0.2136
 8764W        W28298  15.941  14.403   2.130 -0.0703  0.0124  0.0480
 8765W        W28299   5.010  12.953  16.692 -0.0603 -0.0371  0.1127
 8766W        W28300  17.138   5.336   4.952 -0.1793 -0.0926  0.1804
 8767W        W28301   1.945   3.006  13.900  0.2344 -0.2406  0.3569
 8768W        W28302   1.127   0.350   1.465  0.1545 -0.1443 -0.0192
 8769W        W28303  13.946  14.119   4.062 -0.0421 -0.0789  0.1648
 8770W        W28304   5.500  15.374  12.109  0.3069  0.0565  0.2304
 8771W        W28305   7.246   6.771   4.160  0.0343 -0.0626  0.0770
 8772W        W28306  13.491   9.114   4.882  0.0062  0.0617  0.0924
 8773W        W28307  13.496  14.536   0.820 -0.0169 -0.0080  0.2227
 8774W        W28308   3.066  16.627   2.750  0.2677  0.1581  0.1446
 8775W        W28309   1.545   5.633   4.760  0.0274 -0.0451 -0.0194
 8776W        W28310  11.294  12.377  14.410 -0.3728 -0.0307  0.0120
 8777W        W28311   4.249  12.282   4.459 -0.0087 -0.3055  0.1980
 8778W        W28312  11.039  15.828  13.880  0.0098 -0.1121  0.0254
 8779W        W28313   2.659   8.807  15.143 -0.0038 -0.1776  0.0743
 8780W        W28314   5.457  16.444  15.124  0.0994  0.2475  0.0351
 8781W        W28315  10.938   5.133  12.323  0.0311  0.0038 -0.0287
 8782W        W28316  17.475  11.348  15.828 -0.0838  0.0774 -0.1292
 8783W        W28317  10.466  13.352   1.139 -0.0097 -0.0786  0.0421
 8784W        W28318  17.118   4.125   0.852  0.1255  0.0349 -0.0957
 8785W        W28319   6.834  10.257  15.866  0.0459 -0.1733  0.1380
 8786W        W28320  10.459  11.355   0.457 -0.0762 -0.2041  0.0551
 8787W        W28321  12.037   9.063  15.353  0.2022  0.2666  0.1343
 8788W        W28322   2.722  11.150  13.312  0.0324 -0.1558  0.0473
 8789W        W28323  14.564   2.923   2.874  0.1375  0.0546 -0.0980
 8790W        W28324  15.837   5.734   3.641 -0.0569  0.1163  0.1826
 8791W        W28325   9.671   2.004   3.061 -0.2129  0.0442 -0.0488
 8792W        W28326   3.066  17.204  12.675 -0.4571  0.1018 -0.0067
 8793W        W28327  13.626  15.412  12.928 -0.1663 -0.2771  0.1348
 8794W        W28328   1.882   0.378   0.623  0.1760 -0.2908  0.3962
 8795W        W28329  10.735  10.484  16.191  0.1686 -0.2224 -0.2233
 8796W        W28330   1.331   3.559   4.597  0.1002 -0.1190 -0.0256
 8797W        W28331   6.917   2.865  15.160 -0.3805  0.2423 -0.3164
 8798W        W28332  10.824   6.154  15.538  0.0754 -0.0405  0.2479
 8799W        W28333   5.556  14.359   3.083  0.1134 -0.1057 -0.1901
 8800W        W28334   6.231   8.939  15.892 -0.0725  0.0087  0.1288
 8801W        W28335   1.190  13.428   2.303  0.3985 -0.0470  0.1004
 8802W        W28336  13.426   7.816  13.239 -0.1419  0.0128  0.1246
 8803W        W28337  15.995  10.952  13.355 -0.3328  0.0093  0.1517
 8804W        W28338   8.902  14.117   2.058  0.0963  0.1839  0.0464
 8805W        W28339  10.269   3.559   3.571 -0.1068  0.2559 -0.2178
 8806W        W28340   9.231   8.887  11.414 -0.2772  0.1706 -0.0137
 8807W        W28341   4.335   2.865   4.346 -0.3966 -0.4063 -0.2361
 8808W        W28342   6.392   1.816  14.424  0.1769 -0.0547  0.0186
 8809W        W28343   8.126  11.135   4.438  0.0341 -0.2121 -0.1264
 8810W        W28344  14.343   6.805  14.381  0.1829 -0.1550 -0.0892
 8811W        W28345   7.912  10.423   2.721 -0.0307  0.0391 -0.0993
 8812W        W28346   7.252   2.812   0.077  0.0798 -0.1875 -0.2195
 8813W        W28347  12.625   5.617   1.214 -0.1126  0.0203 -0.2970
 8814W        W28348   5.670  11.705   4.241  0.0890  0.0372 -0.1094
 8815W        W28349  14.896  12.830   0.340 -0.1424 -0.0369  0.0507
 8816W        W28350  16.139   4.714   3.786  0.0503 -0.0940 -0.3634
 8817W        W28351   2.292   9.007   1.915 -0.0131  0.0543  0.1568
 8818W        W28352  12.877  16.633   1.817 -0.3181  0.1426  0.1010
 8819W        W28353   6.365   2.613  15.849  0.0425 -0.1732 -0.1168
 8820W        W28354   2.322   9.063   0.284 -0.0951 -0.1278 -0.0418
 8821W        W28355   1.427  17.507   3.494  0.1209 -0.2327  0.1215
 8822W        W28356  13.334  11.166  16.777 -0.2019  0.0403 -0.2134
 8823W        W28357   4.456  15.929   4.795  0.1347 -0.1059  0.1794
 8824W        W28358  15.968  13.051   2.189 -0.0708  0.1715 -0.0415
 8825W        W28359   5.523  12.050  16.488 -0.3111  0.2596 -0.1463
 8826W        W28360   8.086   4.355   2.258 -0.3447  0.1040 -0.0906
 8827W        W28361  10.209  14.770   0.005  0.0231  0.0588 -0.0194
 8828W        W28362   1.842  16.190   3.487 -0.1149  0.5806 -0.1519
 8829W        W28363   8.228   9.393  16.669 -0.0637 -0.3984 -0.2084
 8830W        W28364  11.255   2.508  15.362 -0.1843  0.0746  0.2428
 8831W        W28365   1.998   8.622  13.237  0.0451  0.3378 -0.1377
 8832W        W28366  12.858  13.764  12.357 -0.0829  0.1762 -0.0895
 8833W        W28367  12.351   9.067  12.639  0.1119  0.0066 -0.1746
 8834W        W28368  11.936  12.993   2.392 -0.0751 -0.1591 -0.1838
 8835W        W28369  16.241   6.876   4.748  0.2079 -0.1571 -0.2185
 8836W        W28370  13.343   8.853  13.980  0.1730  0.0367 -0.0422
 8837W        W28371   8.633   7.660  13.464 -0.0424  0.3755 -0.1442
 8838W        W28372   1.008  10.927   4.089  0.0855  0.4020  0.1283
 8839W        W28373   5.269   1.277   0.665 -0.1266 -0.0562 -0.0002
 8840W        W28374  12.428   9.501   5.057  0.0366 -0.0312 -0.1976
 8841W        W28375   8.852   1.361   0.852  0.1294  0.0905 -0.1203
 8842W        W28376   2.808   0.419   1.177  0.0950 -0.1277  0.1359
 8843W        W28377   4.202  14.386   3.428 -0.1209 -0.0878  0.2128
 8844W        W28378   3.837   6.771   3.561 -0.0293 -0.1327  0.2835
 8845W        W28379  15.301  10.010  12.659 -0.0659 -0.2326 -0.2415
 8846W        W28380   0.448   7.191  16.734  0.3693 -0.1485 -0.1564
 8847W        W28381   7.662  15.446   3.884 -0.0834  0.2066 -0.0502
 8848W        W28382   4.393  12.968   2.254  0.0492 -0.1007 -0.1880
 8849W        W28383  16.117   1.742   3.617  0.1765 -0.0078 -0.1040
 8850W        W28384   2.653  14.074  15.155  0.0874 -0.1397 -0.0182
 8851W        W28385   1.047  16.741  15.118 -0.0038 -0.1326 -0.0223
 8852W        W28386  10.113   1.531   4.655 -0.0188  0.2478  0.0479
 8853W        W28387  10.955   8.459  12.843 -0.4362  0.0315  0.1500
 8854W        W28388   6.022  13.752   1.861 -0.0199  0.3400 -0.0501
 8855W        W28389   8.680   4.399   3.987 -0.0178 -0.2687  0.1469
 8856W        W28390  17.594   7.475   1.457 -0.3350 -0.0450 -0.1440
 8857W        W28391  15.186   2.115   4.422 -0.1870  0.3766  0.3933
 8858W        W28392  12.544   5.974  16.148 -0.2160 -0.1202  0.1320
 8859W        W28393   2.004   0.188   1.628  0.2197  0.1321  0.2360
 8860W        W28394   5.820  17.366  12.000 -0.3499  0.3479  0.2884
 8861W        W28395  10.877   2.511   2.934  0.1353 -0.0052 -0.0758
 8862W        W28396   9.849  16.906   0.100 -0.0569  0.1380  0.0639
 8863W        W28397  10.965   3.435  13.960 -0.0607  0.0714 -0.1673
 8864W        W28398  16.657   0.314   2.875 -0.0217 -0.1545  0.1390
 8865W        W28399   6.261   8.074   1.461  0.2121  0.0490 -0.0460
 8866W        W28400   6.372  15.164   0.834  0.0064 -0.3320  0.0411
 8867W        W28401  11.071   8.380   4.115  0.0593 -0.0410 -0.0431
 8868W        W28402   0.789  11.929   4.124  0.0692 -0.2352  0.3325
 8869W        W28403  17.378   3.394   3.915  0.1323  0.1364  0.0067
 8870W        W28404  16.771   7.522   2.413  0.1252 -0.1822  0.1480
 8871W        W28405   4.142  15.703  16.666  0.1657 -0.0622 -0.0217
 8872W        W28406   2.177   7.354   1.456  0.2212  0.1254  0.1839
 8873W        W28407   4.862  16.912   3.873  0.1122  0.2394 -0.2968
 8874W        W28408   2.214   6.813  15.702 -0.0467 -0.2794 -0.3749
 8875W        W28409   0.557   3.987  17.064  0.0057 -0.2134 -0.0997
 8876W        W28410  10.683   4.793   1.190 -0.2354 -0.0021 -0.2452
 8877W        W28411  16.449   1.156   0.491 -0.1585  0.2329  0.0345
 8878W        W28412   2.740  11.833   2.097 -0.1290 -0.1180  0.1215
 8879W        W28413  16.539   0.875   1.483  0.1468 -0.1468  0.0846
 8880W        W28414   7.141  11.771   4.951  0.2704  0.2585 -0.2118
 8881W        W28415  11.043  15.094  12.692  0.0917  0.1153  0.2299
 8882W        W28416   1.089  14.266   2.072 -0.1132  0.0698  0.0439
 8883W        W28417   3.181   3.251  13.598 -0.0974  0.3940 -0.2997
 8884W        W28418   7.756  16.919  13.942  0.0004 -0.1195  0.3609
 8885W        W28419   3.987   5.181  15.413 -0.0227  0.1075 -0.2011
 8886W        W28420  17.658   2.745  16.934 -0.2871 -0.2359 -0.0064
 8887W        W28421  13.520  12.409   1.432 -0.0568 -0.2835 -0.1179
 8888W        W28422   2.326  13.773   0.391 -0.0527  0.3462  0.1005
 8889W        W28423  17.260   3.809   4.114 -0.1060 -0.2580 -0.2180
 8890W        W28424  11.578  11.326  12.165  0.1171 -0.0673  0.0721
 8891W        W28425  17.012   6.784   3.477  0.1428  0.2463 -0.3108
 8892W        W28426   5.330   9.055  15.658 -0.1836 -0.1214 -0.1389
 8893W        W28427   5.991  13.190   3.060  0.1358 -0.2032 -0.0258
 8894W        W28428   1.413   1.824  15.547 -0.1884  0.2054  0.2703
 8895W        W28429   1.504   2.568  16.023  0.1108  0.0184  0.0396
 8896W        W28430   2.188   9.582   2.799 -0.1773  0.1540 -0.1888
 8897W        W28431  12.515   8.732  13.578 -0.0482  0.0225  0.2235
 8898W        W28432  13.148   5.648   5.119  0.1258 -0.0161  0.0791
 8899W        W28433   6.505  10.778   0.927 -0.1514 -0.2615 -0.2130
 8900W        W28434  14.964  12.855  13.496  0.0120  0.3402  0.1177
 8901W        W28435   5.359  17.614  15.931  0.0689 -0.0417  0.2361
 8902W        W28436  15.288   0.332  15.286 -0.0316  0.0431  0.2197
 8903W        W28437  13.560  13.966   6.176 -0.0820  0.2654 -0.0110
 8904W        W28438   8.481   3.430   4.340  0.0147  0.3336  0.1314
 8905W        W28439   7.176   7.576   0.169 -0.0145 -0.1445  0.0996
 8906W        W28440  10.622  10.010   4.855 -0.0068  0.1955  0.1347
 8907W        W28441  12.155   9.058   0.834 -0.0042 -0.1322  0.0378
 8908W        W28442  12.261   3.675  15.416 -0.1015  0.3796 -0.2744
 8909W        W28443   6.745  12.350  13.332  0.2871 -0.0406 -0.0465
 8910W        W28444   3.398   4.288   3.549  0.0717  0.0331 -0.0425
 8911W        W28445   0.561   4.110  15.149 -0.0976  0.0816  0.5083
 8912W        W28446   0.094  11.430  16.245  0.1889 -0.1583 -0.0096
 8913W        W28447   2.531   1.859  14.711  0.1706 -0.0955 -0.1185
 8914W        W28448   9.741   4.920   3.343  0.0758  0.1073 -0.0611
 8915W        W28449   9.902  12.210   4.939 -0.1983 -0.2589 -0.1739
 8916W        W28450   0.359  11.051  13.134  0.0274 -0.1923  0.1726
 8917W        W28451   2.415  10.943   5.070 -0.3639 -0.3338  0.0145
 8918W        W28452   3.439  13.524   1.140 -0.5665  0.1726  0.0095
 8919W        W28453   8.197   2.360  14.993 -0.0108  0.1443  0.0265
 8920W        W28454   5.604   0.363   1.928 -0.0574 -0.1506 -0.6005
 8921W        W28455  14.904  14.335   3.790  0.0975  0.1529  0.0458
 8922W        W28456  10.093  13.721  15.820 -0.0651  0.2690  0.1523
 8923W        W28457  14.969  14.619   4.987  0.0656 -0.0433  0.2422
 8924W        W28458  11.958  11.593   4.094 -0.0550 -0.0432  0.1554
 8925W        W28459  12.128  10.094  15.440 -0.0457 -0.0662 -0.0890
 8926W        W28460   9.055   6.208   4.521  0.1835 -0.2916 -0.0685
 8927W        W28461   0.455  14.343   3.596 -0.0443  0.3856  0.0168
 8928W        W28462  16.610  17.478   4.483  0.0070 -0.3168 -0.1290
 8929W        W28463  15.614   1.559  13.869  0.1639 -0.0832 -0.0806
 8930W        W28464   4.733   7.483  13.643 -0.0873 -0.0480 -0.1522
 8931W        W28465  10.247   6.863  12.521 -0.2461  0.4249  0.0427
 8932W        W28466  10.313  14.011   4.214 -0.0223 -0.0693 -0.0236
 8933W        W28467   4.385  10.796  12.652 -0.0927 -0.2044 -0.1189
 8934W        W28468   7.731  11.597  15.298  0.4656  0.1053 -0.3779
 8935W        W28469   1.217   1.111   0.460 -0.0768  0.0046 -0.0670
 8936W        W28470   5.123   4.009   1.350 -0.0618 -0.1097 -0.0955
 8937W        W28471   8.934   8.035   2.938 -0.0881  0.2066 -0.1192
 8938W        W28472   9.728  10.706  12.981 -0.0062 -0.2525 -0.0416
 8939W        W28473   9.716  15.828   3.980  0.0368  0.0162 -0.2067
 8940W        W28474   0.876  14.270  15.449  0.0046  0.4049 -0.4615
 8941W        W28475   7.481   9.738  13.085  0.0830  0.1484 -0.0738
 8942W        W28476  15.826  16.625   3.026 -0.1576  0.4238  0.0913
 8943W        W28477   6.079  14.825   5.291  0.4000  0.0887  0.1802
 8944W        W28478   0.874   3.583   4.188 -0.1523 -0.0930  0.0236
 8945W        W28479  13.785   4.806  15.096 -0.2657  0.1179  0.1994
 8946W        W28480  11.971  11.652   2.893  0.1365 -0.1620  0.1250
 8947W        W28481   6.035   0.407  14.161 -0.3388  0.2190  0.0438
 8948W        W28482  13.264   3.647   2.567 -0.0058  0.0329 -0.1416
 8949W        W28483   6.823   2.643   4.107  0.1146 -0.2066  0.1963
 8950W        W28484  14.952  16.854   1.400 -0.2988 -0.1840 -0.1528
 8951W        W28485  11.492   0.441  14.083 -0.1077  0.2683 -0.0499
 8952W        W28486   2.452   6.758   3.090 -0.0074 -0.0032  0.0950
 8953W        W28487   0.376  16.394  12.567 -0.2600  0.0189 -0.0087
 8954W        W28488  10.320   4.925  16.982  0.1368 -0.2428 -0.1430
 8955W        W28489   1.861  17.015  16.130  0.0833 -0.0578  0.0509
 8956W        W28490   2.028   6.602  14.554  0.3437  0.1534 -0.1629
 8957W        W28491   8.413   0.419   4.922 -0.1962 -0.0667 -0.3354
 8958W        W28492  16.899  12.442  16.377  0.1421 -0.0423  0.2653
 8959W        W28493   6.459  15.373  12.430 -0.0672 -0.2977 -0.1219
 8960W        W28494  14.708   8.024  12.909 -0.0339 -0.1594  0.0276
 8961W        W28495   5.242   1.011  14.582 -0.0765 -0.2368  0.4033
 8962W        W28496  10.068  11.210  12.314  0.0534  0.2525 -0.0420
 8963W        W28497  15.216   7.927   3.376 -0.0283  0.0799 -0.0069
 8964W        W28498  17.105  15.404   0.998  0.1739  0.2878 -0.1756
 8965W        W28499  14.333  17.499   1.529 -0.2825  0.0405 -0.0420
 8966W        W28500  14.378  12.731  16.558 -0.2354 -0.2049  0.1691
 8967W        W28501   8.557   2.501   1.974  0.3878 -0.0096  0.0677
 8968W        W28502   4.623   4.480   2.942 -0.0026  0.1614  0.0508
 8969W        W28503  14.484   1.181  13.636 -0.0121 -0.0291 -0.0153
 8970W        W28504  14.835  13.410  13.553  0.2276  0.0390 -0.0928
 8971W        W28505  14.804  11.708  14.103 -0.0277  0.0289  0.0683
 8972W        W28506   6.676   7.752  16.287 -0.1031 -0.2171 -0.1655
 8973W        W28507   9.562  16.535   0.328  0.1646 -0.1802  0.0351
 8974W        W28508   5.626   0.805  16.388  0.0654 -0.2591 -0.2897
 8975W        W28509   5.516  17.208  14.477  0.0423 -0.2338 -0.0501
 8976W        W28510  11.983   0.405   1.051  0.1071 -0.2150 -0.0543
 8977W        W28511   3.208   1.251  13.183 -0.1818  0.0256 -0.2521
 8978W        W28512   2.247   0.562   5.024  0.1547 -0.2360 -0.0744
 8979W        W28513  16.034   8.870   3.107 -0.0353  0.1353 -0.1032
 8980W        W28514  14.935   6.189  12.549  0.2380  0.2215 -0.2265
 8981W        W28515   3.028   7.199  13.215 -0.0668  0.0168 -0.1215
 8982W        W28516   1.024  13.960  13.707 -0.0214  0.0308  0.0119
 8983W        W28517  11.050  17.101   2.000 -0.1012 -0.2310  0.1177
 8984W        W28518  11.824   2.856   4.564  0.2094 -0.2070 -0.0590
 8985W        W28519   2.971  12.123  11.943  0.1388  0.1628  0.3525
 8986W        W28520  10.741  11.092  15.416 -0.1713 -0.1495 -0.1880
 8987W        W28521   0.957   3.105  12.390 -0.0096  0.0664 -0.0473
 8988W        W28522   6.119   0.719   2.550  0.1077  0.0007  0.0029
 8989W        W28523   3.702   9.053  14.043  0.0868 -0.2864 -0.0344
 8990W        W28524   1.689   6.147  12.919  0.0416 -0.0630  0.2530
 8991W        W28525   3.157  15.346  14.395 -0.0206  0.2358 -0.2462
 8992W        W28526  12.825  15.283   1.949 -0.0901 -0.3348  0.2376
 8993W        W28527  13.559   2.930  16.552  0.1990  0.3490  0.1127
 8994W        W28528   6.631  14.910  12.295 -0.1001 -0.2165  0.3063
 8995W        W28529  11.102  13.417  15.577 -0.1848 -0.0562  0.1894
 8996W        W28530  13.067   2.200  15.847 -0.1249  0.0551  0.1364
 8997W        W28531   3.183  12.061  16.870  0.1786  0.2843 -0.0659
 8998W        W28532  14.558   5.378   5.063 -0.1557  0.0490  0.2292
 8999W        W28533   8.230  10.689   4.203  0.1062 -0.2383 -0.2737
 9000W        W28534  14.646   8.394   4.990  0.0933  0.1924 -0.2472
 9001W        W28535  17.420   7.119   3.310  0.2021  0.3308 -0.3836
 9002W        W28536   7.681  13.713   0.714 -0.1290 -0.0170  0.2194
 9003W        W28537  17.613   0.956  16.834 -0.2182  0.1883  0.0213
 9004W        W28538   8.964   0.915   2.800 -0.1585  0.0012  0.0189
 9005W        W28539  13.700  15.012   1.064 -0.1179 -0.1261  0.1294
 9006W        W28540   2.592   7.471   0.612  0.0127 -0.4291  0.1991
 9007W        W28541   9.359   1.835  14.501 -0.0934  0.0189 -0.2151
 9008W        W28542   4.177  10.586  13.792 -0.1388 -0.3485  0.1304
 9009W        W28543   3.020   1.795   1.640 -0.2369 -0.0736 -0.0819
 9010W        W28544  11.747   6.477   4.525  0.0561  0.1020  0.0610
 9011W        W28545   6.882   6.227   2.599  0.2610  0.0921 -0.0992
 9012W        W28546  13.816  11.281  15.632 -0.3402 -0.0705  0.0723
 9013W        W28547   7.261   1.154   1.981 -0.2106  0.2159  0.1640
 9014W        W28548  15.474  13.754  15.769 -0.1373  0.1682  0.1184
 9015W        W28549  10.760   7.511  15.837  0.2124 -0.0128 -0.1088
 9016W        W28550  11.277  13.665   4.797  0.0551 -0.0207  0.0362
 9017W        W28551  16.800   1.895  16.080 -0.0344  0.0095  0.1814
 9018W        W28552   5.476   6.831   4.817 -0.2018 -0.5250  0.1135
 9019W        W28553  17.264   6.499   1.458  0.2282 -0.0033 -0.0779
 9020W        W28554   4.807  12.332  15.319 -0.1056 -0.0874  0.0611
 9021W        W28555   8.005   3.491  13.180  0.1788  0.1990  0.2286
 9022W        W28556  13.659   1.594  12.621  0.0711 -0.2639  0.0805
 9023W        W28557  15.329   0.103  16.321 -0.2099  0.3511 -0.0998
 9024W        W28558  12.497   3.402   1.981  0.0335 -0.1338 -0.0042
 9025W        W28559   1.130  10.029  15.030  0.0365 -0.4140  0.3181
 9026W        W28560  11.295  14.298  16.052  0.0562  0.0790 -0.1089
 9027W        W28561  15.038   6.890  12.651 -0.2280 -0.1844 -0.1446
 9028W        W28562  14.892  11.720  13.008 -0.1983 -0.3077  0.0520
 9029W        W28563  10.026   1.162  14.088 -0.2006 -0.3737  0.0992
 9030W        W28564   2.338  17.146   3.244  0.2446 -0.0512  0.0352
 9031W        W28565  11.069   6.690   1.510  0.1395  0.3232 -0.3385
 9032W        W28566  11.603   0.772  13.709  0.3213 -0.2285 -0.0200
 9033W        W28567   9.380   3.633  14.321 -0.2018  0.1042  0.0345
 9034W        W28568   3.638  12.724  13.271  0.1609 -0.0590  0.0348
 9035W        W28569  17.246  14.662   4.763 -0.2553 -0.1947  0.0847
 9036W        W28570  12.424   6.206  13.100 -0.4187 -0.0282 -0.0595
 9037W        W28571   4.039   5.040  14.903 -0.0599 -0.0344  0.2494
 9038W        W28572   9.077   5.462  15.805 -0.0230 -0.0192  0.1570
 9039W        W28573   7.837   8.849   2.910  0.0194 -0.0820 -0.0141
 9040W        W28574  17.669  12.985   2.864  0.0914 -0.1339  0.0047
 9041W        W28575  16.481  16.564  16.338  0.2799  0.1412 -0.0563
 9042W        W28576  13.133   9.245   1.782  0.0269  0.1113  0.0956
 9043W        W28577   3.955  10.902  14.484 -0.1874  0.4382  0.0861
 9044W        W28578   8.761   8.487   2.786  0.3221 -0.0076 -0.2046
 9045W        W28579  10.043   6.774   2.428  0.2129 -0.0211  0.1939
 9046W        W28580  14.422   5.975   3.834  0.0275  0.3109 -0.0833
 9047W        W28581  12.159  16.822   3.249 -0.2223 -0.2672  0.1359
 9048W        W28582   3.796  11.802   1.023 -0.1609 -0.0638 -0.1512
 9049W        W28583  11.569   5.414   0.254  0.1624  0.1477  0.1478
 9050W        W28584  13.050   9.828  14.353 -0.1043 -0.3348  0.2711
 9051W        W28585  17.102  16.876   4.616  0.2177 -0.2346  0.0655
 9052W        W28586  11.095  15.512  15.757 -0.0229 -0.0885  0.3035
 9053W        W28587  16.580   0.684   4.420 -0.0269  0.2110  0.0428
 9054W        W28588   6.847  16.279  12.257 -0.1400 -0.3450  0.2227
 9055W        W28589  17.156  16.165  13.755 -0.1178 -0.0093  0.2582
 9056W        W28590   3.596   6.296  15.030 -0.0279  0.0044 -0.2063
 9057W        W28591   8.350   6.891  16.211 -0.0674 -0.0157  0.2888
 9058W        W28592  16.355   9.481  15.282  0.1085  0.0579 -0.0239
 9059W        W28593   2.883   1.490  12.531  0.1434  0.1046  0.0588
 9060W        W28594  11.779   5.437   0.701 -0.3211  0.0284  0.2295
 9061W        W28595  15.131  13.856   1.317 -0.1809  0.3954 -0.0155
 9062W        W28596  10.553   5.473  12.686  0.2684 -0.0860 -0.3234
 9063W        W28597   7.186   1.571  13.475  0.1142 -0.0581  0.1710
 9064W        W28598   3.993   3.097  15.285  0.0511 -0.1594 -0.1085
 9065W        W28599   6.192   6.917   5.349  0.0849  0.0098 -0.1517
 9066W        W28600   5.242   5.322   0.398 -0.1865  0.3333 -0.0439
 9067W        W28601   4.223  16.261  12.330 -0.0153 -0.1447  0.3169
 9068W        W28602  15.495   8.865  16.109  0.1057  0.1739  0.2596
 9069W        W28603   1.055   7.900   4.371 -0.0473 -0.1100 -0.2435
 9070W        W28604   8.240  13.267   0.030 -0.0986  0.0228 -0.1030
 9071W        W28605   4.117   9.233   1.052  0.0995 -0.0220 -0.1849
 9072W        W28606  11.365   6.176   3.046  0.0039  0.1433  0.2576
 9073W        W28607  12.694  15.136   3.948 -0.0221  0.2085  0.0528
 9074W        W28608  17.309  15.435   2.176 -0.1050  0.3776  0.0298
 9075W        W28609   1.985   2.500   3.047  0.0452  0.3478 -0.0525
 9076W        W28610   9.273   8.301  16.839 -0.2078 -0.2790  0.0771
 9077W        W28611  16.526  13.594   3.399 -0.3068 -0.1313 -0.0210
 9078W        W28612   6.253   3.477  15.385  0.3920 -0.0532  0.2093
 9079W        W28613   1.024   8.888  14.947 -0.0179  0.0059 -0.2507
 9080W        W28614   7.234  14.361  15.231  0.0506  0.1122 -0.1198
 9081W        W28615   5.576  15.003  12.884  0.1699 -0.0645  0.0423
 9082W        W28616   5.088   3.859   0.287  0.1056  0.4216  0.1743
 9083W        W28617   6.335  13.711   4.283 -0.1956  0.0673 -0.0978
 9084W        W28618   7.333  12.863   3.009  0.0319 -0.0494 -0.0897
 9085W        W28619   5.671   0.289   0.486 -0.0181  0.1617 -0.0974
 9086W        W28620   4.720  13.925  13.085  0.0352 -0.0834 -0.2829
 9087W        W28621   8.096  14.528   4.971 -0.1616  0.5213 -0.2362
 9088W        W28622  14.846  16.889   1.930 -0.2828 -0.0433 -0.1495
 9089W        W28623   7.922   6.625   2.264 -0.3199  0.1692 -0.3047
 9090W        W28624  14.625   2.386  12.591 -0.0592 -0.1181 -0.1578
 9091W        W28625   0.150   0.070  16.856 -0.1428  0.1846  0.0766
 9092W        W28626  15.339  12.727   3.971  0.0718 -0.3955 -0.2186
 9093W        W28627  11.442   1.845   2.408 -0.2619  0.2213 -0.1918
 9094W        W28628  10.691   2.519   4.237  0.0823 -0.1463 -0.4573
 9095W        W28629   9.476  16.764  16.047  0.0206  0.1226 -0.2541
 9096W        W28630   3.060  10.841   4.145  0.0140  0.1032  0.2859
 9097W        W28631  17.105  14.778   3.353  0.1893  0.2924  0.0114
 9098W        W28632   9.189   1.627   4.646  0.2849 -0.0415 -0.1686
 9099W        W28633   9.327   3.804  13.542  0.1612 -0.0480 -0.0560
 9100W        W28634   4.719  15.814  13.535  0.0894  0.2063 -0.0776
 9101W        W28635   0.894  12.241  17.032  0.1002  0.0189  0.3253
 9102W        W28636  14.845   0.767  11.521  0.1477  0.2578  0.1910
 9103W        W28637  13.186  10.984  13.009  0.0442  0.3102 -0.2478
 9104W        W28638  12.721   8.315  11.642  0.1840  0.0064 -0.1905
 9105W        W28639  12.226  11.614  15.364 -0.1011 -0.0524 -0.2697
 9106W        W28640   6.064   8.544  14.035 -0.0725 -0.0027 -0.0412
 9107W        W28641  10.542  13.122  13.244 -0.2785 -0.1251  0.0567
 9108W        W28642   9.407   0.231  13.366  0.0052 -0.1687 -0.1480
 9109W        W28643  10.405   5.865  14.793  0.1288 -0.2183 -0.2855
 9110W        W28644  11.933   8.912  13.183 -0.2082  0.0718  0.0945
 9111W        W28645   5.114  15.901   0.404  0.1415 -0.1121  0.1562
 9112W        W28646  12.085   8.292   4.077 -0.0301  0.2254  0.1503
 9113W        W28647   0.969   7.150   3.897  0.1940 -0.1795  0.1207
 9114W        W28648  16.747   2.824  16.446 -0.0663 -0.0685  0.2759
 9115W        W28649  12.778   4.641  13.126 -0.1750 -0.0048 -0.1713
 9116W        W28650  16.165   8.079   2.163  0.1245 -0.0300  0.0552
 9117W        W28651   2.012  15.011  13.919 -0.0422 -0.0557 -0.3605
 9118W        W28652   9.996  17.262   2.870 -0.0935 -0.0974  0.0241
 9119W        W28653  16.350   8.619  17.039  0.0194 -0.0695 -0.0733
 9120W        W28654  12.493  12.338  15.861 -0.0022 -0.0080 -0.3283
 9121W        W28655  11.251   8.647   2.011  0.1119  0.0219  0.3985
 9122W        W28656  10.528   8.074  12.688  0.4306 -0.0187 -0.3933
 9123W        W28657  12.663   1.950  14.208 -0.0557 -0.1588  0.0655
 9124W        W28658   0.591   2.347  15.093 -0.0411 -0.1810  0.0120
 9125W        W28659  10.231   6.996  15.440  0.3453  0.1013  0.1083
 9126W        W28660   9.492   0.459   0.431  0.0806 -0.2512  0.0354
 9127W        W28661  10.593   5.054  14.170  0.4597  0.1723  0.1232
 9128W        W28662  11.196  16.247  14.103 -0.1017  0.0784  0.1376
 9129W        W28663  10.067   6.412   0.755  0.2044  0.0231 -0.0960
 9130W        W28664   8.999  14.654  14.460 -0.2097  0.0733  0.1722
 9131W        W28665   3.691   1.689  16.943 -0.0373  0.0368 -0.4591
 9132W        W28666   8.725   0.825   0.860 -0.1509 -0.0076  0.2446
 9133W        W28667   2.096   4.586   4.161 -0.2812 -0.0941 -0.1027
 9134W        W28668  10.762  17.183  14.717 -0.0154 -0.1863  0.2661
 9135W        W28669   2.634   3.390   5.110 -0.2409  0.0573  0.2984
 9136W        W28670   8.508  16.264  14.857 -0.1857 -0.0188  0.2087
 9137W        W28671   5.240  13.728  13.115 -0.0323  0.0263  0.0858
 9138W        W28672  12.021   0.467  12.741  0.3502  0.0077  0.0588
 9139W        W28673   1.894  12.258   4.051 -0.3397 -0.1775  0.1698
 9140W        W28674   0.692   1.202   5.382 -0.3589  0.0097 -0.0397
 9141W        W28675   9.608   7.977  16.862 -0.0206  0.0808  0.1713
 9142W        W28676  11.515  13.888   1.618 -0.3490 -0.0499  0.0953
 9143W        W28677   3.986   1.584   1.954  0.1931  0.2269 -0.0088
 9144W        W28678  13.945   9.728   4.122  0.0510  0.0307  0.2047
 9145W        W28679  11.835  15.158  12.570  0.0659 -0.2320 -0.1831
 9146W        W28680  15.284  15.630  15.330  0.1215  0.0724 -0.0396
 9147W        W28681  12.309   2.863  14.008  0.1775  0.0117 -0.1001
 9148W        W28682  14.088   5.400   2.154  0.0097  0.1997  0.1177
 9149W        W28683  16.882   1.650  14.305 -0.1631 -0.1622 -0.1645
 9150W        W28684  16.179  14.233  13.643  0.0881 -0.2390 -0.3087
 9151W        W28685  12.324   1.684   2.919 -0.1534 -0.2837 -0.0929
 9152W        W28686  17.583  16.833   3.560  0.0804  0.2375  0.1136
 9153W        W28687   6.119  14.622  11.957  0.1086 -0.1093  0.0682
 9154W        W28688   3.129   8.621  15.428  0.0430  0.0339 -0.1177
 9155W        W28689  16.648   5.576  14.816  0.0693  0.3152 -0.2962
 9156W        W28690  14.844  14.028   2.285  0.0696 -0.2518 -0.0343
 9157W        W28691  16.363   6.010   1.323 -0.2106 -0.0275  0.0848
 9158W        W28692   4.683   2.381   3.436  0.5021  0.0103  0.1076
 9159W        W28693  13.017  12.464   0.009  0.0130 -0.0623  0.0368
 9160W        W28694   6.530   1.265   2.369  0.0301  0.0289  0.0271
 9161W        W28695  11.664  13.993  15.774 -0.2564 -0.2953 -0.1269
 9162W        W28696   1.865   6.319   1.385  0.0980  0.0009  0.0841
 9163W        W28697  15.545   6.278   0.181 -0.0898  0.0924 -0.0355
 9164W        W28698   1.760  15.913   0.463  0.1085 -0.1183  0.0370
 9165W        W28699  16.935   3.709  15.409 -0.1837 -0.1897  0.2891
 9166W        W28700   0.347  14.471   5.887  0.1732  0.1160 -0.0881
 9167W        W28701   6.501   9.554  16.464 -0.2702 -0.1911  0.1380
 9168W        W28702   8.101  11.647  15.658  0.0431  0.2456 -0.1164
 9169W        W28703   6.162  12.718  15.055  0.1215  0.2551  0.2014
 9170W        W28704  11.637   4.509   0.269 -0.1593 -0.0131  0.0445
 9171W        W28705   6.994  14.137  16.121  0.0812 -0.1036 -0.0094
 9172W        W28706   7.357  16.748  14.232 -0.0496  0.0571  0.1515
 9173W        W28707  14.157   5.256  16.678  0.1096  0.0075 -0.2798
 9174W        W28708   5.875  15.220  14.027  0.1269 -0.0051 -0.2269
 9175W        W28709   0.878  11.214   0.272 -0.0021 -0.1909 -0.2004
 9176W        W28710   4.468  12.567   3.956 -0.0668  0.2223 -0.0896
 9177W        W28711   6.768  11.396  13.233 -0.2918  0.0382 -0.0233
 9178W        W28712   5.809   3.212   4.652  0.0573 -0.1329  0.2374
 9179W        W28713   8.069   1.705   1.232 -0.3350  0.0703  0.3226
 9180W        W28714  11.880  15.561   1.958 -0.0325  0.1462  0.2593
 9181W        W28715   0.032   1.922  14.238 -0.1125  0.1190 -0.3451
 9182W        W28716  17.270   6.121   2.417 -0.0669 -0.3169 -0.1641
 9183W        W28717  14.710  10.186  13.598  0.0103 -0.1975 -0.1903
 9184W        W28718   5.548  13.980  15.384  0.1186 -0.2137 -0.1873
 9185W        W28719  15.703   4.341  12.620  0.1570 -0.0353 -0.2871
 9186W        W28720   6.077  11.233  14.859 -0.1282  0.0813 -0.2078
 9187W        W28721   6.169  15.429  14.457 -0.0008 -0.0289 -0.5071
 9188W        W28722  10.159  17.146  14.613  0.2199 -0.2281 -0.0814
 9189W        W28723   4.103   0.157  16.237  0.0588 -0.1631 -0.3999
 9190W        W28724  13.689   1.440   2.671  0.4751  0.0741 -0.0371
 9191W        W28725   9.507  10.460   2.017 -0.1066  0.0755 -0.0680
 9192W        W28726   7.918  14.073   0.374 -0.1471 -0.0691  0.1557
 9193W        W28727   2.699   8.087  12.588  0.0235  0.1812  0.1221
 9194W        W28728   8.520  17.092   2.599 -0.1425 -0.1307 -0.0334
 9195W        W28729   0.241   2.683   4.367  0.1414  0.0856 -0.1639
 9196W        W28730  13.175  13.921  12.859 -0.2060  0.4698 -0.0092
 9197W        W28731   3.296   1.177   2.815 -0.0378  0.1050 -0.1729
 9198W        W28732   6.446   9.995  16.808 -0.1861  0.2678 -0.0318
 9199W        W28733   9.496   0.041  14.302 -0.2892 -0.1780  0.2481
 9200W        W28734   5.533  15.559  14.047 -0.1718  0.1250  0.0234
 9201W        W28735  14.962  12.661  15.003 -0.2739  0.1550  0.0733
 9202W        W28736   1.267  14.966  15.220 -0.0264  0.0928  0.0190
 9203W        W28737   9.501   4.379  16.381 -0.0582 -0.1268 -0.0592
 9204W        W28738   3.611   3.633   0.227 -0.1403 -0.0385 -0.1273
 9205W        W28739   2.902  11.709   2.557 -0.0485  0.0273 -0.0435
 9206W        W28740   5.507  11.458   3.113  0.1799 -0.0341 -0.0019
 9207W        W28741   7.537   3.917  12.060 -0.1437  0.1711  0.2685
 9208W        W28742  14.365   1.592   1.716  0.1398 -0.2911 -0.5661
 9209W        W28743   0.548   3.974   4.199 -0.0180  0.1544 -0.2115
 9210W        W28744   1.038  12.903  14.762  0.0789  0.0474  0.0670
 9211W        W28745  11.525  10.846   1.609  0.1160 -0.0801  0.2218
 9212W        W28746   6.423   6.787  15.491 -0.2859 -0.1717  0.1727
 9213W        W28747  16.242  12.545   2.904 -0.1504  0.2814  0.3074
 9214W        W28748  14.348  11.333   1.875 -0.0275  0.0536 -0.2891
 9215W        W28749   2.697  11.280   2.210 -0.0891  0.0202  0.2998
 9216W        W28750   6.154  12.573  16.997 -0.3545 -0.3102  0.1533
 9217W        W28751   4.858  15.079   3.117  0.2036 -0.0526  0.0551
 9218W        W28752   4.957   9.392   4.656  0.1568  0.0625  0.0763
 9219W        W28753  14.757   7.185  13.658  0.2248  0.0876 -0.1391
 9220W        W28754  13.717  17.340   3.638 -0.0297  0.1182  0.3252
 9221W        W28755   7.546   8.190  14.342 -0.0141  0.1813  0.1314
 9222W        W28756   1.138   1.227   2.115  0.0638 -0.0168  0.0261
 9223W        W28757   7.815   0.116   2.787  0.0282  0.3124 -0.2125
 9224W        W28758  17.089  12.661  15.810 -0.0824  0.1138  0.2290
 9225W        W28759  12.999   8.815   1.963  0.4361 -0.1479  0.2100
 9226W        W28760   8.805   0.244   4.711 -0.0152 -0.0527  0.0444
 9227W        W28761   6.331   6.193  16.368  0.1563  0.0132 -0.1835
 9228W        W28762  11.983   6.743   2.815 -0.0391 -0.0482 -0.3299
 9229W        W28763   3.179   8.113   0.561  0.2098 -0.2604  0.2130
 9230W        W28764   0.929   1.520   3.842  0.0403 -0.0296 -0.1865
 9231W        W28765  13.516  14.891  15.474  0.2271 -0.1674 -0.3334
 9232W        W28766  11.501  10.318   0.642 -0.1885 -0.2629 -0.2309
 9233W        W28767  16.339  12.942   2.584 -0.0352  0.1423  0.2696
 9234W        W28768   3.723  11.581   4.372 -0.1265 -0.1446  0.1513
 9235W        W28769  14.312   5.256   1.179 -0.1203  0.3633 -0.1787
 9236W        W28770   0.596   7.540  17.058  0.3029 -0.0471  0.0723
 9237W        W28771   5.833  10.790  12.936  0.0852 -0.1292  0.3433
 9238W        W28772   3.377   5.528  15.883 -0.0672  0.0116  0.2000
 9239W        W28773   7.933  13.045  13.110  0.4511 -0.0059  0.0927
 9240W        W28774   6.962   1.253   0.497 -0.0910 -0.0128  0.1362
 9241W        W28775   8.787   8.192   4.898 -0.0753  0.3307 -0.0099
 9242W        W28776  15.916   4.370  13.240  0.0682  0.2108 -0.1263
 9243W        W28777   3.181  15.224  12.384 -0.4722  0.2273  0.0226
 9244W        W28778  14.669   6.214   0.031  0.0884 -0.0918  0.3836
 9245W        W28779  12.846   3.812   2.315 -0.1389  0.0283  0.1893
 9246W        W28780  16.206  13.222  13.984  0.2669 -0.2424 -0.2413
 9247W        W28781   0.810  12.900  12.372 -0.0068  0.4132  0.2805
 9248W        W28782  12.908   5.300   4.817  0.0433  0.1826 -0.1277
 9249W        W28783   2.467   8.400   0.014  0.0627  0.1570 -0.0103
 9250W        W28784  15.201   2.255   1.124  0.1072 -0.0980 -0.2289
 9251W        W28785   2.938   5.900  16.748 -0.2290  0.1119  0.1186
 9252W        W28786  15.716   3.151  12.224  0.1171 -0.2449  0.2476
 9253W        W28787   0.045   4.125   4.246 -0.2716  0.1283 -0.1280
 9254W        W28788  14.035  13.645   3.859 -0.2475  0.1769 -0.1098
 9255W        W28789   9.178   5.563  15.315 -0.0593  0.0582  0.0921
 9256W        W28790   0.678  12.437  12.082 -0.2160  0.1419 -0.0345
 9257W        W28791   0.991   6.433  14.305 -0.0845 -0.3287 -0.0511
 9258W        W28792   5.729   8.777   0.669  0.1776  0.1155  0.0309
 9259W        W28793  15.362  12.710   1.616  0.2904 -0.0659 -0.0375
 9260W        W28794   2.390   7.990   4.276  0.1550 -0.1469  0.2953
 9261W        W28795  12.192   8.018   3.623  0.0777 -0.0283  0.1125
 9262W        W28796   2.844   6.423   0.896 -0.0345 -0.2250  0.1542
 9263W        W28797  10.938  15.674   0.420 -0.0705  0.2967  0.0019
 9264W        W28798   2.795   4.331   2.144 -0.1328 -0.2073 -0.3180
 9265W        W28799   4.191   5.375   4.976 -0.2351  0.0907 -0.1367
 9266W        W28800  11.595   0.628   1.415 -0.1554 -0.3086  0.0167
 9267W        W28801   1.508   6.198  15.588  0.1089  0.0812 -0.2820
 9268W        W28802   1.601  12.509   3.232 -0.0576 -0.0498 -0.2717
 9269W        W28803  14.404  13.299   1.021 -0.1173  0.1449  0.1854
 9270W        W28804   0.537   7.776   0.871  0.0533  0.0654 -0.3057
 9271W        W28805  12.769   6.209   4.436  0.1889  0.4515 -0.2102
 9272W        W28806  14.765  16.526  14.522  0.1178  0.0263  0.2496
 9273W        W28807   1.470   4.425   0.323  0.2600 -0.1541 -0.2757
 9274W        W28808   2.999  12.333  13.681  0.0541  0.2164 -0.1936
 9275W        W28809   2.742   7.099   0.867  0.0261 -0.0961  0.3736
 9276W        W28810  15.171   0.116  13.114 -0.0505  0.2047 -0.3299
 9277W        W28811  10.144  11.910  13.173  0.1534  0.1070  0.0419
 9278W        W28812   4.688   6.422  13.330  0.1555  0.2127 -0.0218
 9279W        W28813   6.342   0.278   2.576  0.2643 -0.2577 -0.2690
 9280W        W28814  13.425  14.130  17.032  0.1498  0.0840  0.2590
 9281W        W28815   8.568   5.796  14.389  0.0509 -0.0733  0.1209
 9282W        W28816   8.284  10.214  14.609 -0.0311  0.0467  0.0635
 9283W        W28817   5.316   0.836   1.921 -0.2318  0.1928  0.0311
 9284W        W28818  14.247   6.141  13.903 -0.2210  0.0146 -0.1400
 9285W        W28819  14.308   1.680   3.202  0.2055  0.1974  0.0973
 9286W        W28820   3.274  14.848  14.369 -0.1226  0.0689  0.0823
 9287W        W28821  15.171   1.364  14.384 -0.0381 -0.2106  0.0395
 9288W        W28822  14.807   8.694   2.030  0.3166  0.0892  0.1261
 9289W        W28823   8.518  14.409   2.175  0.0736  0.2269  0.1181
 9290W        W28824  13.831   1.492   3.185 -0.2317 -0.2167  0.3964
 9291W        W28825  12.918   3.980   3.540 -0.1852  0.1680  0.1011
 9292W        W28826   9.068  12.757   4.537  0.0635  0.4962  0.2942
 9293W        W28827  17.151  16.576  12.282  0.1505  0.1098  0.2220
 9294W        W28828   2.325   1.839  14.202  0.0075 -0.1213 -0.1255
 9295W        W28829  15.501   2.755  15.946 -0.0996 -0.3952  0.1822
 9296W        W28830   8.208  13.643  16.000  0.1056 -0.2027 -0.0087
 9297W        W28831  16.308   3.091  13.465 -0.2213  0.0582 -0.0747
 9298W        W28832  15.909   8.494   2.381 -0.0078  0.0383 -0.0156
 9299W        W28833  13.020  12.387  15.103 -0.1776 -0.0472  0.3816
 9300W        W28834   7.710  11.909  11.732  0.0176 -0.0131 -0.2040
 9301W        W28835   3.222   4.630   2.231 -0.0103  0.0224  0.0259
 9302W        W28836  13.564   4.256   5.075  0.0005 -0.0212 -0.1161
 9303W        W28837   3.616  11.561   0.594 -0.0884  0.1247 -0.0838
 9304W        W28838   8.990   2.431   0.045 -0.0501  0.0516 -0.0500
 9305W        W28839   9.552  15.110  13.519  0.2407 -0.3987  0.0693
 9306W        W28840  14.084   3.720   2.126 -0.1848  0.2161 -0.1653
 9307W        W28841  13.020   3.156  14.736  0.0700  0.3201  0.1101
 9308W        W28842   5.275   8.398   1.423  0.1733  0.2269  0.2102
 9309W        W28843   1.719   4.615  12.275 -0.1946 -0.3481  0.0525
 9310W        W28844  12.607   6.287   2.755  0.3260 -0.0577 -0.0317
 9311W        W28845  15.080   4.895  14.163  0.0480 -0.1043  0.1048
 9312W        W28846  12.513   3.589   1.514 -0.0838  0.1704 -0.0107
 9313W        W28847  12.749  11.927  14.647  0.2921 -0.1446 -0.1124
 9314W        W28848   5.718  15.635   3.858  0.0466 -0.2133  0.2266
 9315W        W28849   0.382  15.764  13.348  0.3707 -0.4074  0.2826
 9316W        W28850   1.670  15.354  16.271  0.1438  0.0417 -0.0674
 9317W        W28851   4.168   1.812   0.059 -0.3407 -0.1107  0.2198
 9318W        W28852   1.848   5.376  11.966 -0.0430 -0.2198 -0.2801
 9319W        W28853   4.312  11.722   2.711  0.1653 -0.0001  0.0712
 9320W        W28854  16.890   3.723   5.234  0.0192  0.0660  0.1233
 9321W        W28855  10.724   4.863  14.937 -0.1741 -0.2601  0.1284
 9322W        W28856   9.196   1.004   0.608  0.0408  0.0531  0.3414
 9323W        W28857   3.349  12.437  14.056 -0.0262 -0.2443  0.2322
 9324W        W28858   2.858   8.348   0.288  0.1102  0.0322  0.1225
 9325W        W28859   5.054  12.147  12.899  0.2415  0.0680  0.1117
 9326W        W28860  14.980   3.389   3.402 -0.1049  0.0919  0.0403
 9327W        W28861   7.139  13.155  12.155 -0.1162 -0.4146  0.3182
 9328W        W28862  12.278  17.369  13.870  0.0896  0.0395 -0.2276
 9329W        W28863  13.577  12.202  13.644  0.2908 -0.0585 -0.3683
 9330W        W28864   1.400  10.908   3.384  0.0107  0.0363 -0.1664
 9331W        W28865   3.938  12.800  16.873 -0.0697 -0.2732  0.0110
 9332W        W28866  12.493  14.727  12.965  0.0947  0.0366 -0.0570
 9333W        W28867  15.546   7.727  16.765 -0.2336 -0.2431 -0.2417
 9334W        W28868  15.335   7.879  13.182  0.0627 -0.2290 -0.0325
 9335W        W28869   0.608   1.464   0.791 -0.1091  0.1116 -0.0859
 9336W        W28870   3.713   8.918  12.635  0.1513  0.0241 -0.3387
 9337W        W28871   8.704   9.824  13.772 -0.2238 -0.0635 -0.2035
 9338W        W28872   2.784  14.174   1.642  0.5668 -0.3045 -0.1131
 9339W        W28873  10.490   7.647   4.563 -0.1115 -0.2196 -0.0412
 9340W        W28874   1.014   3.936  15.197  0.5048 -0.3259  0.4114
 9341W        W28875   2.453  15.813  15.851  0.1637  0.1701  0.0578
 9342W        W28876   3.309   9.355  14.839  0.1656  0.1328 -0.1668
 9343W        W28877   6.738   2.596   5.110  0.1536  0.2056 -0.2583
 9344W        W28878  12.989   3.993  16.461  0.0071  0.1701  0.0642
 9345W        W28879  10.454   4.871  12.308 -0.0296 -0.0605 -0.3335
 9346W        W28880  14.810  10.650  13.965  0.0120  0.0196 -0.1319
 9347W        W28881   8.336   6.710   3.673  0.0827 -0.0654 -0.2758
 9348W        W28882   9.431   6.602  12.850  0.1369  0.1281  0.4117
 9349W        W28883   8.714   6.452  12.323  0.0989  0.1680  0.0573
 9350W        W28884  15.725   5.313  16.557  0.0295 -0.1902 -0.2827
 9351W        W28885   7.544  11.870   4.630 -0.0187  0.2212  0.2401
 9352W        W28886   2.082  15.539   1.230 -0.0337  0.5971  0.1861
 9353W        W28887   7.515  15.923   3.273  0.0460  0.0067  0.1670
 9354W        W28888   2.221  15.036  15.556  0.0707  0.0088  0.0575
 9355W        W28889  10.480   6.231  11.884  0.0231  0.1433  0.0502
 9356W        W28890  10.823  11.907  16.245 -0.1711 -0.0123 -0.0236
 9357W        W28891  13.436  14.957  15.998 -0.2307 -0.3613 -0.2243
 9358W        W28892   5.788  17.225  13.926 -0.2528 -0.2715  0.0386
 9359W        W28893   7.728   2.196  12.840 -0.0684  0.0926  0.0463
 9360W        W28894   7.425  14.645   1.325 -0.0591 -0.1267  0.0807
 9361W        W28895  17.325   8.946   2.902  0.0790 -0.2814 -0.2364
 9362W        W28896  10.198  16.847   5.084  0.1488  0.0611  0.2011
 9363W        W28897   0.258   5.987   3.576  0.1484  0.3536  0.1217
 9364W        W28898   6.898   5.991  12.820 -0.0790 -0.0825 -0.0198
 9365W        W28899   3.570  17.495   2.840 -0.4088  0.2988  0.2390
 9366W        W28900   2.868   5.245  12.099  0.0828 -0.1787  0.1068
 9367W        W28901  16.993   8.111  14.129  0.1018  0.0659  0.0642
 9368W        W28902   5.621  10.809   3.654 -0.0516 -0.0387 -0.1274
 9369W        W28903  14.898   0.845   5.004  0.1245  0.3503 -0.0639
 9370W        W28904  12.378   5.299  14.808 -0.1302 -0.2345  0.1742
 9371W        W28905   4.941  15.752  13.992  0.0493 -0.0695 -0.1833
 9372W        W28906   1.018   8.970  16.658  0.0587  0.0095 -0.2862
 9373W        W28907  16.456   7.133   2.315  0.0960 -0.0116 -0.2084
 9374W        W28908   7.716   4.118   0.229 -0.3306  0.2008 -0.0353
 9375W        W28909  10.379   8.525  15.988  0.0511 -0.0659 -0.1721
 9376W        W28910   0.320  16.099  15.915  0.1370 -0.0326 -0.1420
 9377W        W28911   3.774   4.120   4.443 -0.1224 -0.0746 -0.2428
 9378W        W28912   0.523  12.988   3.917 -0.3797 -0.1626  0.1973
 9379W        W28913   0.847   6.209   3.240 -0.0633  0.0882  0.0453
 9380W        W28914  13.805  10.689   3.031 -0.2337 -0.0589  0.1257
 9381W        W28915  10.827   9.842  12.744 -0.3442 -0.2246  0.1408
 9382W        W28916  16.365  14.759  12.798 -0.0839 -0.3054 -0.1676
 9383W        W28917  13.392  13.831  13.349 -0.1154  0.2123 -0.0006
 9384W        W28918  15.868   9.464   1.433  0.2095  0.1574 -0.0504
 9385W        W28919   8.041   5.220  12.002 -0.1193  0.1746 -0.1522
 9386W        W28920  16.704  17.641  16.444  0.0747 -0.1318 -0.0801
 9387W        W28921  15.892  12.158  14.172 -0.1813  0.2288 -0.1645
 9388W        W28922  10.694   2.237  13.181  0.0510 -0.3427  0.1794
 9389W        W28923   3.221   4.581   0.244 -0.1146  0.1332  0.1957
 9390W        W28924  12.893   7.635   4.236 -0.2283  0.2815  0.1205
 9391W        W28925  14.992   1.708   2.403 -0.1928  0.1925  0.0259
 9392W        W28926  11.611   5.574   4.510 -0.1628  0.2945  0.1878
 9393W        W28927   1.007  16.597   0.086  0.0683 -0.0639 -0.2226
 9394W        W28928  11.129   5.436  11.971  0.0999 -0.1562  0.1278
 9395W        W28929  11.453   8.511   3.142  0.0299 -0.1386 -0.0993
 9396W        W28930  14.760  13.459   6.178 -0.2931 -0.0040  0.1347
 9397W        W28931  15.121  16.659  14.209 -0.1188 -0.0140  0.0096
 9398W        W28932   1.178   4.732   3.746 -0.2891 -0.1991  0.0568
 9399W        W28933   5.269   9.224   1.995  0.2781  0.0405 -0.0419
 9400W        W28934   9.107  13.605   4.473 -0.0067  0.0431  0.0460
 9401W        W28935   9.707   1.913  13.541 -0.1492 -0.1612  0.1409
 9402W        W28936  13.252  13.668   1.332 -0.2480 -0.2611  0.0530
 9403W        W28937   0.054  15.709  15.359  0.5340  0.3372  0.0629
 9404W        W28938  12.533   2.907  16.490  0.0504  0.0633  0.0396
 9405W        W28939  16.837   4.314  14.988 -0.0214 -0.1491  0.0015
 9406W        W28940   4.216   0.768  16.426 -0.0662 -0.1666  0.0154
 9407W        W28941   2.343   9.389   5.068  0.1853 -0.0694  0.0533
 9408W        W28942  14.048   9.391   1.812  0.2494  0.1374 -0.0903
 9409W        W28943   3.305  14.975   1.018 -0.0312  0.0099  0.0275
 9410W        W28944   3.328  17.060   0.337 -0.0645  0.1922  0.0096
 9411W        W28945  14.888   4.247  12.450  0.3125 -0.3443  0.0323
 9412W        W28946  10.585  12.846   1.063 -0.1118  0.0173 -0.1738
 9413W        W28947   0.427   2.025  13.040 -0.1077 -0.1279 -0.0104
 9414W        W28948  10.864   2.696  12.354 -0.2432  0.3026  0.0510
 9415W        W28949   0.552  16.098  14.993 -0.2600  0.2187  0.2199
 9416W        W28950   5.240  15.193  14.670  0.1090  0.0424 -0.0356
 9417W        W28951   5.971   9.858  13.958  0.0386  0.2149 -0.2701
 9418W        W28952   6.912   9.962   1.341 -0.2377 -0.1958 -0.0455
 9419W        W28953  13.504  11.462   1.696  0.0847 -0.3508  0.0927
 9420W        W28954   5.181   3.931  16.847  0.1551  0.1852 -0.2117
 9421W        W28955   6.961   9.909   3.122  0.2205 -0.1588  0.0630
 9422W        W28956  10.122  14.843  12.349  0.0588  0.0494  0.0877
 9423W        W28957   3.639  17.037  14.831 -0.1149 -0.1311 -0.0230
 9424W        W28958   7.495   0.355   3.155 -0.1235 -0.2419  0.0152
 9425W        W28959  13.978  14.974   4.304  0.3198  0.1986  0.1310
 9426W        W28960  17.224   7.243   4.655  0.1878 -0.1218 -0.1206
 9427W        W28961  10.423  15.431   3.630  0.1442 -0.1929  0.1941
 9428W        W28962   9.697  11.268  16.914  0.1295 -0.1443 -0.1854
 9429W        W28963  12.329  13.198   2.091 -0.1065 -0.1002 -0.1197
 9430W        W28964  16.606   0.458   2.278 -0.0109 -0.2456 -0.1073
 9431W        W28965   9.957   5.288   2.487  0.1315  0.1575 -0.1201
 9432W        W28966  13.238   4.851  12.974  0.1306  0.0090  0.0933
 9433W        W28967  15.877   8.831   0.251  0.1623  0.0238  0.0479
 9434W        W28968  14.434   6.106   1.136 -0.3277  0.2233 -0.0692
 9435W        W28969  14.260   5.015  15.799 -0.1554  0.3778  0.3499
 9436W        W28970  11.444  15.090   2.809 -0.2283 -0.3892  0.1820
 9437W        W28971  15.624   7.994   2.993 -0.0189  0.1501 -0.1970
 9438W        W28972   5.431   4.250   0.134  0.3134  0.2232 -0.1430
 9439W        W28973   0.251   7.608   1.833 -0.0017  0.1112 -0.0326
 9440W        W28974  12.130  16.737   1.323  0.0217 -0.0846 -0.0535
 9441W        W28975  15.214   2.373   2.005  0.2145 -0.1326 -0.0539
 9442W        W28976   6.800  11.986  13.943 -0.1505 -0.0610 -0.1518
 9443W        W28977  10.932   2.260   3.359  0.0162  0.1116 -0.1449
 9444W        W28978   3.883  13.027  14.835  0.0755  0.0372 -0.0540
 9445W        W28979  11.963   3.206   0.213 -0.1436  0.1010 -0.1432
 9446W        W28980   2.198   2.709   0.902 -0.0901 -0.4472  0.0393
 9447W        W28981   8.761  10.329  14.702 -0.3783  0.0209 -0.3648
 9448W        W28982   9.425  16.323  16.680 -0.1603  0.1797 -0.3355
 9449W        W28983   1.137   4.694  12.095 -0.2810 -0.1938 -0.0905
 9450W        W28984   4.402  17.051  14.045  0.2027 -0.1581 -0.1435
 9451W        W28985  15.062  12.880  15.997 -0.0892 -0.0975 -0.0099
 9452W        W28986   2.363  16.964   1.354  0.0978  0.2891 -0.0801
 9453W        W28987   7.347  13.466   0.370 -0.0961  0.0721  0.1201
 9454W        W28988   4.607  10.496  14.795  0.1419 -0.1078  0.0703
 9455W        W28989  12.849   8.470  16.654  0.0433  0.0847  0.0380
 9456W        W28990   1.451  12.594  15.032 -0.2294 -0.1060  0.1030
 9457W        W28991  17.471   8.646  15.461 -0.0870  0.1113 -0.0650
 9458W        W28992  12.472   9.297  14.052  0.2719  0.1350  0.2755
 9459W        W28993  10.857  17.565  16.297  0.0724 -0.1977  0.1403
 9460W        W28994  16.213   7.663   0.218  0.0644  0.0200  0.3113
 9461W        W28995  14.563   3.336  15.869 -0.2250 -0.1874 -0.3429
 9462W        W28996  14.402  15.659   3.719 -0.0012  0.0878 -0.1133
 9463W        W28997  16.759  13.857   5.860 -0.2184  0.0055 -0.0724
 9464W        W28998   7.880  14.669  12.350 -0.2780 -0.2226 -0.0874
 9465W        W28999   8.384   6.942  15.339  0.3746 -0.2198 -0.0974
 9466W        W29000   0.824  16.805   1.845  0.0901 -0.0640 -0.0728
 9467W        W29001  12.711   8.582  14.512  0.1086  0.2119 -0.1546
 9468W        W29002  17.034   3.724  14.685 -0.0297  0.1659 -0.0337
 9469W        W29003  14.933  13.484  13.077 -0.1679 -0.1346  0.2370
 9470W        W29004  16.939   9.727   2.970 -0.0524 -0.1005 -0.3131
 9471W        W29005   2.951   6.348   0.009  0.2857  0.0050 -0.1008
 9472W        W29006  17.038   8.757   2.414 -0.0706 -0.1511  0.0377
 9473W        W29007   5.737  11.431  14.089 -0.1558 -0.0454  0.1159
 9474W        W29008  13.332  16.705  13.426 -0.1995 -0.0385  0.1161
 9475W        W29009  12.540  14.618  16.208  0.1024 -0.0155 -0.0912
 9476W        W29010   1.220   2.016   3.878  0.3826  0.3444 -0.2761
 9477W        W29011  12.309  16.016  15.842 -0.1670  0.0749 -0.1381
 9478W        W29012   4.645  16.391  13.901  0.0973 -0.0288  0.0437
 9479W        W29013   7.248  14.821   3.609 -0.1749  0.0853 -0.0476
 9480W        W29014  13.444  13.866   3.153 -0.1346 -0.1696 -0.2044
 9481W        W29015  12.009   8.025   2.282  0.0439  0.0001 -0.1687
 9482W        W29016   9.735  14.698  14.433  0.0128 -0.1025  0.6095
 9483W        W29017   1.349  12.839   1.636  0.0250 -0.0662  0.0279
 9484W        W29018   7.495   3.238   5.964  0.0530 -0.3810 -0.0382
 9485W        W29019  13.811  10.270  15.323 -0.2148 -0.0044  0.0856
 9486W        W29020  15.431  14.904  14.309  0.0978  0.0371 -0.1774
 9487W        W29021   3.933   8.622  16.577  0.2518  0.1220 -0.1758
 9488W        W29022   3.760  14.105  13.065 -0.0072  0.1398 -0.0542
 9489W        W29023   8.310   0.976  13.746  0.0338 -0.1022 -0.0313
 9490W        W29024  12.855   9.115  17.064  0.0320  0.0493  0.0593
 9491W        W29025   5.069  13.934  14.712  0.0682  0.0295  0.1494
 9492W        W29026   6.645  10.005  16.280 -0.0942  0.0233 -0.2843
 9493W        W29027   9.845  17.204  13.679  0.1902 -0.0260 -0.1902
 9494W        W29028   9.286   0.025   1.781  0.1821 -0.0434 -0.0074
 9495W        W29029  16.009   9.121  13.428 -0.0268 -0.0178 -0.1020
 9496W        W29030   5.547   6.140   1.506  0.1226  0.0849  0.1884
 9497W        W29031   8.678  14.000   3.676 -0.2005 -0.1212 -0.1578
 9498W        W29032  14.603   0.399  13.152 -0.0488  0.1648  0.4951
 9499W        W29033  16.255   0.204  14.153  0.0241 -0.0556  0.2057
 9500W        W29034  17.028  14.191   0.401  0.3280  0.0285  0.0016
 9501W        W29035   3.946  13.865   0.351  0.0239  0.5292 -0.2144
 9502W        W29036   7.685  17.553   3.943  0.1822  0.2015 -0.1937
 9503W        W29037   2.938   0.328  15.486 -0.0583  0.1011 -0.2623
 9504W        W29038   4.366   9.878   0.195  0.1580  0.1375 -0.1157
 9505W        W29039  17.058  10.790  14.607 -0.2039 -0.0381 -0.1706
 9506W        W29040   7.428  12.177   4.243  0.1626 -0.0476 -0.2448
 9507W        W29041   6.650   0.261   4.401 -0.1885  0.2968 -0.1044
 9508W        W29042   3.105  10.053  16.912  0.3061 -0.1921 -0.1356
 9509W        W29043  10.169   1.211   4.269  0.1369  0.0456 -0.0813
 9510W        W29044   6.925   9.533  16.210 -0.1382 -0.0633 -0.2166
 9511W        W29045  15.281   4.741   1.870 -0.0429 -0.1384 -0.0251
 9512W        W29046   6.094   8.351   2.809 -0.0697 -0.1273  0.2218
 9513W        W29047   0.038  12.065   1.665 -0.1290  0.1357 -0.2141
 9514W        W29048   2.636  10.025   3.879  0.2154  0.0733  0.1461
 9515W        W29049   1.606  13.200  12.887 -0.0129  0.1519 -0.0200
 9516W        W29050  17.519   9.097   1.702  0.4156 -0.0990 -0.1610
 9517W        W29051   3.020   3.057   3.856  0.0073  0.5211 -0.1580
 9518W        W29052   2.110  14.731   3.074  0.3196  0.0230  0.0572
 9519W        W29053   6.803   8.058  12.436 -0.0396 -0.2372 -0.1169
 9520W        W29054  10.556   5.921  13.542  0.3946  0.0813  0.0833
 9521W        W29055   2.981   4.356  16.479  0.3197  0.0666  0.0372
 9522W        W29056   3.806   7.411   1.180 -0.1797 -0.1142  0.1463
 9523W        W29057  11.131   3.906  13.592  0.1815 -0.1022 -0.1642
 9524W        W29058   7.812   4.829   2.217 -0.0040 -0.3477  0.0255
 9525W        W29059   2.922   3.036   2.958  0.0359 -0.1533 -0.0287
 9526W        W29060   8.812   0.590  14.933 -0.2324  0.0171 -0.2586
 9527W        W29061   8.360   8.139  13.355  0.0645  0.0514 -0.1605
 9528W        W29062   2.596  11.092   4.088 -0.1528  0.0369  0.1625
 9529W        W29063  13.427   2.602  15.276 -0.0133 -0.1388 -0.0172
 9530W        W29064  12.795   8.333  14.056  0.3102  0.0954  0.0679
 9531W        W29065   2.020  10.979  16.523 -0.0787 -0.0800  0.2211
 9532W        W29066   8.753  11.520   0.387 -0.4369 -0.0329  0.0124
 9533W        W29067   4.278   4.792  12.292  0.0664  0.0207  0.3444
 9534W        W29068  11.280  11.602  15.865  0.0653  0.0726 -0.3990
 9535W        W29069  16.736   0.851  14.836 -0.1449  0.0276  0.1502
 9536W        W29070   0.261  16.502   3.580 -0.1464 -0.2737  0.2967
 9537W        W29071   0.398   9.766  16.468  0.0646  0.0783  0.0278
 9538W        W29072  13.120  13.343   1.752  0.0919  0.0156  0.1553
 9539W        W29073  13.473  13.745   1.900  0.2097 -0.0425 -0.0049
 9540W        W29074   0.118   8.639  16.747  0.1660 -0.0250  0.2816
 9541W        W29075   1.366   6.831  16.876  0.2366  0.1419 -0.0229
 9542W        W29076   7.827   1.472   2.655  0.2745 -0.0406  0.1481
 9543W        W29077   4.381   5.025  16.885  0.2257  0.0655  0.1204
 9544W        W29078   9.156   3.472  16.098  0.0045  0.1332 -0.2691
 9545W        W29079  16.915  11.190  15.927 -0.1338  0.0596 -0.1262
 9546W        W29080   8.504   6.010   3.812  0.2108 -0.1270  0.2401
 9547W        W29081  15.431   6.629  14.010 -0.0217 -0.0742  0.2043
 9548W        W29082   6.551   7.700  12.070 -0.1242 -0.2762 -0.2024
 9549W        W29083  15.898   6.023   4.684 -0.0228  0.1944 -0.0035
 9550W        W29084   7.477   8.218   3.068  0.1689  0.1542  0.0833
 9551W        W29085  14.518  16.423  16.919 -0.0320  0.1855 -0.1196
 9552W        W29086   5.707  17.103  15.793  0.0584 -0.0428 -0.2716
 9553W        W29087  16.365   1.057  16.292 -0.1334  0.2629 -0.1446
 9554W        W29088   7.322  13.565  11.994  0.0537 -0.1368  0.2479
 9555W        W29089  16.202  15.105   3.199  0.0867  0.1905 -0.0664
 9556W        W29090   9.467   0.465   3.685  0.0230  0.0204  0.1686
 9557W        W29091  10.565   3.364   4.502 -0.0073 -0.1093  0.0066
 9558W        W29092   7.971  10.099  13.624 -0.0917  0.1770 -0.2444
 9559W        W29093  16.128   1.063   0.933 -0.1266 -0.1021 -0.4697
 9560W        W29094   2.834  16.964  14.529  0.0287 -0.0188  0.3059
 9561W        W29095   1.495  12.180  14.726  0.1064 -0.1367 -0.1983
 9562W        W29096   2.723   2.965   2.044  0.2242 -0.2516 -0.3925
 9563W        W29097  12.490   7.354  13.055  0.0944  0.1337  0.2052
 9564W        W29098   7.270   3.246   0.475 -0.1350  0.0159  0.0223
 9565W        W29099   5.957   9.210   4.631 -0.1001 -0.3044  0.1474
 9566W        W29100   0.970   1.903   3.028 -0.2564 -0.3064 -0.3742
 9567W        W29101  13.778   5.430  11.964 -0.1371 -0.1201  0.0780
 9568W        W29102  16.339  13.255  14.463  0.0603  0.0509  0.0085
 9569W        W29103   6.757  15.245   2.128  0.2304  0.2052 -0.0993
 9570W        W29104  17.510   4.885   1.180  0.0325 -0.0892  0.1200
 9571W        W29105  16.011   7.561   1.959 -0.3782 -0.1133  0.3310
 9572W        W29106   6.594  17.004  13.026  0.0294 -0.1539 -0.2914
 9573W        W29107   7.264   9.454  14.680  0.2540  0.0554 -0.0648
 9574W        W29108   3.686   7.103   3.898  0.1553 -0.0573  0.1032
 9575W        W29109   3.209  14.337  14.483  0.4924 -0.2797  0.0097
 9576W        W29110   5.004   8.195  13.615 -0.1376 -0.1299 -0.0382
 9577W        W29111  11.215  16.798   3.670 -0.0259 -0.0251 -0.2241
 9578W        W29112   9.084   2.701  15.617 -0.0383 -0.2869 -0.2429
 9579W        W29113  13.884   8.306   4.298 -0.0357 -0.1631 -0.0005
 9580W        W29114   1.491   1.721   2.195 -0.1664  0.1561  0.1601
 9581W        W29115   8.819   0.724   4.886 -0.4453 -0.1093  0.0163
 9582W        W29116  15.884   0.316   4.927  0.1359 -0.1589 -0.2062
 9583W        W29117   6.607  14.306   0.898 -0.1889 -0.0326  0.1571
 9584W        W29118   2.235   4.486   2.412 -0.1243 -0.1029  0.0760
 9585W        W29119   2.327  12.841  15.482  0.1060  0.0297  0.1524
 9586W        W29120  10.384   3.372   1.797  0.0248  0.0967 -0.3082
 9587W        W29121  14.638   6.567   0.411  0.1317  0.0771  0.0333
 9588W        W29122  11.824   0.780   1.831  0.0451 -0.0810  0.0065
 9589W        W29123   5.774   3.708   4.443  0.0323 -0.1269  0.1292
 9590W        W29124   2.628  11.648   4.476 -0.2025 -0.3408  0.0904
 9591W        W29125  11.720  16.184  15.230  0.2413 -0.0448  0.1947
 9592W        W29126  11.262   9.469   2.182  0.2503  0.1709 -0.0927
 9593W        W29127  17.505  17.658   1.356  0.0033 -0.2037  0.2062
 9594W        W29128   1.035  14.110  15.881 -0.1622 -0.0830  0.0438
 9595W        W29129  10.258  15.791   1.667 -0.1394 -0.2272 -0.0386
 9596W        W29130   9.130  14.047   5.376  0.2872 -0.2211  0.1684
 9597W        W29131   9.035  15.605  12.541  0.0090 -0.2299  0.3074
 9598W        W29132  12.587  14.382  13.420  0.0119 -0.2438 -0.2445
 9599W        W29133   7.106   3.748  13.256  0.0941 -0.2368 -0.3218
 9600W        W29134  17.458   3.797   5.106  0.0565  0.3900  0.0220
 9601W        W29135  16.342   0.365  15.006  0.0562 -0.1434 -0.1288
 9602W        W29136  14.009  11.686  15.080  0.1328 -0.0657 -0.0955
 9603W        W29137   5.021  11.777   0.029  0.1716  0.1477  0.3304
 9604W        W29138   9.745   8.996   3.093 -0.0698  0.2171  0.2847
 9605W        W29139   6.864   7.958   0.212 -0.0456 -0.2358  0.0517
 9606W        W29140   1.534  10.145  14.140 -0.1316 -0.1141 -0.1611
 9607W        W29141  11.259   2.908  13.914 -0.1013  0.2486  0.0632
 9608W        W29142  15.360  10.755   5.043 -0.0172 -0.3017  0.0605
 9609W        W29143  13.101   2.203  14.321  0.1016  0.2869 -0.2905
 9610W        W29144  10.693   5.750   4.821  0.0369 -0.1412  0.0504
 9611W        W29145   6.712   5.292  12.647 -0.3734  0.0668 -0.2639
 9612W        W29146   5.400   2.328   2.583  0.0445 -0.1185 -0.3088
 9613W        W29147   9.679   6.763   2.810 -0.0737 -0.0852 -0.2873
 9614W        W29148  14.827  10.395   0.373 -0.0932 -0.1275  0.0162
 9615W        W29149  10.478  13.915   1.668  0.1202  0.2742  0.0124
 9616W        W29150  10.303  11.662   3.023 -0.1954  0.3132  0.1196
 9617W        W29151   9.882   6.148   4.619 -0.2283 -0.0049  0.0254
 9618W        W29152   2.176   0.230   2.769  0.0984 -0.0535 -0.0680
 9619W        W29153   9.901   9.359  15.552 -0.2864 -0.1048  0.1079
 9620W        W29154  10.260  14.209  11.316  0.0100 -0.3084  0.1603
 9621W        W29155   2.811   1.686  15.854  0.0403 -0.0679  0.1539
 9622W        W29156  15.249  17.258   5.203 -0.0096 -0.1675 -0.3503
 9623W        W29157   5.659   3.346   2.452 -0.3519 -0.2650 -0.0312
 9624W        W29158  13.568  11.149  12.407 -0.0725 -0.0371  0.5693
 9625W        W29159   1.991  11.759   4.023  0.1793  0.1288 -0.0309
 9626W        W29160   2.077  17.364   1.512 -0.3573 -0.3952  0.0635
 9627W        W29161   6.732   9.989   2.638  0.0226  0.1236 -0.0623
 9628W        W29162   7.398  13.260   2.200 -0.1395 -0.0715  0.2049
 9629W        W29163   8.520  16.724  14.486  0.0656 -0.1787  0.0839
 9630W        W29164   1.680   7.584  13.939  0.0572 -0.2550  0.0865
 9631W        W29165   3.126  15.459  15.300 -0.1494  0.0322  0.0291
 9632W        W29166  15.897   3.325  14.575 -0.2306 -0.1487 -0.0405
 9633W        W29167   0.221   2.924   3.338  0.4771  0.1701  0.0391
 9634W        W29168  11.728  11.269   1.939  0.2439  0.0754  0.1353
 9635W        W29169   5.089   0.396   1.822 -0.1117  0.1211 -0.0441
 9636W        W29170   2.068  15.120   0.332  0.1626  0.0775 -0.0925
 9637W        W29171   4.472  17.653   2.752  0.1040  0.0534  0.1193
 9638W        W29172   8.498  17.178   2.100  0.1559 -0.0284 -0.2290
 9639W        W29173   6.211  10.036   4.581  0.3346 -0.0552 -0.0798
 9640W        W29174   0.751   4.320  14.489 -0.1347  0.0761  0.1827
 9641W        W29175   2.226  12.977  16.052 -0.1615 -0.2006  0.1250
 9642W        W29176   2.705   7.414  12.916  0.0507  0.1709 -0.3049
 9643W        W29177   4.040  15.955  14.203  0.0564  0.2833 -0.1562
 9644W        W29178  12.208   6.456   3.613 -0.0036 -0.0333 -0.1917
 9645W        W29179  14.478   5.183  12.486  0.0914  0.1764 -0.2707
 9646W        W29180  11.154  17.660  13.853  0.3516 -0.1845  0.1139
 9647W        W29181   4.585   1.344  13.791  0.1488  0.2871 -0.0411
 9648W        W29182  17.277   2.112   4.987  0.0678 -0.3686 -0.1312
 9649W        W29183   3.776   4.320  13.823  0.2339 -0.1293 -0.1641
 9650W        W29184   2.200   8.147   1.986  0.0959 -0.1567  0.0991
 9651W        W29185   8.982  12.236   3.158 -0.1544 -0.0023  0.3116
 9652W        W29186   8.686  15.867  14.093  0.1721 -0.0030 -0.1332
 9653W        W29187   2.614   7.324  13.852 -0.1584 -0.0514 -0.1268
 9654W        W29188  12.677  15.776  13.640 -0.1380  0.0251 -0.1825
 9655W        W29189   8.997   2.171  16.390  0.1613  0.1546  0.0021
 9656W        W29190   9.875  12.125   1.513  0.0321 -0.1818 -0.0024
 9657W        W29191   1.666  13.967   4.601  0.2515 -0.3193 -0.1204
 9658W        W29192  16.713   7.065   0.998  0.1897 -0.0636 -0.0845
 9659W        W29193  12.294   9.896  12.282  0.2348  0.1904  0.1072
 9660W        W29194  13.984  16.907  15.922  0.0264 -0.1652  0.3050
 9661W        W29195   2.600  12.119   2.501 -0.0340  0.0395  0.2577
 9662W        W29196   6.521   2.139   1.227 -0.1560  0.0836  0.1403
 9663W        W29197   1.068  13.234   0.793 -0.0484  0.2198 -0.3152
 9664W        W29198   1.059   1.593   0.534  0.0276 -0.0173  0.2240
 9665W        W29199   2.385   5.937   3.459 -0.1211  0.2652  0.0928
 9666W        W29200   6.244   0.415   3.393 -0.1916 -0.2519 -0.2888
 9667W        W29201  13.850  17.329  14.008  0.0638 -0.2951 -0.2848
 9668W        W29202  11.395   5.968  16.826 -0.3745  0.0398 -0.1920
 9669W        W29203  15.529  10.262  13.640  0.2556 -0.0820  0.3904
 9670W        W29204   6.778  12.976   0.941 -0.0858  0.2193  0.2630
 9671W        W29205  10.333   8.590  14.470 -0.0086  0.0609 -0.1410
 9672W        W29206  10.672  15.525   1.833 -0.0233  0.1778  0.3255
 9673W        W29207  15.225   4.457  13.844  0.2537 -0.2455 -0.2535
 9674W        W29208  12.226   2.345   3.377  0.1941  0.0499 -0.1069
 9675W        W29209   2.691   0.757   0.168  0.2154  0.0720  0.1387
 9676W        W29210   3.383   1.576  11.278 -0.0770 -0.1882 -0.2176
 9677W        W29211   9.357   9.519   3.497 -0.2494 -0.1469  0.1958
 9678W        W29212   5.307  13.112   2.435 -0.0562 -0.0738  0.1179
 9679W        W29213  17.563  13.846  15.492 -0.1063 -0.1984 -0.0905
 9680W        W29214  17.461  16.564   0.357 -0.0475 -0.1198  0.0673
 9681W        W29215  12.211  15.176   1.482 -0.2570 -0.1346 -0.2545
 9682W        W29216  14.275   0.175   0.521  0.0581 -0.2178  0.1421
 9683W        W29217  11.908  10.424  15.091 -0.0092 -0.0587 -0.0926
 9684W        W29218  14.264   3.532   4.593 -0.1214 -0.1444 -0.1691
 9685W        W29219   8.733   7.567  16.670 -0.0779 -0.2028  0.0638
 9686W        W29220   9.063   4.117   1.616 -0.0115 -0.0485  0.2118
 9687W        W29221  16.631  10.400   0.568 -0.0904 -0.3109  0.0000
 9688W        W29222  15.267   6.463  12.913  0.1560  0.0469 -0.1092
 9689W        W29223   7.800   4.391  16.095  0.0707 -0.3690 -0.3732
 9690W        W29224   3.175  15.829  12.834  0.0265  0.1750  0.1272
 9691W        W29225  10.240  14.123   3.012 -0.0624  0.0075 -0.2892
 9692W        W29226   4.891  17.124   5.435 -0.2113 -0.0295 -0.1211
 9693W        W29227   2.152   5.758  16.910  0.0555 -0.0500 -0.0072
 9694W        W29228  10.187   7.319   4.847  0.2345 -0.2985  0.3330
 9695W        W29229  11.536   6.406   0.586 -0.0712  0.1564 -0.2880
 9696W        W29230   4.089   0.339  15.126 -0.0792 -0.0955 -0.3850
 9697W        W29231   4.177   5.968   0.966  0.0012  0.1831  0.1817
 9698W        W29232  14.513   8.824   4.781 -0.0607 -0.2979 -0.0960
 9699W        W29233   7.169   8.959   3.427 -0.3855  0.0971  0.3008
 9700W        W29234   0.612  16.925  13.996 -0.1298  0.1818  0.2494
 9701W        W29235   4.263   0.332   2.372  0.1682 -0.0391 -0.0529
 9702W        W29236   3.313  13.839  14.242 -0.2925 -0.2788  0.1855
 9703W        W29237   9.136   5.661   3.090 -0.0042 -0.1116  0.4072
 9704W        W29238  13.757   6.682  13.112  0.3336  0.0154  0.0452
 9705W        W29239  11.048  14.969  14.248  0.2205  0.0200  0.1325
 9706W        W29240  12.148   8.245  15.482 -0.0930  0.2622  0.0314
 9707W        W29241   3.088  16.601   3.725  0.0950  0.0568  0.0979
 9708W        W29242  11.817  11.648   3.398 -0.0695 -0.1786 -0.1482
 9709W        W29243  13.186   9.464  13.359 -0.1395  0.1898  0.2598
 9710W        W29244   0.463  15.081  16.458  0.1614 -0.0650  0.0921
 9711W        W29245  16.134   4.729  14.184 -0.2340 -0.1176  0.1359
 9712W        W29246  13.528  15.904   1.413  0.0973  0.2832  0.0128
 9713W        W29247   8.767   4.294  15.907  0.2515  0.0283 -0.0002
 9714W        W29248  16.844  11.691  12.384 -0.0867 -0.0382 -0.3743
 9715W        W29249  12.969   9.373   4.128  0.0797 -0.1584  0.3376
 9716W        W29250  10.330  12.488  16.834 -0.3542 -0.2881 -0.1919
 9717W        W29251   5.873  10.256  12.268 -0.1655 -0.1129 -0.1682
 9718W        W29252   3.529   2.330   1.848 -0.2251 -0.2436 -0.3413
 9719W        W29253   6.968  17.095  16.875  0.2185 -0.1260  0.0125
 9720W        W29254  14.410   8.723  11.646 -0.2039 -0.3205 -0.4105
 9721W        W29255  17.614   5.057   4.372  0.1552 -0.2221  0.1571
 9722W        W29256   1.385  15.181   0.043  0.3189  0.3731 -0.1095
 9723W        W29257   7.864  17.442  14.067  0.2633 -0.1175  0.1624
 9724W        W29258  16.444   2.769   4.736 -0.1243  0.2617  0.2168
 9725W        W29259   0.129  12.709  12.299  0.1846 -0.0233  0.0003
 9726W        W29260  14.840   5.784  16.122  0.0850  0.0777 -0.0567
 9727W        W29261   4.207  14.757  15.295 -0.2915 -0.3647  0.2605
 9728W        W29262  12.685  15.888   2.910 -0.4056 -0.1192 -0.0246
 9729W        W29263   5.920   6.411  16.749  0.0004 -0.1673  0.0921
 9730W        W29264   0.027  16.222   1.974 -0.0731 -0.0813  0.2918
 9731W        W29265   8.044   8.486   0.640  0.0362  0.3216 -0.2268
 9732W        W29266   7.373  13.543   5.177 -0.0850  0.0008  0.0441
 9733W        W29267  11.284   2.710  12.033 -0.0318  0.2919  0.0813
 9734W        W29268  11.526   5.276  12.231  0.1532 -0.2513  0.0611
 9735W        W29269   8.119  11.474   4.910 -0.0171 -0.2237 -0.0732
 9736W        W29270  14.630  13.560   2.408 -0.0036  0.0943 -0.2783
 9737W        W29271   2.714   9.478   2.823  0.0666 -0.1808 -0.1837
 9738W        W29272   2.772   5.752   0.707 -0.1866  0.1565 -0.0906
 9739W        W29273  12.413   0.140   3.870  0.0842 -0.0897 -0.0184
 9740W        W29274   4.491  13.010  14.184 -0.2139 -0.2312 -0.0597
 9741W        W29275   0.868   9.831   1.245  0.0098 -0.2558 -0.0104
 9742W        W29276  15.482  16.243   3.100  0.1254  0.0651 -0.2223
 9743W        W29277  17.323   7.962  12.207  0.0851  0.2767 -0.1885
 9744W        W29278   4.455   6.678  13.953 -0.1518  0.1379  0.0562
 9745W        W29279   6.592   2.578  11.985  0.0989  0.0442  0.3318
 9746W        W29280  11.804   0.281  14.457 -0.1509  0.1578 -0.0793
 9747W        W29281   2.248   8.583  14.165 -0.0188 -0.1335  0.1418
 9748W        W29282   6.908   3.280   3.515  0.0630 -0.1008 -0.0746
 9749W        W29283  15.608   3.356   4.934  0.3367 -0.1020 -0.1601
 9750W        W29284   4.829   3.684  15.293 -0.0285  0.1283  0.2579
 9751W        W29285   2.221   9.074  15.353  0.0084  0.4023 -0.1412
 9752W        W29286   9.590  11.737   3.356 -0.0744  0.2180  0.0622
 9753W        W29287  12.984  16.910   2.665  0.2455  0.1829 -0.0715
 9754W        W29288   7.371  14.794  16.624  0.2981  0.0252  0.0405
 9755W        W29289  13.443   1.356  12.979  0.0396 -0.0698  0.0455
 9756W        W29290   1.381  14.044  14.764 -0.0883 -0.2072  0.1656
 9757W        W29291   5.637   2.680   0.829 -0.1000  0.1270 -0.0443
 9758W        W29292  15.040  13.163   4.005  0.0609 -0.1424  0.0187
 9759W        W29293   7.163   0.233   5.107  0.1147 -0.0892 -0.5129
 9760W        W29294  15.678   8.774   0.963  0.1680  0.0478  0.1430
 9761W        W29295  15.925   4.397   0.362 -0.0172 -0.0492 -0.0157
 9762W        W29296  14.715   1.040  15.619 -0.0828 -0.1409  0.3174
 9763W        W29297   1.609   3.509   3.565  0.1698 -0.1702 -0.2929
 9764W        W29298   3.074   6.704  12.456 -0.0732  0.1475 -0.0686
 9765W        W29299   4.344   8.740   3.000  0.1959 -0.1535 -0.1008
 9766W        W29300  11.867  13.686  13.385 -0.2155  0.1302 -0.1706
 9767W        W29301   7.392   0.973  13.682 -0.0210 -0.0196 -0.1496
 9768W        W29302   7.593  14.148   2.269  0.0231 -0.1177  0.0372
 9769W        W29303  17.350   5.844   4.406  0.2205  0.0509  0.0779
 9770W        W29304  10.216  14.518  14.699 -0.1698  0.3096 -0.0975
 9771W        W29305  15.031   3.586  13.821  0.3378 -0.1646 -0.2868
 9772W        W29306   9.619  14.901  12.502  0.0345 -0.0070  0.3879
 9773W        W29307  13.438   3.074   4.690  0.2339 -0.3561  0.1586
 9774W        W29308  16.351  15.125  13.155 -0.3861  0.3649 -0.0900
 9775W        W29309   1.028  10.041  13.254  0.0186 -0.2272 -0.0548
 9776W        W29310   1.722   5.730  13.877 -0.1485  0.0793  0.4908
 9777W        W29311  16.562  16.212   0.992 -0.0074 -0.0801  0.1806
 9778W        W29312  17.545  14.945   3.305 -0.2409 -0.0825  0.0046
 9779W        W29313  16.422   3.851  12.621  0.0889  0.2585 -0.0715
 9780W        W29314  11.275  11.515   0.034 -0.1103 -0.0198 -0.1410
 9781W        W29315   3.337   3.993  16.336  0.0397 -0.0411 -0.0921
 9782W        W29316  14.109   6.320  14.333  0.0484  0.0333 -0.0543
 9783W        W29317   6.886  10.016  13.181 -0.0056  0.0578  0.0145
 9784W        W29318   6.940   0.903  13.037 -0.0305  0.0686  0.2117
 9785W        W29319  12.042  14.350  14.910  0.0807 -0.0783 -0.0360
 9786W        W29320   1.653   0.209   2.713  0.1502  0.4467 -0.2191
 9787W        W29321   6.411   4.666   4.970  0.1245 -0.0115 -0.0322
 9788W        W29322  14.534  15.046  13.058 -0.0598  0.5384  0.0170
 9789W        W29323   3.144  15.441   2.647 -0.0329 -0.0203  0.1585
 9790W        W29324   7.231   8.765  13.692  0.0353  0.0613  0.2025
 9791W        W29325   2.975   7.192   2.667 -0.0677 -0.0182 -0.2778
 9792W        W29326  11.704  15.691  13.644 -0.1032 -0.2863 -0.0648
 9793W        W29327  10.455  17.343   4.179 -0.2128 -0.1046  0.0831
 9794W        W29328  15.077  11.477   4.678  0.0310  0.5084 -0.1838
 9795W        W29329  16.060   4.155  11.532  0.0601  0.0910  0.0552
 9796W        W29330   6.524   1.274   4.772 -0.0718  0.1900  0.1464
 9797W        W29331  11.759   7.449   0.031 -0.1250  0.1608  0.0515
 9798W        W29332  11.639   1.068  13.255  0.2377 -0.0096 -0.0217
 9799W        W29333   2.751  12.580  15.608 -0.1921 -0.0126 -0.1304
 9800W        W29334  15.872  13.441   1.685  0.0089  0.1155  0.0349
 9801W        W29335  12.439   4.628   1.670  0.2298 -0.2859 -0.1512
 9802W        W29336   9.864  12.026  14.535 -0.1662 -0.0876 -0.1108
 9803W        W29337   0.558  10.242  13.081  0.0973  0.4110 -0.0026
 9804W        W29338  10.001  11.333   4.392  0.2285 -0.2246  0.1647
 9805W        W29339   1.640  12.425  16.018 -0.1578 -0.0315 -0.1935
 9806W        W29340  10.604   9.375   2.965 -0.1305  0.2316  0.4413
 9807W        W29341   9.513   4.543   3.623  0.0665  0.1553 -0.2731
 9808W        W29342   5.244  16.032  15.995  0.1346  0.1432  0.1393
 9809W        W29343   7.794  16.225   5.123  0.2612 -0.1050  0.1274
 9810W        W29344  11.508   7.010   0.022  0.2760 -0.0239 -0.1542
 9811W        W29345   0.355   6.579   4.398 -0.4108  0.0456 -0.1331
 9812W        W29346  11.312  17.391  16.554 -0.0465  0.0494 -0.2121
 9813W        W29347  15.457  11.008   0.425  0.2891  0.0531  0.0949
 9814W        W29348   0.397   9.532  12.794  0.1245  0.1208 -0.0169
 9815W        W29349  15.667   5.423   2.438 -0.4796 -0.1252  0.0463
 9816W        W29350   1.086  14.776   4.234 -0.0935 -0.1646 -0.2379
 9817W        W29351   2.001  15.764   5.191 -0.1306  0.1212  0.1441
 9818W        W29352   9.241   7.246   4.538  0.0451  0.1370 -0.0438
 9819W        W29353  12.663   0.122  14.612  0.1530  0.0080  0.1292
 9820W        W29354   5.807  15.237  15.835 -0.0529  0.1449  0.0102
 9821W        W29355  12.046   5.923  16.278 -0.3249  0.1056 -0.1650
 9822W        W29356   7.790  11.675   1.720  0.1071 -0.0112  0.0316
 9823W        W29357  11.565   7.573   4.923  0.1178  0.0060 -0.0308
 9824W        W29358   7.217   0.768   0.773 -0.0575  0.0491  0.2877
 9825W        W29359  17.251  10.043  13.301  0.3461  0.1811  0.0481
 9826W        W29360  15.560  12.086  13.113  0.2065  0.2019  0.0086
 9827W        W29361  12.022  15.743   4.696 -0.0208 -0.1826  0.1717
 9828W        W29362   5.039   2.002   2.549 -0.0686 -0.0939  0.3850
 9829W        W29363   2.911   8.652   3.493 -0.2529 -0.1971  0.4442
 9830W        W29364  15.502   8.514  16.420 -0.1031  0.0413 -0.1673
 9831W        W29365   1.012   4.435  15.119  0.0357 -0.3033 -0.0070
 9832W        W29366  11.538   7.518  13.313 -0.3169  0.1262 -0.0480
 9833W        W29367   0.791   0.658  12.775  0.2262  0.3133 -0.3988
 9834W        W29368   6.796   9.195  16.635  0.0160  0.0546 -0.2352
 9835W        W29369   7.247   4.751   2.320 -0.2914  0.2016 -0.0620
 9836W        W29370  12.296  15.413   3.781  0.0834  0.2796  0.2590
 9837W        W29371  12.281   6.051   1.041  0.0435  0.0791  0.0329
 9838W        W29372   4.984   5.823   0.469  0.1681  0.0282 -0.0320
 9839W        W29373   1.844   8.310   4.524  0.2624  0.1923 -0.0620
 9840W        W29374  17.419  13.288  13.635 -0.0459 -0.0196 -0.1516
 9841W        W29375   0.892   7.392  15.575  0.0339  0.1344  0.0861
 9842W        W29376   9.914   4.904   4.188  0.0867 -0.0152 -0.1314
 9843W        W29377  13.334   5.533  15.933 -0.1489  0.0221 -0.2730
 9844W        W29378  11.660   3.232   1.596  0.1158  0.0507 -0.1350
 9845W        W29379   5.244   6.909  16.832  0.0365  0.2678 -0.1198
 9846W        W29380  13.759   5.190  13.559  0.0429 -0.1188 -0.0175
 9847W        W29381   9.322   3.429   1.535  0.3223  0.3378  0.0572
 9848W        W29382   0.079   6.434  15.257 -0.0330 -0.1875  0.4032
 9849W        W29383   7.381  16.542   0.733  0.1566  0.0543 -0.0229
 9850W        W29384   1.331  16.586  12.569 -0.0818  0.1343  0.0561
 9851W        W29385   0.828   2.040   4.254  0.1521  0.0870 -0.0916
 9852W        W29386   5.022   2.672   2.512 -0.1137  0.0941 -0.1599
 9853W        W29387  16.211  16.047   4.804  0.2819 -0.0674 -0.0678
 9854W        W29388  15.133  10.969  13.709  0.0998  0.1793 -0.0407
 9855W        W29389   9.629   3.706  16.756 -0.0128 -0.0178 -0.1534
 9856W        W29390  13.513  10.797   3.545  0.0219  0.0510  0.0184
 9857W        W29391   9.460  14.873  15.338 -0.2387 -0.0673 -0.1294
 9858W        W29392   3.943  14.301  16.359  0.1681 -0.0598  0.0221
 9859W        W29393   7.958  11.158  12.089 -0.1863 -0.1440  0.5329
 9860W        W29394   3.587  11.244  12.136  0.0682  0.1507  0.1040
 9861W        W29395   6.244  16.099   2.377 -0.1504  0.2894  0.0817
 9862W        W29396   3.973   6.393   3.984  0.1463  0.1720  0.1634
 9863W        W29397  14.058   7.127   3.692  0.0174 -0.2478 -0.1714
 9864W        W29398   9.216   8.595  12.424  0.2130  0.0961 -0.0888
 9865W        W29399   5.348  16.566  16.157  0.0445  0.2790  0.2532
 9866W        W29400   5.905  16.056   3.733  0.0981  0.2697  0.3052
 9867W        W29401   4.221   9.495   1.499 -0.1126  0.0740  0.1311
 9868W        W29402  15.369   4.016   6.021 -0.1883 -0.0041 -0.2351
 9869W        W29403  14.157   8.370   2.538  0.3128 -0.0934  0.0144
 9870W        W29404  14.702   6.771  14.760 -0.1972  0.3621 -0.1974
 9871W        W29405   6.771   7.388   1.005  0.2708  0.4186  0.1883
 9872W        W29406  11.407   9.603  15.335  0.0030  0.0375 -0.1210
 9873W        W29407   3.016  14.559   1.797 -0.1876 -0.0446 -0.1181
 9874W        W29408  12.442   7.290  13.610  0.0821  0.0849 -0.0138
 9875W        W29409   1.699   6.049  16.009  0.2447  0.1878  0.1751
 9876W        W29410   0.725   3.946  14.097 -0.2215  0.3192  0.1073
 9877W        W29411   1.235   6.137  13.301  0.3003  0.1522 -0.0952
 9878W        W29412   5.814   2.206   0.609 -0.0133 -0.0880 -0.0555
 9879W        W29413   8.503   7.780  15.952  0.3750 -0.1486 -0.1502
 9880W        W29414  14.152   5.399  12.858  0.2047  0.3978  0.0822
 9881W        W29415   1.508   2.565  13.606 -0.1537 -0.3602  0.1286
 9882W        W29416  15.684   8.860   4.087 -0.0636  0.3051  0.3362
 9883W        W29417   9.897   5.656  12.865  0.0014 -0.2231  0.1468
 9884W        W29418   5.908  12.349  12.026  0.1725 -0.1693  0.0795
 9885W        W29419  14.502  15.807   4.588  0.0725 -0.1232  0.0915
 9886W        W29420  15.246  13.336   1.233 -0.1474  0.1012 -0.2359
 9887W        W29421   2.106  14.403  13.124 -0.0714  0.0704 -0.2064
 9888W        W29422   2.625  16.315   3.219  0.0462 -0.0347 -0.1019
 9889W        W29423  16.240  12.996   0.158  0.2225  0.0784 -0.1509
 9890W        W29424  17.057  15.218  13.868 -0.0589 -0.1220  0.0375
 9891W        W29425  15.726   1.839  16.861  0.2673 -0.0458 -0.0483
 9892W        W29426   6.110   2.423  14.487  0.0633 -0.0026 -0.1037
 9893W        W29427   8.216   3.229  15.255  0.1415 -0.0080  0.0303
 9894W        W29428   8.412   7.255  14.924  0.1897 -0.0842  0.1823
 9895W        W29429  10.693  16.614   3.822 -0.1269  0.1205  0.3698
 9896W        W29430   4.016   0.801   4.073 -0.0952  0.1558  0.0936
 9897W        W29431  13.637  16.741  12.902  0.2013  0.1768  0.1742
 9898W        W29432   7.609   4.854   1.716 -0.1751  0.2302 -0.0945
 9899W        W29433   8.752  12.814  14.288 -0.2526  0.1170 -0.4187
 9900W        W29434  13.651   2.721   2.313  0.1784  0.0133  0.0295
 9901W        W29435  13.474  10.700  13.353  0.0553 -0.1564 -0.2718
 9902W        W29436   8.930  13.555  16.495  0.0963  0.0203 -0.0499
 9903W        W29437   2.974   3.785  15.897 -0.1935  0.2282  0.0745
 9904W        W29438   6.665   9.406   4.044 -0.3280 -0.1521 -0.3392
 9905W        W29439  16.397  12.590  16.870  0.0474  0.2409 -0.0874
 9906W        W29440   2.981  14.698   1.319 -0.3649  0.2241  0.2160
 9907W        W29441  17.337   6.058  11.790 -0.2301 -0.0249  0.1456
 9908W        W29442   5.199   8.472  12.000  0.1078 -0.0638 -0.1452
 9909W        W29443  14.155  16.484  14.450 -0.1074 -0.0936  0.2572
 9910W        W29444   2.261   6.190  15.281  0.0775  0.2072  0.2577
 9911W        W29445  15.921  13.762   0.355 -0.3656  0.2272 -0.0632
 9912W        W29446   9.377  15.501   4.098  0.2698  0.1618 -0.2413
 9913W        W29447  11.814  11.182   2.486  0.2748 -0.0039 -0.0943
 9914W        W29448   0.837   2.783  16.057 -0.0103  0.2456 -0.2006
 9915W        W29449   3.857  13.859   2.377  0.0087  0.0150 -0.0196
 9916W        W29450  15.412   8.454   3.291 -0.0742 -0.3842 -0.3007
 9917W        W29451  12.465  15.879  12.732  0.0138 -0.3097 -0.1773
 9918W        W29452  11.874   9.758  15.870  0.0333  0.2641 -0.1671
 9919W        W29453  11.765   3.657  13.587  0.2363 -0.2791 -0.1081
 9920W        W29454   1.665  10.587   3.023  0.1652  0.1626 -0.1483
 9921W        W29455  11.299  16.379   2.260 -0.1366  0.1558  0.2288
 9922W        W29456   8.249  16.386   3.058  0.1240 -0.1253  0.0813
 9923W        W29457  12.423  11.838  16.161  0.3265 -0.0227  0.0476
 9924W        W29458  10.549   4.686  13.238 -0.1921  0.0814  0.0214
 9925W        W29459  15.965   4.141   4.964  0.3705 -0.2395 -0.0124
 9926W        W29460  11.735   5.069  13.483  0.2025 -0.0606 -0.1553
 9927W        W29461  17.478   7.733  15.264 -0.2482 -0.1109  0.0068
 9928W        W29462   4.777   2.684  16.308  0.1599 -0.0165 -0.1344
 9929W        W29463  13.024   7.292  15.909  0.1532 -0.0196 -0.0458
 9930W        W29464   8.014  15.680  16.526  0.0125  0.3426  0.0759
 9931W        W29465   5.406  14.709  13.406 -0.2734 -0.2343  0.2737
 9932W        W29466   3.980   6.591  14.078  0.1851 -0.2015  0.0911
 9933W        W29467   8.863   8.052   4.348 -0.2325 -0.2069 -0.0888
 9934W        W29468  17.156  12.971   0.226  0.0639 -0.1178  0.0082
 9935W        W29469   7.485   4.587  16.437 -0.1546 -0.0336  0.0106
 9936W        W29470   1.088  12.341  12.312 -0.1056 -0.1658 -0.1386
 9937W        W29471  12.887   5.479  12.337  0.1428  0.1294 -0.0338
 9938W        W29472  14.454  16.791   4.286  0.0402 -0.2956  0.1246
 9939W        W29473   0.223  17.632  14.271 -0.2108 -0.2494  0.1089
 9940W        W29474  12.280  17.264  16.549  0.1249  0.1167 -0.1981
 9941W        W29475   2.915  14.674  12.326  0.1683 -0.3089  0.0103
 9942W        W29476   5.320   1.172  16.698 -0.2490  0.2609 -0.2629
 9943W        W29477   8.202   0.133  13.883 -0.2265  0.1678 -0.1464
 9944W        W29478  15.623   6.450  12.086  0.0887 -0.0792  0.0612
 9945W        W29479   8.561   5.499   1.143 -0.2261  0.1294 -0.2592
 9946W        W29480   7.982  14.047  15.775 -0.0302  0.1088 -0.0035
 9947W        W29481  10.324  10.548  15.750  0.1788 -0.0714 -0.3388
 9948W        W29482   5.168   2.446  16.490  0.2956  0.2857  0.0062
 9949W        W29483  10.509   1.219   1.036  0.1406  0.0322 -0.1659
 9950W        W29484  16.642  11.183   2.296  0.1149 -0.0354 -0.0416
 9951W        W29485  10.251  14.030  14.585 -0.0356  0.1120  0.1349
 9952W        W29486   3.570   5.462   3.239 -0.1669  0.3190  0.1067
 9953W        W29487   0.950  15.254   4.020 -0.0146 -0.3200  0.4484
 9954W        W29488  13.834  15.984  14.438 -0.3216 -0.1118  0.3381
 9955W        W29489  13.194   5.391  15.465  0.0180  0.1233 -0.1874
 9956W        W29490  12.636  15.593  13.147  0.1786  0.2418 -0.1820
 9957W        W29491  11.332   7.870  16.910 -0.2665 -0.2149 -0.3055
 9958W        W29492  13.935   2.383   2.654  0.2409 -0.0376  0.0547
 9959W        W29493   6.361  14.533  13.359  0.0207  0.0676 -0.0384
 9960W        W29494   1.435  14.817   0.952  0.0329  0.3678 -0.3197
 9961W        W29495  14.054   9.257  16.355  0.0056  0.3291 -0.1008
 9962W        W29496  12.026   8.762  16.667  0.0876 -0.0294  0.0230
 9963W        W29497   1.614  10.846  16.858 -0.0288  0.1025 -0.2264
 9964W        W29498  15.733   8.167   4.670  0.3280  0.2120  0.1051
 9965W        W29499  13.612  15.725   4.719  0.0874  0.0889 -0.1340
 9966W        W29500  16.416  11.700  13.106 -0.0567  0.1963 -0.2667
 9967W        W29501   3.005  12.032   2.909  0.1231  0.0414  0.2374
 9968W        W29502   4.359   1.976  14.478 -0.1619 -0.1751  0.1189
 9969W        W29503  17.022  17.665   1.164  0.1575  0.0072  0.0370
 9970W        W29504  17.420  16.466   2.783 -0.1798 -0.0527 -0.2243
 9971W        W29505   3.466  10.825  12.488  0.3279 -0.1553 -0.0899
 9972W        W29506  10.967   6.987   1.877 -0.0021  0.0588 -0.0268
 9973W        W29507  15.626   2.746   4.246 -0.1725  0.1669  0.0102
 9974W        W29508  15.074   4.355  13.344  0.0070 -0.0777 -0.2027
 9975W        W29509   4.742   4.359  16.182 -0.0417  0.0052  0.0872
 9976W        W29510   5.364   8.163  15.842 -0.0821 -0.1675 -0.1227
 9977W        W29511   5.051   6.193   2.939 -0.2020  0.1749 -0.2919
 9978W        W29512   4.568  13.307   2.632  0.1157  0.0773  0.1136
 9979W        W29513   6.733   5.379  14.669 -0.1264 -0.0019 -0.2231
 9980W        W29514   2.602  11.620  15.476 -0.1514  0.0469  0.1759
 9981W        W29515  17.514  12.048   5.883 -0.0194  0.4224 -0.1570
 9982W        W29516  13.801   1.785   2.328  0.2310 -0.0269  0.0641
 9983W        W29517  16.873  14.858  16.673  0.1715 -0.2247  0.0255
 9984W        W29518   6.291  17.100  13.894 -0.0382 -0.1061 -0.2495
 9985W        W29519  14.834   2.691   2.018 -0.2259 -0.0220 -0.0753
 9986W        W29520  11.934   8.860  16.164 -0.0437 -0.2887  0.1077
 9987W        W29521  12.606  16.875   1.417 -0.2054  0.1306 -0.0175
 9988W        W29522  16.768  14.681   4.828 -0.1143  0.0132 -0.0956
 9989W        W29523   4.863  12.747  12.810 -0.1778 -0.1156 -0.0406
 9990W        W29524   6.378  11.981  11.859 -0.1367 -0.0012 -0.3280
 9991W        W29525  15.771   7.617   4.612 -0.0510  0.5199 -0.0754
 9992W        W29526  15.778   4.560   3.107  0.1732  0.0995  0.2818
 9993W        W29527   4.513   8.099   1.603  0.0130  0.0035  0.2101
 9994W        W29528   5.648  14.028  13.125 -0.0502  0.4271 -0.1245
 9995W        W29529  13.748   6.171   3.555  0.0396 -0.0637 -0.0256
 9996W        W29530   0.099  11.806  14.917 -0.2177  0.1870 -0.0953
 9997W        W29531   8.662  15.301  12.444 -0.1557 -0.0098 -0.0643
 9998W        W29532   8.710   5.634  12.505 -0.0704  0.3092  0.2641
 9999W        W29533   6.204  15.642  16.157  0.2010  0.1186  0.0158
10000W        W29534  10.603   4.880   0.349 -0.2382  0.0590 -0.1191
10001W        W29535   8.485  12.701  13.611 -0.0541  0.0567  0.1466
10002W        W29536  15.274   4.605   3.101 -0.1633 -0.0495  0.1007
10003W        W29537  14.077   7.402   3.035  0.1030  0.0412 -0.1852
10004W        W29538   1.851  13.390  16.451  0.0622  0.1205  0.0468
10005W        W29539   2.147  15.711  14.501  0.2920  0.0491 -0.0740
10006W        W29540   5.522   3.204   2.936  0.0348 -0.2581  0.0359
10007W        W29541   7.472   7.628   1.989  0.2805 -0.3008 -0.1703
10008W        W29542   7.094   2.119   2.835 -0.5681 -0.0181  0.0075
10009W        W29543   3.086   2.380  15.488 -0.0926  0.2336 -0.1601
10010W        W29544   8.609  16.749   3.090  0.3239  0.0653 -0.0460
10011W        W29545  17.470   4.813  12.201 -0.0159 -0.3588 -0.0162
10012W        W29546   6.856  11.863  14.428  0.2920 -0.2601  0.1786
10013W        W29547   4.356   8.551   0.300 -0.1927  0.2045 -0.3271
10014W        W29548   6.828   4.542  14.746  0.0084  0.1793  0.0901
10015W        W29549  10.696   4.330  14.042  0.2087  0.0024  0.3421
10016W        W29550   1.194  12.783   3.374  0.2546  0.0453  0.2822
10017W        W29551  12.865  16.844   0.305 -0.0128 -0.2165 -0.1726
10018W        W29552   6.400   7.695  13.480 -0.0709 -0.1310  0.0326
10019W        W29553  15.924  14.690   4.078 -0.3507 -0.0106 -0.1031
10020W        W29554  17.069   6.207   3.156  0.0453  0.1214 -0.0871
10021W        W29555  12.530   4.127  16.308  0.0640 -0.0147 -0.0740
10022W        W29556   0.108  10.235   1.963  0.0536  0.2161 -0.0753
10023W        W29557   7.995   2.957   5.047  0.0894  0.2778  0.1462
10024W        W29558   3.934   4.756  15.699  0.1929  0.0640  0.3731
10025W        W29559   3.619  16.147   2.799 -0.0720  0.0413  0.0631
10026W        W29560   6.911  15.882  12.558 -0.2614  0.1162  0.0303
10027W        W29561  14.503  14.951  15.378  0.0743 -0.0765 -0.2614
10028W        W29562  14.268   2.188   4.434 -0.0577  0.2077  0.2703
10029W        W29563   4.535   9.688  12.955  0.2087 -0.0147 -0.1706
10030W        W29564  14.266   0.849   1.116  0.3960 -0.1286 -0.0248
10031W        W29565   8.528  11.920  16.094  0.0260 -0.0205 -0.4065
10032W        W29566   1.386   1.115   2.970 -0.1485 -0.0609 -0.3643
10033W        W29567  10.821   3.151  15.149  0.1773 -0.1607 -0.0778
10034W        W29568  10.123   3.042  15.930  0.1189 -0.0828 -0.1031
10035W        W29569   5.997  15.763  12.743  0.3568  0.2304 -0.0616
10036W        W29570  11.260   6.122   0.914 -0.1784 -0.0363 -0.3139
10037W        W29571  14.942  11.295  14.622 -0.0039 -0.0116 -0.1568
10038W        W29572  15.244   1.878  16.788  0.2241  0.1737 -0.0870
10039W        W29573  13.666   8.680  16.713  0.0895  0.1166  0.1229
10040W        W29574   2.945  14.968  14.733 -0.2011 -0.1450  0.2778
10041W        W29575  13.381  13.365   5.004  0.1188 -0.2595  0.3480
10042W        W29576   7.940  17.305  13.199 -0.4432  0.2071 -0.1007
10043W        W29577  10.027   8.185   3.915 -0.1339  0.0779 -0.0238
10044W        W29578  12.994   2.247   2.289  0.0599 -0.0776  0.3025
10045W        W29579   5.528  11.755  14.941 -0.3095  0.2769  0.0063
10046W        W29580   9.953  14.719  15.112  0.0689  0.0558 -0.0519
10047W        W29581   5.660   5.278   0.854 -0.1041 -0.3729  0.2145
10048W        W29582   6.553   3.743   1.648  0.1415 -0.0615 -0.0193
10049W        W29583  17.112   1.381  13.968  0.0593  0.0392  0.0480
10050W        W29584   5.220  11.726  16.235  0.0515  0.0741 -0.1886
10051W        W29585   3.353  14.176   1.862  0.0137 -0.1673 -0.0031
10052W        W29586   4.944  15.489   4.237 -0.1259 -0.0421  0.0929
10053W        W29587  12.894  15.234   0.922 -0.1431 -0.0532  0.1268
10054W        W29588   6.436   3.864   2.125  0.0765  0.0747  0.3690
10055W        W29589  10.457  14.513  15.130 -0.1538 -0.0735 -0.2441
10056W        W29590   4.325   5.443  15.155  0.0553  0.2314  0.0435
10057W        W29591   4.995   4.922  16.773  0.1360  0.5441 -0.0244
10058W        W29592   4.318  11.483  12.494 -0.4974 -0.3459 -0.1251
10059W        W29593   0.832   6.473  13.084 -0.1710 -0.2052 -0.3495
10060W        W29594   2.860   8.786  16.587 -0.1320  0.0179 -0.2382
10061W        W29595   2.742   1.514  14.352 -0.1061 -0.0446  0.2455
10062W        W29596   1.355   8.556  16.645 -0.3138 -0.1529  0.2012
10063W        W29597   0.916   7.704   1.390  0.1826 -0.0612 -0.0645
10064W        W29598   2.749  13.529  14.005  0.2583  0.0478 -0.0009
10065W        W29599   9.650  13.570   4.691 -0.2413 -0.0589  0.2536
10066W        W29600   4.056  14.653  11.078 -0.0356 -0.1386  0.0585
10067W        W29601  11.326   7.349   3.140  0.0745  0.1285  0.1180
10068W        W29602  13.210  12.554   5.214  0.2366 -0.0082  0.0141
10069W        W29603   4.302  16.845   0.793 -0.2287 -0.1935  0.0732
10070W        W29604   6.867  14.766   1.183 -0.1009 -0.0332 -0.0523
10071W        W29605  13.722  16.927  12.458 -0.0368  0.0608  0.0673
10072W        W29606  11.283   9.008  13.299 -0.1952  0.2195 -0.3571
10073W        W29607   6.576   7.336  14.565 -0.0420 -0.2113 -0.0945
10074W        W29608   0.129  15.592   3.978 -0.0856 -0.1978 -0.4079
10075W        W29609  11.163  12.794   3.436 -0.3074 -0.1903 -0.0822
10076W        W29610  15.249  15.870   2.709  0.2040 -0.0272 -0.0612
10077W        W29611  14.267   6.887  16.567  0.0062  0.2771  0.0344
10078W        W29612  15.066   6.485   0.081  0.0613 -0.1004  0.0608
10079W        W29613  13.323   7.354   1.210  0.0633 -0.2996  0.1191
10080W        W29614  16.813  10.886   4.982  0.0980  0.0193 -0.1174
10081W        W29615   3.617  14.264  13.590 -0.2222  0.2360 -0.1439
10082W        W29616   3.709  11.232   3.496 -0.0172 -0.0831 -0.1454
10083W        W29617  14.032  12.831   2.891 -0.1356  0.0412  0.1150
10084W        W29618   6.918  16.888   4.357 -0.0361  0.3270 -0.5317
10085W        W29619   4.580  16.192  11.010 -0.3949 -0.1366  0.2117
10086W        W29620   3.626  16.803  13.018  0.0512 -0.1574  0.0257
10087W        W29621   8.547  16.498   4.547 -0.2108  0.1723  0.2614
10088W        W29622  13.661   8.485   3.334 -0.3522 -0.0625 -0.1652
10089W        W29623   7.031   6.730  15.067 -0.0458  0.4070 -0.1405
10090W        W29624  12.322   7.553   0.062 -0.1154  0.0927  0.0702
10091W        W29625   6.629   4.813  14.314 -0.0955  0.1932  0.2146
10092W        W29626   1.997   5.013  14.274 -0.1988 -0.1996 -0.0385
10093W        W29627  13.076  11.684   1.896 -0.1642  0.1643 -0.0180
10094W        W29628   9.535   0.263  12.486  0.1715 -0.1214  0.1915
10095W        W29629  13.576  14.225   1.702 -0.2139  0.2926  0.2133
10096W        W29630   8.508  14.846   3.097  0.2077  0.1227 -0.0542
10097W        W29631   4.803   6.166  16.739 -0.1017  0.0436 -0.1917
10098W        W29632  14.543   1.974   3.532  0.2250 -0.0398 -0.2207
10099W        W29633   8.725  10.879  13.939 -0.1005  0.0137  0.3939
10100W        W29634   4.214   4.684  14.184 -0.0673 -0.0259  0.2937
10101W        W29635   9.310  17.242  13.923  0.1143 -0.0447  0.0164
10102W        W29636  11.446  12.865  14.455  0.0889  0.1660  0.1758
10103W        W29637  11.785  13.925  14.857  0.1027  0.0974 -0.1500
10104W        W29638   4.803  10.749   2.990 -0.1636  0.1780 -0.0658
10105W        W29639  12.731   5.502   2.297  0.3267 -0.0734  0.1240
10106W        W29640   6.156   7.963  16.190 -0.1340  0.3700  0.0816
10107W        W29641   6.542   7.904   4.696  0.0337  0.0497  0.0773
10108W        W29642   0.034   3.816   2.372 -0.0067 -0.2736 -0.1529
10109W        W29643   8.549   6.044  12.734 -0.0230 -0.1846  0.2183
10110W        W29644   5.719  17.561  12.826 -0.0732 -0.0640  0.0664
10111W        W29645   0.516   5.292   0.577 -0.1012 -0.0025  0.0747
10112W        W29646  17.313   9.321  16.838  0.1789 -0.0656 -0.1102
10113W        W29647   0.214  12.673  12.801 -0.4896  0.0221 -0.0358
10114W        W29648  14.510   2.454  16.996 -0.1265  0.0318  0.2012
10115W        W29649   1.329  17.404   2.630 -0.1055  0.0978  0.0705
10116W        W29650  12.570  15.026   3.424  0.0188 -0.0022  0.2855
10117W        W29651  12.497   7.633   3.552  0.0428 -0.1180 -0.1103
10118W        W29652  12.800   6.961   3.002  0.1119  0.2401  0.0851
10119W        W29653   8.852  16.090   4.283  0.0710 -0.2792 -0.0110
10120W        W29654   7.223   0.464   3.577  0.4618 -0.1198 -0.2013
10121W        W29655   6.117   1.166   2.792 -0.0140  0.1094 -0.1144
10122W        W29656   8.199   1.030   3.392 -0.1586 -0.1088  0.1445
10123W        W29657   2.244   7.097  16.096 -0.0642 -0.0842 -0.2704
10124W        W29658   4.341  10.263  16.934  0.0897  0.0143 -0.1753
10125W        W29659   1.372  11.209   4.322 -0.0604  0.0932  0.2876
10126W        W29660   4.012   1.409   4.077 -0.0317  0.0186  0.1056
10127W        W29661   5.490   3.216   0.230 -0.1778  0.0905 -0.0160
10128W        W29662  16.189   3.770   1.791  0.4039 -0.1630  0.3762
10129W        W29663   1.177   1.623   1.728 -0.2210 -0.0457 -0.0526
10130W        W29664  15.647  13.275   0.884  0.1930 -0.0226 -0.0740
10131W        W29665  11.939   6.083  16.775  0.1711 -0.2450  0.0003
10132W        W29666   0.988  16.533   4.386  0.2225 -0.1806  0.1298
10133W        W29667   6.152   2.065  14.053  0.0623 -0.2582 -0.0250
10134W        W29668   2.439  13.262  14.770 -0.2300  0.2056 -0.0673
10135W        W29669  11.621  10.795  16.864 -0.0254 -0.1999 -0.3666
10136W        W29670   2.077  16.373   3.856 -0.1323 -0.1247  0.2833
10137W        W29671   8.662  11.797  15.458 -0.1158  0.0552 -0.1770
10138W        W29672   1.919  11.270   1.900 -0.0349  0.1017 -0.0854
10139W        W29673   3.435   4.694  13.525  0.1964  0.1102  0.0672
10140W        W29674   8.391  15.420  14.853 -0.0709  0.1099 -0.3915
10141W        W29675   8.139   8.467  12.596  0.2416  0.0267  0.2749
10142W        W29676  15.005   4.955   2.880 -0.0756  0.0770  0.0924
10143W        W29677  15.490   5.806  15.651 -0.1803  0.2413 -0.3343
10144W        W29678   0.473   3.548  16.770  0.2556 -0.2202  0.2705
10145W        W29679   9.456   0.138  16.044 -0.0569 -0.1310  0.2024
10146W        W29680   2.213  12.353   4.493 -0.1197  0.5907 -0.1019
10147W        W29681  11.428   9.124   1.278  0.6014  0.4184  0.4269
10148W        W29682   8.207   0.774   0.903  0.0769  0.0767  0.0848
10149W        W29683  11.209   2.011   1.662 -0.0278 -0.0733 -0.0938
10150W        W29684   9.062   7.225   3.986 -0.3274 -0.0175 -0.1689
10151W        W29685  11.858  10.394   4.280 -0.0556 -0.0520 -0.0638
10152W        W29686  17.511   3.956  14.684 -0.1004 -0.1868  0.0780
10153W        W29687  11.788   9.844   3.532 -0.0588 -0.0651 -0.0454
10154W        W29688   3.718   6.851   2.496 -0.0864  0.4026  0.0700
10155W        W29689   7.167   3.857   2.729 -0.0518  0.1326 -0.1219
10156W        W29690   4.312  15.945   1.132 -0.2437  0.3533 -0.0091
10157W        W29691   3.148  12.606   4.431 -0.2179  0.0328 -0.0514
10158W        W29692   7.614   2.494  12.426  0.2689 -0.1764  0.2598
10159W        W29693   4.962   3.022  16.758  0.2080 -0.0804  0.0301
10160W        W29694  14.883  10.135  15.528  0.0231 -0.2329  0.3461
10161W        W29695   2.779   1.172   4.571  0.0372 -0.2817  0.1156
10162W        W29696  17.461   6.541   3.369  0.1414 -0.1001  0.0029
10163W        W29697  15.120  16.024   0.472 -0.0041 -0.1408 -0.1505
10164W        W29698  15.890   8.675  12.481 -0.2413 -0.2909  0.2648
10165W        W29699   0.327   7.568   3.898 -0.0104 -0.3050  0.1019
10166W        W29700   2.677   2.883  13.498  0.2943 -0.2814 -0.0111
10167W        W29701  16.615   4.385  16.173  0.0044  0.2588  0.1031
10168W        W29702  12.005   9.315  16.934  0.0465 -0.1033 -0.3457
10169W        W29703   8.791   0.053   1.410  0.0772 -0.1073  0.3546
10170W        W29704  13.897   6.547  12.552 -0.1791 -0.1043 -0.2855
10171W        W29705  12.700   7.342   0.334  0.1217 -0.3088 -0.3679
10172W        W29706  13.561  17.230  16.483  0.0884 -0.0525  0.1578
10173W        W29707  14.994   0.896  13.780  0.1592 -0.0185  0.2531
10174W        W29708   3.161  16.744  12.779 -0.0856 -0.1103  0.1862
10175W        W29709   4.961   7.235   3.152  0.2921  0.1162  0.1608
10176W        W29710   9.064   3.543   4.783 -0.0762  0.2698  0.3254
10177W        W29711  11.830  10.654   2.977  0.0952  0.0684  0.2364
10178W        W29712  10.668   3.246  12.422 -0.1178  0.2254  0.0244
10179W        W29713   9.829   6.149   2.035  0.2221 -0.0351 -0.0928
10180W        W29714  17.180   9.474   1.677 -0.1588  0.0295 -0.1038
10181W        W29715  14.608   2.742  13.343  0.0236 -0.0844  0.2566
10182W        W29716  15.312   6.110  12.193  0.0472  0.3398  0.1282
10183W        W29717  14.849  12.944  11.962 -0.1641 -0.1333 -0.1013
10184W        W29718   8.806  11.143  13.335  0.3640 -0.1200 -0.2179
10185W        W29719   2.386  14.776   0.123 -0.2679  0.0212  0.1580
10186W        W29720   8.526   3.448   2.278 -0.3069  0.0973 -0.1321
10187W        W29721  10.543   7.712  13.459  0.1694 -0.0495 -0.2283
10188W        W29722   7.782  11.596   0.834  0.1558  0.0213 -0.1789
10189W        W29723  12.410   2.857  13.237 -0.2264 -0.0936  0.1548
10190W        W29724   5.946  14.183  15.037 -0.0220  0.1696 -0.2767
10191W        W29725   8.656  10.224  12.783 -0.3860  0.1353 -0.0575
10192W        W29726   0.850   0.374   3.110  0.1699 -0.0877 -0.2525
10193W        W29727   8.883   9.138  13.104  0.0854 -0.2631 -0.0368
10194W        W29728   9.919  12.575   2.205  0.1193  0.2981 -0.0783
10195W        W29729   8.770  14.207  14.619  0.2771  0.2021  0.2292
10196W        W29730   6.625  17.109  15.653 -0.0296  0.0493  0.0344
10197W        W29731  17.464   1.336   3.086 -0.0925  0.1512  0.2972
10198W        W29732  16.889   7.143  13.083  0.1779 -0.0943  0.0002
10199W        W29733  13.728   7.139   4.822 -0.1897  0.0966 -0.1499
10200W        W29734   4.757  14.816  12.330  0.0852 -0.1179 -0.0343
10201W        W29735  15.940   3.474  16.441 -0.0072  0.0609  0.3953
10202W        W29736   1.745  10.739  14.821  0.0288 -0.1974 -0.1216
10203W        W29737  14.443   7.872  15.377 -0.0182 -0.3271  0.0017
10204W        W29738  14.586   6.666   2.478  0.1337  0.0868 -0.1012
10205W        W29739   2.529  16.165   2.246  0.0954 -0.0768  0.3269
10206W        W29740  11.614   8.612   4.951  0.2238  0.2040  0.1097
10207W        W29741   0.228   0.182  16.352 -0.4816 -0.1344 -0.0951
10208W        W29742  15.540  17.375  13.180  0.3641  0.1251 -0.1099
10209W        W29743   2.913   6.857   4.461 -0.1328 -0.3337  0.2096
10210W        W29744   3.643   4.219   0.410  0.0444 -0.1081 -0.4153
10211W        W29745   7.088   2.538   1.938 -0.1606 -0.1756 -0.0944
10212W        W29746  12.192   8.634  14.587  0.2656 -0.0071  0.2154
10213W        W29747  13.529  11.420   2.500  0.1972 -0.1223 -0.0165
10214W        W29748   4.044   3.930   3.237 -0.3074 -0.1656 -0.0047
10215W        W29749   3.994   1.590  13.736  0.0677  0.0507 -0.0744
10216W        W29750   4.748  11.356  15.013 -0.2949  0.1130  0.0671
10217W        W29751  13.505   5.103   2.635 -0.1399  0.0332 -0.0125
10218W        W29752   9.616  10.294   5.301 -0.2787 -0.0254 -0.1398
10219W        W29753   8.951  12.200  16.264  0.0196 -0.2970  0.2136
10220W        W29754   9.075  15.053  13.676 -0.2295 -0.0731 -0.2006
10221W        W29755  10.187  12.657   1.212 -0.2347  0.1713  0.0971
10222W        W29756   0.674  15.279   5.008  0.1314 -0.0736 -0.1616
10223W        W29757   2.983   5.317  16.152  0.3108  0.2683  0.0745
10224W        W29758  11.644  12.249   1.679  0.3574  0.5314  0.0625
10225W        W29759  15.568   8.499   1.361 -0.3108 -0.2123  0.0143
10226W        W29760  13.288   6.272  13.865  0.3540 -0.0266  0.0635
10227W        W29761  12.989   6.276  14.305 -0.2593  0.2321  0.1152
10228W        W29762   7.777   0.270   3.545 -0.0582  0.1306  0.2338
10229W        W29763  10.819   7.606   2.762 -0.0063  0.3518  0.0160
10230W        W29764  16.720   7.024   2.729  0.0705 -0.1991  0.0629
10231W        W29765  14.221   0.991  15.063  0.2553 -0.2473 -0.4542
10232W        W29766  15.689   8.015   3.545 -0.1416  0.1128 -0.0506
10233W        W29767  11.223  10.429   2.279 -0.0249 -0.0753 -0.0648
10234W        W29768   3.020   2.129  15.899  0.1451  0.0880 -0.0390
10235W        W29769   7.680   8.996   3.529  0.0013 -0.0812  0.2095
10236W        W29770  15.221   0.121  16.800 -0.0039  0.0687  0.0734
10237W        W29771  16.772  12.182   3.446  0.1319  0.1167  0.0012
10238W        W29772   3.280   1.961   0.668 -0.1258  0.0913  0.2408
10239W        W29773  15.285  14.053  12.272  0.0341  0.3926  0.2068
10240W        W29774   7.554  10.524  12.550 -0.0574 -0.0599  0.1159
10241W        W29775   5.533   8.081  12.132  0.1737 -0.0899  0.3321
10242W        W29776   7.644  12.185  14.433 -0.1124 -0.4771  0.0246
10243W        W29777   3.406   4.770   3.174 -0.0441  0.1839 -0.2286
10244W        W29778   4.644  10.215   4.162 -0.0878 -0.2269  0.0045
10245W        W29779   5.836   7.379  12.812 -0.0741  0.0625  0.0298
10246W        W29780  12.108   4.628   0.157  0.0520  0.2025  0.2283
10247W        W29781   4.831  15.720  16.647  0.2068  0.0260  0.0895
10248W        W29782   6.798   8.451  12.099  0.1274  0.2964  0.0189
10249W        W29783  12.292   3.461  14.940  0.3322  0.1103  0.1510
10250W        W29784   6.741  11.273  16.359  0.1135  0.1423  0.2800
10251W        W29785   1.648  14.360  12.336  0.1680  0.0709  0.2044
10252W        W29786   1.913   0.094  15.242  0.0731  0.1741 -0.3024
10253W        W29787   6.031   6.338  12.182 -0.4023  0.0751 -0.0762
10254W        W29788   8.155  15.276  17.005 -0.2476  0.1816 -0.0173
10255W        W29789  11.208   8.272   2.792  0.0048  0.1356 -0.0813
10256W        W29790   9.261   7.165  15.379 -0.1575 -0.1796  0.1787
10257W        W29791   6.984   0.653  16.122 -0.0292 -0.1121  0.1870
10258W        W29792  10.835  10.504   4.046  0.0628  0.0967  0.0404
10259W        W29793  11.832   2.101  15.955 -0.0163 -0.1293 -0.2169
10260W        W29794   4.145   6.631  14.942  0.1768  0.1774 -0.1315
10261W        W29795  13.909   3.297  15.238 -0.1143 -0.0303  0.1023
10262W        W29796   6.926  11.249  15.312  0.1051 -0.0954 -0.0013
10263W        W29797  16.540  14.002   3.865 -0.0066  0.3110  0.5313
10264W        W29798  16.931   0.452  16.431  0.1931 -0.2484 -0.0381
10265W        W29799   2.659   5.866   4.247 -0.1167 -0.1599 -0.2590
10266W        W29800   6.966  14.846   4.292 -0.0823 -0.0594  0.0075
10267W        W29801  14.860  13.290   3.525 -0.0616  0.0501  0.2841
10268W        W29802   4.265   5.368  14.594  0.0388 -0.1014  0.0543
10269W        W29803   5.754  12.849  13.388  0.1352  0.1505  0.0610
10270W        W29804   6.455   5.850   3.279 -0.0536 -0.1754 -0.1369
10271W        W29805   0.614   6.929  16.308 -0.4803  0.0178 -0.3704
10272W        W29806  17.147   3.233  13.306  0.0355  0.0361 -0.0883
10273W        W29807  10.366  16.371   0.744 -0.1869  0.1486  0.0316
10274W        W29808  11.423   8.064  13.053 -0.1922 -0.2426 -0.5314
10275W        W29809  15.820   5.332  17.057  0.0893 -0.0267 -0.1180
10276W        W29810   1.205  17.263   4.116 -0.0652 -0.0033 -0.0737
10277W        W29811  16.612   3.214   4.663  0.0194 -0.0686  0.0457
10278W        W29812   1.816  13.167  13.325 -0.0747  0.0740 -0.0934
10279W        W29813   1.468  15.295  14.302 -0.3307 -0.2500  0.0795
10280W        W29814  14.862  15.873  13.002  0.0595 -0.1361  0.2220
10281W        W29815   2.945  14.853  15.885 -0.0387 -0.1179 -0.4030
10282W        W29816   8.795   3.863   3.518 -0.2016 -0.1802  0.2552
10283W        W29817  11.926  12.636   1.451  0.2486  0.0715 -0.1758
10284W        W29818  12.660  13.852   3.764 -0.1008 -0.1849 -0.1219
10285W        W29819  11.973   5.203   4.747 -0.0762  0.2130  0.0187
10286W        W29820   8.394  13.135  13.884 -0.0580 -0.2429  0.0210
10287W        W29821  16.798  13.984   4.305  0.0792  0.2205 -0.1824
10288W        W29822   8.356  11.723   1.733  0.1943 -0.0785  0.0330
10289W        W29823   3.845   4.735   2.856  0.1370 -0.0235 -0.1466
10290W        W29824  15.752  12.692  16.086 -0.0641  0.0663 -0.0231
10291W        W29825  15.076  15.503  14.756  0.0652  0.1333  0.2155
10292W        W29826  16.128  15.253  13.663 -0.1852  0.2358 -0.2678
10293W        W29827   5.340   7.609  11.979 -0.0914 -0.1071  0.0320
10294W        W29828  16.835  14.156  15.320  0.2077  0.1319 -0.0231
10295W        W29829  11.748   9.311   1.572 -0.0333 -0.2557 -0.1509
10296W        W29830   7.775   5.400   0.653  0.1135  0.0523  0.0714
10297W        W29831  16.299  16.526   0.748 -0.0691 -0.0439  0.0332
10298W        W29832   3.608   5.242   3.748 -0.2205  0.0791 -0.2075
10299W        W29833  13.158   6.723   5.001  0.3547  0.2781  0.1267
10300W        W29834   3.089  13.542   2.274 -0.0963 -0.2241  0.0680
10301W        W29835   1.075   8.695   0.765  0.0221 -0.0554 -0.2286
10302W        W29836  10.538   2.139  14.072 -0.0553 -0.1163  0.1079
10303W        W29837   0.048  13.545  12.465 -0.0188 -0.3439  0.0253
10304W        W29838  14.760   0.092   4.078 -0.0351  0.0101  0.2202
10305W        W29839  17.477  11.696   2.046  0.0004  0.0541 -0.0970
10306W        W29840   7.818  13.166   0.310  0.2335 -0.0224 -0.1127
10307W        W29841  13.821  14.839   3.603 -0.0062 -0.3036  0.3105
10308W        W29842  13.488   0.877   5.102  0.1197 -0.0700 -0.0459
10309W        W29843  11.242   3.488  12.642  0.1746  0.0376 -0.4164
10310W        W29844   9.097   6.899   3.118 -0.1401 -0.1114  0.0329
10311W        W29845   1.285   2.214   0.807  0.2546  0.0912  0.2919
10312W        W29846   9.707   4.956   1.462 -0.0332 -0.1870  0.2928
10313W        W29847  14.416   4.936  17.035 -0.2286 -0.3016  0.3641
10314W        W29848  11.504   6.941  15.596 -0.2805 -0.2491 -0.0270
10315W        W29849   2.519   7.621  14.257  0.0427  0.0416 -0.1714
10316W        W29850  13.858   5.608  16.085  0.1925  0.2224 -0.1349
10317W        W29851   5.823   1.089  12.163  0.1937 -0.0908  0.2487
10318W        W29852  17.027  16.157  15.622 -0.1038 -0.0269  0.0517
10319W        W29853  14.120   5.253   4.780 -0.1513  0.2427  0.1225
10320W        W29854  13.117  11.158  14.077 -0.2173 -0.1481  0.0307
10321W        W29855   5.060  11.511   2.108 -0.4321  0.0212  0.0548
10322W        W29856  17.244   4.596  14.114 -0.3363 -0.2841  0.1932
10323W        W29857   8.294   1.021  16.381 -0.2112 -0.0772 -0.1096
10324W        W29858   5.034   3.121   2.727 -0.1031 -0.0396 -0.2882
10325W        W29859   7.931  12.368  13.786 -0.1987  0.1204  0.1760
10326W        W29860   5.502  17.519   0.210 -0.1900 -0.0169  0.0275
10327W        W29861   5.217  11.760   4.471 -0.0398 -0.1201  0.2037
10328W        W29862   2.457   1.178   0.016  0.0045  0.1241  0.1394
10329W        W29863  15.913  10.073  12.943 -0.1639 -0.3406 -0.0625
10330W        W29864   1.034   0.166  16.727 -0.0628 -0.1185  0.3003
10331W        W29865  11.933  11.071   5.044  0.2544 -0.0291 -0.1281
10332W        W29866  13.388  13.838  12.356  0.0127 -0.0284  0.2650
10333W        W29867   4.054  13.648   4.358  0.2079 -0.1394 -0.2054
10334W        W29868  13.277   6.210  16.616 -0.2551 -0.0497  0.1355
10335W        W29869   4.252   7.310   4.956 -0.0672  0.2719 -0.0153
10336W        W29870   5.132  14.440   3.994 -0.2789  0.1742 -0.1216
10337W        W29871   8.701   0.795  14.334 -0.0529 -0.1497 -0.1943
10338W        W29872   9.804  17.520   4.880 -0.0594  0.0229 -0.2066
10339W        W29873  15.150   8.127   0.537  0.1698  0.1623 -0.3841
10340W        W29874  14.626  10.821   0.211  0.0298  0.0785  0.0938
10341W        W29875   3.907   4.733  13.280  0.0957 -0.0279  0.2653
10342W        W29876   7.497   6.429  16.809 -0.1329  0.1583 -0.0002
10343W        W29877  16.871  12.665   4.655  0.2869 -0.1384 -0.1482
10344W        W29878  16.805  14.562  12.636 -0.0634  0.2291 -0.0490
10345W        W29879   5.328  10.188   2.924  0.0402 -0.0684 -0.0964
10346W        W29880  16.949   7.264  14.768  0.0567  0.4496 -0.2362
10347W        W29881   8.612   4.636   2.924  0.2245 -0.2492  0.2285
10348W        W29882   9.128  16.285  12.800  0.1931  0.3667 -0.0514
10349W        W29883  14.498  12.441   0.361 -0.2813  0.1916 -0.0477
10350W        W29884  15.594  10.016  14.036 -0.1437  0.2281  0.2873
10351W        W29885   6.853   8.555  15.931  0.2196  0.0076 -0.2766
10352W        W29886   0.409   7.969  13.177 -0.1616 -0.1229 -0.0067
10353W        W29887  11.723   0.472   3.393 -0.0869 -0.0137  0.2619
10354W        W29888   2.428   6.815   1.210  0.2115  0.1158  0.1610
10355W        W29889  11.992   4.935  13.094 -0.2595 -0.3828  0.0583
10356W        W29890   4.996   9.539  15.712  0.0655 -0.0473 -0.1520
10357W        W29891   5.285   2.213  16.048  0.0044 -0.1470 -0.1304
10358W        W29892   2.285   2.994   0.148 -0.0005 -0.1130 -0.0699
10359W        W29893   2.861   9.595  12.857 -0.1051  0.1023 -0.0557
10360W        W29894  12.918   7.390  13.537  0.2583 -0.0751  0.1828
10361W        W29895   6.151  17.199  12.968  0.2403 -0.0714 -0.1350
10362W        W29896  11.657   8.110   3.784  0.0385  0.0585  0.0290
10363W        W29897  17.536  11.230   4.645  0.1617 -0.0380  0.1993
10364W        W29898  15.453  10.573  14.115 -0.0942 -0.2686 -0.1564
10365W        W29899  12.197   4.332  15.895  0.3301  0.0335 -0.0486
10366W        W29900  16.950  13.010   2.060  0.0776  0.0748  0.0830
10367W        W29901  15.343  14.425  14.144 -0.0397 -0.3916 -0.2278
10368W        W29902   4.769  14.278   2.695  0.2031  0.0596  0.0251
10369W        W29903  14.732  16.048   3.623  0.1498  0.2401 -0.2575
10370W        W29904   2.212   0.460   4.536 -0.3186 -0.1098 -0.1552
10371W        W29905   8.320   8.083   3.712  0.0541  0.2446 -0.1790
10372W        W29906   2.309   5.716  14.770  0.2535  0.0508 -0.0231
10373W        W29907   2.887   2.767   0.098  0.2424  0.1804  0.0821
10374W        W29908   1.525   8.399  13.546  0.1041 -0.1697 -0.0063
10375W        W29909   4.815  13.746   1.839 -0.1617 -0.3201 -0.0874
10376W        W29910   4.167  14.501  17.068  0.0055  0.1544  0.0131
10377W        W29911   6.205  17.604   3.568  0.2969  0.2300  0.0003
10378W        W29912  11.330  13.876  14.397 -0.1071  0.3152  0.1174
10379W        W29913  14.601   0.549  14.699 -0.2997 -0.0139 -0.0335
10380W        W29914   6.933  13.235  13.272 -0.1082 -0.1104 -0.0326
10381W        W29915  13.633  12.431   0.834 -0.0895  0.0722 -0.0220
10382W        W29916  14.519   6.572  13.882  0.1890  0.0501  0.0732
10383W        W29917  14.781   3.410   0.832 -0.4200 -0.1213  0.2036
10384W        W29918  15.760  11.184   3.036 -0.3443 -0.1138  0.1326
10385W        W29919   5.096  14.916  13.710 -0.1296  0.1661  0.2464
10386W        W29920   2.672   8.315  12.124  0.0603 -0.0088 -0.3203
10387W        W29921  10.055   8.803   2.457 -0.0997 -0.2099 -0.2968
10388W        W29922   3.644   7.987   3.089  0.0543  0.1999 -0.0520
10389W        W29923   2.512   9.959  15.013  0.1652  0.3861  0.0220
10390W        W29924  13.870   2.931  17.009  0.0153  0.0906 -0.1295
10391W        W29925   1.436   3.440   1.135  0.0240 -0.0908  0.0733
10392W        W29926   6.758   4.352   1.251 -0.2564 -0.0696  0.1616
10393W        W29927  15.953   0.359   0.308 -0.0789  0.1240 -0.0646
10394W        W29928   2.673   2.810   5.143 -0.1825 -0.0327 -0.0252
10395W        W29929   8.446  14.620   1.667  0.0938  0.0128 -0.2542
10396W        W29930   8.145  10.160  15.421 -0.0982 -0.0429  0.3021
10397W        W29931   9.317   3.410  12.461  0.2142  0.0868  0.3755
10398W        W29932  14.252  11.535   0.960  0.0788  0.0819  0.0350
10399W        W29933  13.033  15.259  12.387 -0.1353  0.1269 -0.0858
10400W        W29934   2.185   0.076  13.449  0.1205 -0.1368 -0.0200
10401W        W29935  16.240  14.832  16.644  0.0273  0.1506 -0.0463
10402W        W29936   9.605  11.742  13.994  0.0255 -0.0914 -0.0279
10403W        W29937  10.723   0.557  16.980  0.0568  0.0199  0.3421
10404W        W29938   3.825   5.030   1.970  0.1120 -0.2232  0.1092
10405W        W29939   5.156  14.663  17.007 -0.1543  0.0524 -0.2761
10406W        W29940  14.185  14.121  13.026 -0.1880  0.2160  0.2522
10407W        W29941   2.368   9.628  13.949  0.0747 -0.0729 -0.0809
10408W        W29942  13.902  15.809  16.941 -0.1788  0.0034 -0.2326
10409W        W29943   9.523   3.773   4.230 -0.0478 -0.3439 -0.1299
10410W        W29944  14.624   7.541   4.709  0.0314  0.1615  0.1636
10411W        W29945   7.266  10.155   0.988  0.0281  0.0177 -0.0155
10412W        W29946  16.053  10.725  16.061  0.2294  0.1417  0.0237
10413W        W29947   8.679   4.355  12.739  0.0953  0.1138  0.1295
10414W        W29948  10.587   3.011  14.614  0.2568  0.0482  0.1436
10415W        W29949   1.984   6.843   1.507  0.2826 -0.0109 -0.0356
10416W        W29950   6.517  11.132  15.618  0.0843 -0.1147 -0.1986
10417W        W29951  15.573  15.343   0.902  0.4337  0.0730 -0.2289
10418W        W29952  16.615   6.754  13.345 -0.0860 -0.0877 -0.0590
10419W        W29953   6.203   5.247   0.655 -0.0235 -0.0999  0.4860
10420W        W29954   1.668   7.946   2.168 -0.1848 -0.2262  0.0987
10421W        W29955  11.639   3.691   1.895  0.0601 -0.0202  0.0390
10422W        W29956   2.758   6.330   4.496 -0.0182  0.1581 -0.1364
10423W        W29957   6.502  11.611  16.114 -0.0020 -0.4487  0.1982
10424W        W29958  15.843  14.898   1.556 -0.1632 -0.0509  0.1299
10425W        W29959   5.634   0.826   3.854  0.1503  0.1881  0.1737
10426W        W29960  10.176  15.643  12.868  0.0759  0.0831  0.1141
10427W        W29961   0.605  11.681   3.678 -0.1901 -0.1009  0.2631
10428W        W29962   3.941   4.448  12.388  0.0444 -0.0342 -0.2141
10429W        W29963   1.852   9.756   3.310 -0.3103 -0.0800  0.1753
10430W        W29964  13.981  11.444  14.630 -0.1659 -0.1682  0.0194
10431W        W29965   0.290   6.122   0.135  0.1980  0.2656  0.0922
10432W        W29966   2.021  16.416   1.205  0.2700 -0.1228 -0.2467
10433W        W29967   0.334   3.920   6.209  0.2004 -0.0279  0.1499
10434W        W29968   5.577  10.171  13.875 -0.2350 -0.1542  0.0681
10435W        W29969  15.582   3.728  15.415 -0.1453 -0.0628 -0.2549
10436W        W29970   7.973   3.260  14.793  0.2056 -0.0777 -0.0622
10437W        W29971   9.425  17.000  12.340 -0.2785 -0.0078  0.2613
10438W        W29972   5.074  14.385  11.512 -0.0360  0.0345  0.1709
10439W        W29973  10.741   8.929  15.788  0.2277 -0.1790 -0.0352
10440W        W29974   9.857  11.535   3.935 -0.3505 -0.0237  0.0906
10441W        W29975  13.299  10.968  14.582 -0.0093 -0.0286 -0.0152
10442W        W29976  14.882  12.698   3.579  0.1324  0.0287  0.0435
10443W        W29977   0.281   9.574  15.389 -0.0348 -0.1747 -0.2929
10444W        W29978   0.244   3.342   3.662 -0.3055  0.2355 -0.0779
10445W        W29979  11.967   9.525   4.894 -0.0264  0.0993  0.2178
10446W        W29980   5.163   0.749  13.157 -0.0982 -0.0038 -0.1737
10447W        W29981  12.980   1.739  15.134 -0.4572 -0.1249  0.3341
10448W        W29982   2.770  11.251   1.592 -0.3262 -0.1195  0.0177
10449W        W29983   6.753   1.358   4.268  0.1050  0.1890  0.0851
10450W        W29984  16.148  17.408   2.243  0.1336  0.0647 -0.0379
10451W        W29985  15.603   3.158  16.351 -0.1446 -0.0370 -0.0818
10452W        W29986   8.748  11.944   4.271 -0.2185 -0.1492 -0.3047
10453W        W29987  16.637  15.522   6.272 -0.0393  0.3443  0.2219
10454W        W29988  14.567  11.771  15.401  0.0324 -0.2196  0.2010
10455W        W29989   2.589  16.883   0.309  0.3195 -0.2822 -0.2826
10456W        W29990   1.460  10.963  15.991 -0.0468 -0.1659 -0.1004
10457W        W29991   4.393  16.480   1.118 -0.0127  0.2985 -0.0161
10458W        W29992  11.313   7.782   4.563  0.3571  0.1548  0.0190
10459W        W29993   1.571  16.113   1.255 -0.1892  0.1239  0.2168
10460W        W29994   4.969  12.913  13.459  0.0115  0.5262  0.0874
10461W        W29995   5.546   7.978   2.479  0.0515  0.0621  0.1599
10462W        W29996  15.052  15.944   4.858  0.1312  0.3205  0.1432
10463W        W29997   5.358  10.713   2.940  0.0676 -0.0964  0.0959
10464W        W29998   7.985  15.733  16.035  0.1977  0.2493 -0.1514
10465W        W29999  14.991  10.464  14.349 -0.1696  0.1594  0.1900
10466W        W30000   1.418  11.964  16.132 -0.0763 -0.1840  0.1562
10467W        W30001  10.899   9.854   0.899 -0.0327  0.1979 -0.3384
10468W        W30002   3.828  15.943  12.902  0.0305  0.2774 -0.0044
10469W        W30003   9.302  13.216   1.121 -0.0201 -0.0138 -0.2647
10470W        W30004   9.125  15.161   1.916 -0.0764  0.1691 -0.0446
10471W        W30005  14.045  13.922   0.562 -0.0168 -0.1636 -0.2211
10472W        W30006   7.606  10.088   4.849 -0.1986 -0.0018 -0.2060
10473W        W30007  14.890  15.626  15.718  0.0708  0.1466 -0.2530
10474W        W30008   5.878   8.492   3.285  0.0096  0.1640  0.1367
10475W        W30009   3.278   5.638   2.029 -0.1330 -0.2199 -0.1037
10476W        W30010   3.747  14.382  15.908  0.4815 -0.2761 -0.2002
10477W        W30011  15.653   2.567   3.762  0.3175 -0.0942 -0.1466
10478W        W30012  13.537   4.464  14.815  0.3405 -0.1190  0.0145
10479W        W30013  14.584  13.701   0.593  0.0765  0.1695 -0.0386
10480W        W30014  10.669   3.815  13.937 -0.2454 -0.0696  0.1081
10481W        W30015  12.369  16.212   4.758 -0.2105  0.1082 -0.2656
10482W        W30016   1.381   4.487  11.147  0.0035 -0.0858  0.3093
10483W        W30017   8.713  12.584   2.121 -0.0013 -0.2726 -0.1024
10484W        W30018  11.271   8.799  14.231 -0.1588  0.0575  0.0974
10485W        W30019  12.528  10.580  13.750 -0.0045 -0.1462  0.0535
10486W        W30020  14.854  16.770   6.148  0.0816 -0.1435 -0.0836
10487W        W30021   6.276  16.981   2.646  0.1191 -0.2738 -0.2460
10488W        W30022   1.258  16.178  14.316 -0.1086  0.0915 -0.2532
10489W        W30023   8.116  15.961  15.072  0.1866  0.1015 -0.0939
10490W        W30024   5.206   5.353  12.198 -0.1627  0.1422  0.1205
10491W        W30025   5.052   8.039   0.827  0.0569 -0.1220 -0.4210
10492W        W30026  10.344   9.484  15.756  0.2234 -0.0134  0.0780
10493W        W30027  14.782  15.787   4.031 -0.0633  0.0923 -0.0973
10494W        W30028  15.474  11.952   2.765  0.1818  0.0659  0.3925
10495W        W30029   0.624  15.777   3.470  0.0831  0.2563  0.2543
10496W        W30030   0.994   4.139   4.028  0.0031 -0.1238  0.3025
10497W        W30031   3.337   4.167   2.347  0.0047  0.0786  0.1007
10498W        W30032  12.205   2.864   3.853 -0.0553 -0.2770 -0.1853
10499W        W30033  10.928   4.338   2.617 -0.1174 -0.0308 -0.1135
10500W        W30034  11.154   3.606   0.420  0.3160 -0.0697 -0.1046
10501W        W30035   4.717   3.301  13.902  0.1733  0.2168  0.0374
10502W        W30036   7.016   9.110   2.667 -0.3573  0.1233 -0.0293
10503W        W30037  12.221   4.819  14.854 -0.1477 -0.2404 -0.3691
10504W        W30038  14.203   0.411   3.728 -0.0274  0.2313  0.0065
10505W        W30039   6.582  10.261   2.177  0.2796  0.1774  0.0294
10506W        W30040   9.947   4.076  14.845 -0.3210 -0.0835  0.2515
10507W        W30041   1.358  14.381   4.567  0.0390  0.0325 -0.2171
10508W        W30042   0.690   3.842  14.689  0.1639  0.1484 -0.1437
10509W        W30043  13.931   8.708   4.024 -0.2841  0.4169 -0.1314
10510W        W30044  10.165  16.420  14.316  0.0094 -0.0272 -0.0761
10511W        W30045  10.992   6.369   0.552  0.1127  0.2712  0.3663
10512W        W30046   7.020   6.468   0.519  0.1222 -0.0088  0.3576
10513W        W30047  16.625   2.599   1.786 -0.0270  0.0494  0.0140
10514W        W30048  11.766   6.683   2.366  0.2406  0.2651 -0.1843
10515W        W30049  11.909   0.097   3.739 -0.1330 -0.4661  0.1984
10516W        W30050  13.136   8.729  13.108 -0.0968  0.0474 -0.2912
10517W        W30051  10.884  16.734   3.283  0.1095 -0.1580 -0.2332
10518W        W30052   9.391   7.362   2.605 -0.3673 -0.2003 -0.1443
10519W        W30053  11.139   3.674  16.426  0.2895 -0.0426 -0.1874
10520W        W30054   5.614   8.268  17.049  0.1625 -0.0022  0.0588
10521W        W30055   1.000  11.979  14.714  0.1707  0.1806  0.2433
10522W        W30056  12.827  16.305  12.749  0.5721 -0.0921  0.2539
10523W        W30057  11.628   9.510   3.998 -0.3163 -0.1057 -0.1874
10524W        W30058   9.877   1.763  15.575 -0.2926  0.1113 -0.1025
10525W        W30059  11.402   5.439  16.821 -0.1956  0.1369 -0.0886
10526W        W30060  15.612  16.591   1.687  0.1019 -0.2870  0.1807
10527W        W30061   9.673   7.276   0.744  0.0554  0.3626  0.0106
10528W        W30062   4.570  16.868   3.405 -0.0673  0.0015 -0.1429
10529W        W30063   0.652  14.190   1.851 -0.0193 -0.0707 -0.2293
10530W        W30064  15.454   9.875  16.296  0.1288  0.0058 -0.0077
10531W        W30065   1.283  13.966  14.243 -0.3054  0.1142  0.0813
10532W        W30066   3.388   0.692   2.547  0.0644 -0.1737  0.2016
10533W        W30067   8.090  12.335  14.359 -0.1953  0.0694 -0.1351
10534W        W30068   9.390   1.779   1.276  0.0594  0.2689 -0.1583
10535W        W30069  16.916  15.196   0.589 -0.2477  0.2536  0.1719
10536W        W30070   5.460   0.236   3.097  0.1181 -0.0837 -0.0925
10537W        W30071   9.289   8.342   5.024  0.0286  0.1467 -0.1714
10538W        W30072   2.094  10.423   0.620  0.1430  0.3495  0.0409
10539W        W30073  13.712   2.011  14.025 -0.1024 -0.0579  0.1024
10540W        W30074   6.956  17.630  12.513  0.0640  0.2326  0.0758
10541W        W30075  10.814   5.134   3.472 -0.1374  0.1515  0.0617
10542W        W30076  12.911   0.199   4.079 -0.0568 -0.0177  0.2155
10543W        W30077  11.557  12.917  12.675 -0.2607  0.0103  0.2713
10544W        W30078  17.645   6.677   1.784 -0.5550  0.1219 -0.3863
10545W        W30079   9.599  17.337  16.283  0.0020  0.1608 -0.3805
10546W        W30080   7.130   7.807  16.380 -0.0177  0.2698 -0.0179
10547W        W30081  10.532  14.111  15.792  0.0854  0.1639  0.2139
10548W        W30082  16.015   1.751   0.185  0.0616  0.1137 -0.1010
10549W        W30083   5.203  12.195   2.794  0.0682 -0.0143 -0.0667
10550W        W30084  14.664   9.941  16.697 -0.0516 -0.0260  0.1659
10551W        W30085   5.817   5.873  11.979  0.0808 -0.3583 -0.1745
10552W        W30086  14.785   5.156   1.444  0.2577  0.1991 -0.0953
10553W        W30087   2.945   6.673   3.068  0.0312 -0.2418 -0.1439
10554W        W30088   7.871  10.100  13.130 -0.2306  0.2531 -0.2154
10555W        W30089   9.349  17.104  13.078 -0.2518  0.0252 -0.4174
10556W        W30090   9.443   7.947   2.260 -0.0691  0.0706  0.0084
10557W        W30091  16.160   7.110   2.721 -0.0402  0.0531  0.0582
10558W        W30092   1.407  14.917  14.622  0.0828 -0.3900  0.1125
10559W        W30093   7.089  12.009   2.953 -0.0956 -0.1930  0.1266
10560W        W30094   6.623   0.433   2.131  0.2399  0.1933  0.0079
10561W        W30095  12.056   8.920   3.314 -0.1129  0.2068  0.0020
10562W        W30096   2.207   8.167   0.335  0.3078 -0.0959  0.0134
10563W        W30097  11.486   8.254   2.295  0.0487 -0.0715  0.1926
10564W        W30098   9.934  15.303   1.055  0.1570 -0.3468 -0.0100
10565W        W30099  13.920   2.011   3.545  0.0781  0.0460 -0.0409
10566W        W30100   8.636  12.017  14.901  0.2418 -0.0076 -0.7122
10567W        W30101   6.659   1.280   1.470 -0.0062  0.0749  0.0062
10568W        W30102   2.939   0.006  12.517 -0.0820  0.2978 -0.1867
10569W        W30103   6.069  13.223  14.967 -0.1541 -0.0888 -0.3176
10570W        W30104   7.464  12.913  17.070 -0.1960 -0.1358  0.0974
10571W        W30105   5.730   9.713   4.568  0.0426 -0.0561  0.2672
10572W        W30106  11.056  11.880   1.016  0.1538  0.3200  0.1568
10573W        W30107  11.365  12.860  13.126  0.0728 -0.2905 -0.2171
10574W        W30108  10.666   5.402   4.450  0.0960 -0.0818  0.0028
10575W        W30109  16.846  14.757  15.777  0.2137 -0.1074 -0.1176
10576W        W30110  14.086   4.892  12.743  0.0399  0.0691 -0.0788
10577W        W30111  13.044   5.594   0.021  0.3575  0.0535  0.2094
10578W        W30112  15.473  14.248   4.190  0.1883 -0.0203  0.1421
10579W        W30113   9.597  13.919   5.633  0.1191 -0.0278  0.0176
10580W        W30114   5.027   1.121  13.576 -0.2788  0.2154 -0.5295
10581W        W30115   0.200  14.804   0.623 -0.1342  0.1614  0.1400
10582W        W30116  12.323   9.228  13.493  0.2185  0.1133  0.0807
10583W        W30117   2.384  13.004   2.611  0.0037  0.2434 -0.1191
10584W        W30118   9.305   8.937  13.883  0.3596 -0.1546  0.1351
10585W        W30119  17.095   8.042   2.320  0.1556 -0.1606  0.4259
10586W        W30120  14.008  11.140  14.115 -0.1007  0.2431  0.1000
10587W        W30121  11.091  10.613  15.384 -0.0913 -0.1575 -0.0142
10588W        W30122   1.198   9.175   2.202 -0.1486  0.1116 -0.0585
10589W        W30123  13.977  12.956  10.880  0.0620 -0.0448 -0.0539
10590W        W30124   6.822   2.942   1.908  0.1286  0.1217  0.1177
10591W        W30125   4.308   9.011  15.772 -0.2816 -0.2308 -0.2340
10592W        W30126   7.694   8.188  16.918 -0.1792  0.2326  0.2075
10593W        W30127   2.265  11.117  13.568 -0.3582 -0.3113  0.0635
10594W        W30128   2.285  13.800  14.807  0.0312  0.0961 -0.0077
10595W        W30129   7.707   2.530   5.024  0.0220  0.0710 -0.0821
10596W        W30130   2.889   0.797  16.276 -0.0653  0.2578  0.0245
10597W        W30131   9.677   8.382   0.933 -0.0817 -0.3306 -0.0474
10598W        W30132   7.586   5.860   3.825  0.1331  0.3308  0.1661
10599W        W30133  12.790   6.205  15.386 -0.0547  0.0924 -0.0992
10600W        W30134   8.949  12.687   4.009 -0.2959  0.2458  0.2628
10601W        W30135  11.965   8.994   0.417  0.0256 -0.0935  0.1266
10602W        W30136  12.132  16.716  14.483 -0.0811 -0.4709  0.1079
10603W        W30137   8.620  11.525  14.973 -0.2029 -0.0748 -0.1222
10604W        W30138   0.082   2.524  14.449 -0.0560  0.0442 -0.1934
10605W        W30139   0.066   6.951  11.537 -0.1532  0.2474 -0.1248
10606W        W30140   4.175  14.708  14.688 -0.2852  0.0042  0.1831
10607W        W30141   2.894   6.723  13.076  0.0166  0.1100  0.2537
10608W        W30142  16.803   9.730   2.428  0.0782 -0.1557  0.1911
10609W        W30143  11.562   8.427  15.455 -0.1262 -0.0964  0.0769
10610W        W30144  13.617  12.982   3.225 -0.0773  0.3624 -0.1184
10611W        W30145   4.286   9.619  14.575 -0.1344  0.1094 -0.0145
10612W        W30146  10.063   5.119   3.768 -0.1425  0.0120 -0.0862
10613W        W30147   2.682  17.472  13.393  0.1591 -0.2425 -0.5891
10614W        W30148  16.557   3.951   0.861 -0.1374  0.6730 -0.1351
10615W        W30149   8.657   7.689  12.998  0.2158 -0.0444  0.0128
10616W        W30150  10.284   2.078   1.325 -0.2386 -0.0850 -0.1022
10617W        W30151   6.717   5.854   4.481 -0.2451 -0.1031 -0.1528
10618W        W30152  10.089   6.365   5.057 -0.0403  0.2535  0.1253
10619W        W30153   7.913   8.864   1.464  0.2146  0.3176  0.2006
10620W        W30154   8.581   8.562  12.298 -0.2218 -0.0949  0.1249
10621W        W30155   7.666  10.270   3.511 -0.1794  0.0854  0.0406
10622W        W30156   6.864   8.746   6.054  0.0630 -0.2072  0.0191
10623W        W30157   2.512  12.201  16.107 -0.0594  0.0738 -0.0773
10624W        W30158  10.892   5.002   4.245 -0.0962 -0.2475 -0.1546
10625W        W30159  16.559   9.904  15.133 -0.1021 -0.1083  0.0885
10626W        W30160   3.957   7.835   1.005 -0.0743 -0.0407  0.0792
10627W        W30161  13.847   3.491   5.229  0.0797 -0.4391  0.0802
10628W        W30162   4.146   0.425   0.291 -0.0670  0.0105 -0.1608
10629W        W30163  10.856   2.137  13.667  0.0170  0.1389 -0.0111
10630W        W30164   8.797  10.383   2.871  0.1309 -0.2959 -0.0868
10631W        W30165  12.058  16.931   4.687  0.1101  0.2723 -0.0092
10632W        W30166  13.996   1.282  15.868 -0.1059  0.0194 -0.0887
10633W        W30167   9.263   2.911  14.299  0.0465  0.1066  0.2520
10634W        W30168  10.630  15.547  15.536 -0.0021 -0.2260  0.2215
10635W        W30169  15.885  14.428  12.823 -0.3152  0.2357 -0.2417
10636W        W30170  17.012   0.696  12.698  0.2945 -0.0620 -0.2683
10637W        W30171   2.166  12.013   1.263 -0.2381 -0.0034 -0.2017
10638W        W30172  16.365  15.600  16.261  0.2921  0.1848 -0.0356
10639W        W30173  17.144  16.958  15.889  0.1423 -0.1074  0.2916
10640W        W30174   7.590  11.922   2.807 -0.0395  0.0337  0.0576
10641W        W30175  11.217   0.886  14.031  0.0950 -0.4198 -0.0984
10642W        W30176  14.099   1.370   0.772  0.0184 -0.0135 -0.1967
10643W        W30177   3.383  12.262  16.352  0.0537 -0.0137 -0.0243
10644W        W30178   3.352  12.620   0.514  0.0413  0.0924  0.0195
10645W        W30179  16.034  17.382   3.832  0.0496  0.0163  0.0073
10646W        W30180   6.055   7.835  12.942 -0.0818 -0.2294 -0.0740
10647W        W30181   7.231   8.569  16.372 -0.5612 -0.3274  0.0262
10648W        W30182   7.740  14.539  15.453  0.1884 -0.1713 -0.0598
10649W        W30183   6.902  13.988  16.619 -0.0107  0.0612  0.2277
10650W        W30184  12.369  13.312   4.447  0.2356  0.1162 -0.2058
10651W        W30185   2.703  17.652  15.915 -0.0764 -0.0540 -0.0490
10652W        W30186   8.801   9.928  15.598 -0.1561 -0.0616 -0.0386
10653W        W30187   3.913  13.021  15.878  0.0731  0.1766  0.0206
10654W        W30188   8.044   9.832   1.409  0.0501  0.1649  0.0739
10655W        W30189  12.686  15.481   4.341 -0.0073 -0.2581 -0.0384
10656W        W30190  15.031  11.301  12.670  0.2735  0.1326 -0.1464
10657W        W30191  13.980   1.740   4.288 -0.2439  0.1625  0.5081
10658W        W30192  13.138   2.744  12.306  0.2024 -0.3117  0.3717
10659W        W30193   2.094  12.811   3.897  0.0014  0.2520 -0.2399
10660W        W30194  14.234  12.239  16.604 -0.1171  0.2652 -0.0847
10661W        W30195  11.492   9.047  16.171 -0.1265 -0.1821  0.0856
10662W        W30196   8.719   6.436  14.086 -0.2187  0.2102  0.2683
10663W        W30197  13.885   0.108   4.461 -0.2410  0.0017 -0.2403
10664W        W30198   4.007  13.118  12.299  0.1564 -0.0540  0.2966
10665W        W30199   3.253   7.471   2.324  0.1364  0.2506 -0.2634
10666W        W30200   7.277   4.165  14.128  0.2864  0.1997 -0.3540
10667W        W30201  14.350   7.507   2.447  0.0745  0.0224  0.1928
10668W        W30202  17.399  15.074   0.661  0.1610 -0.0275 -0.2552
10669W        W30203   6.182   7.190  14.332 -0.0754 -0.0627 -0.0661
10670W        W30204  14.404   8.631   0.059 -0.2912 -0.0171 -0.0739
10671W        W30205   4.284   9.797  16.804  0.3663  0.1010 -0.2084
10672W        W30206  11.952  12.310  14.202 -0.0976 -0.1541  0.2410
10673W        W30207   1.321   4.278   0.802 -0.0800  0.0092  0.2426
10674W        W30208  12.854   8.730  15.765  0.1912  0.3710 -0.2393
10675W        W30209   8.753   8.939  16.602  0.3179 -0.0177 -0.0180
10676W        W30210  14.507   6.325   4.811 -0.3820 -0.4012 -0.1562
10677W        W30211  15.939  10.253  12.349  0.3984  0.2678  0.3259
10678W        W30212   6.483   7.008   3.020  0.0368 -0.0792  0.0696
10679W        W30213  14.668   2.802   6.036  0.2950 -0.0286 -0.4266
10680W        W30214  10.107  17.530   0.807  0.0088 -0.0222 -0.3086
10681W        W30215   9.012  11.115   1.637 -0.2538 -0.1864  0.2916
10682W        W30216   0.092  15.998   2.797 -0.0471  0.1768  0.2068
10683W        W30217   5.491  16.180   0.189 -0.1138  0.3099  0.1866
10684W        W30218   7.237  10.443   4.806 -0.0000 -0.1136 -0.0350
10685W        W30219  17.279   1.199   4.816 -0.4214 -0.1955 -0.3444
10686W        W30220   4.605   9.189  12.990  0.0426 -0.1169  0.1509
10687W        W30221   6.608   3.608   5.040  0.0745  0.0547 -0.1822
10688W        W30222  17.170   8.846  12.638  0.1469 -0.0068  0.3399
10689W        W30223  15.380  15.199  15.271 -0.0058  0.0020 -0.1182
10690W        W30224   0.942  14.114   0.690 -0.2214 -0.2906  0.2263
10691W        W30225  17.518  14.991  13.720 -0.0350  0.2017  0.1158
10692W        W30226   5.809  15.930  14.391  0.2112 -0.1200  0.0566
10693W        W30227  11.520  16.858   4.040 -0.0363  0.1778 -0.2340
10694W        W30228  16.465  17.084  13.925 -0.2359  0.2601  0.2680
10695W        W30229  12.401  16.445   1.691  0.0307 -0.0213 -0.0028
10696W        W30230  16.150   6.569  13.458 -0.0611 -0.0284 -0.2688
10697W        W30231   9.523   8.066  14.394 -0.0691  0.1024 -0.1212
10698W        W30232   1.531   4.305   1.772 -0.0786  0.6469  0.3903
10699W        W30233   9.585   7.932   1.822 -0.3846 -0.0724  0.0556
10700W        W30234  16.743  17.271  14.629 -0.0536  0.0153 -0.4173
10701W        W30235   2.368   1.002   3.814  0.1578 -0.0398  0.1438
10702W        W30236  13.941   6.309   2.927  0.2704 -0.1288 -0.0869
10703W        W30237  15.249  17.277   3.125 -0.1754 -0.4772  0.0171
10704W        W30238  14.958  16.148  16.308 -0.0353 -0.0856 -0.1646
10705W        W30239   0.757   4.084  16.023  0.1311  0.0766  0.1165
10706W        W30240   6.358   3.916   0.658 -0.1573  0.0673  0.2334
10707W        W30241   5.384   7.658  14.776  0.3239 -0.3206 -0.2108
10708W        W30242  11.801  11.886  16.176 -0.1414  0.1859  0.0411
10709W        W30243   2.039   8.153   1.228 -0.3963  0.1583 -0.1926
10710W        W30244   3.820  12.097   4.314 -0.0481  0.0769  0.2982
10711W        W30245   7.754  17.233   2.827  0.1843 -0.1740 -0.1435
10712W        W30246  12.997   9.867  16.466  0.1676  0.0292 -0.0269
10713W        W30247   3.156  13.594  15.299 -0.0359 -0.1608 -0.0929
10714W        W30248   4.514  10.620  16.492  0.2014  0.0174  0.0240
10715W        W30249   9.884   9.735   1.869 -0.0820 -0.2517 -0.1295
10716W        W30250   7.087  16.677   5.153  0.2924  0.3315 -0.0830
10717W        W30251  13.130   2.398   0.113 -0.0244 -0.0407  0.3443
10718W        W30252   3.261  13.127   4.236  0.0916 -0.2610 -0.2778
10719W        W30253  10.796  16.555   0.993 -0.0440 -0.0239  0.0013
10720W        W30254   0.998   6.430  16.855  0.3651  0.0195  0.3890
10721W        W30255   1.689   5.331  13.497 -0.1581 -0.3071 -0.0587
10722W        W30256  15.229  11.466  11.879 -0.0933  0.0141 -0.0955
10723W        W30257   2.454  10.323  15.534 -0.2074  0.1204  0.1007
10724W        W30258   9.706  15.964   2.504 -0.0444  0.1187  0.0516
10725W        W30259   6.667  14.577  14.388 -0.0922  0.1821  0.0193
10726W        W30260   0.612   0.160   2.386 -0.2186  0.2164  0.0987
10727W        W30261   8.031  17.137   0.648  0.3316  0.0817 -0.2073
10728W        W30262  17.667  15.952  16.271 -0.1476 -0.0220  0.0570
10729W        W30263   5.379   4.652   1.425 -0.2779  0.1157  0.1211
10730W        W30264   0.618   7.969   4.043  0.0165  0.0180  0.1961
10731W        W30265   5.379   8.639   3.096  0.1295 -0.1193  0.3411
10732W        W30266  12.601   5.922   0.044 -0.3117  0.2486 -0.1723
10733W        W30267   3.511   2.440   1.027  0.0366 -0.3009  0.0553
10734W        W30268   5.945  16.427  13.107  0.0997  0.1358 -0.0317
10735W        W30269  17.483   5.410   0.420  0.0015 -0.0844  0.2454
10736W        W30270  11.998   4.117  13.440  0.2133  0.2126  0.1737
10737W        W30271   6.523   8.994   2.729 -0.0592  0.2930 -0.0560
10738W        W30272   4.984  10.745  16.394 -0.1887 -0.0609  0.2068
10739W        W30273  14.676  15.602   2.093 -0.1653  0.0283  0.1926
10740W        W30274   5.563   1.998  12.958  0.1349 -0.1975 -0.0302
10741W        W30275   5.601   9.716   2.662  0.0442 -0.1102  0.1539
10742W        W30276  12.636   4.017   4.430  0.2394  0.0776  0.1562
10743W        W30277  12.071  11.671   1.524  0.0274  0.0156  0.3029
10744W        W30278  13.909  15.304   2.965 -0.0474 -0.1063 -0.3767
10745W        W30279  11.746   8.396   1.845 -0.2366 -0.1091 -0.1326
10746W        W30280   4.174  12.756  16.271 -0.2665  0.2316  0.1254
10747W        W30281   4.245   3.168  14.231  0.3625  0.1546  0.2277
10748W        W30282   1.810  14.870  17.013 -0.3605  0.0936 -0.3070
10749W        W30283   4.563   4.384  13.207 -0.1535 -0.2432  0.1111
10750W        W30284   4.974  12.964  13.995 -0.0037  0.2366  0.4128
10751W        W30285   9.054   4.739   3.829 -0.0580  0.0158  0.2952
10752W        W30286  14.996  12.357   0.263 -0.0237 -0.0417  0.2829
10753W        W30287  13.323  13.620  16.901  0.1618  0.0828 -0.4856
10754W        W30288   0.835  10.877   4.560  0.1921  0.0892  0.3132
10755W        W30289  16.818   9.863  13.539 -0.3041 -0.2728 -0.1289
10756W        W30290   6.876   4.780  12.722  0.1457 -0.0191  0.4270
10757W        W30291   8.711  17.154  16.962 -0.0314 -0.0260 -0.0526
10758W        W30292  12.007   8.379  13.863  0.0936  0.2612 -0.2638
10759W        W30293   6.821  13.928   1.666  0.2214 -0.0528  0.0600
10760W        W30294   1.388  14.798   3.782  0.0278  0.2055 -0.1226
10761W        W30295   2.514   8.760   1.131  0.0663  0.3351  0.1577
10762W        W30296  10.182   8.255   5.249 -0.2455 -0.0244 -0.1600
10763W        W30297   8.076  11.076   1.347  0.3587  0.3653 -0.1130
10764W        W30298  17.563  17.006  14.849 -0.2220  0.2311 -0.1094
10765W        W30299  16.197   0.781  14.800 -0.1741  0.0578  0.2306
10766W        W30300   5.005   6.572  15.321 -0.3058  0.0417  0.1935
10767W        W30301   9.935  12.641   1.671  0.0984  0.2094 -0.2410
10768W        W30302  15.719   0.578   2.384  0.1928 -0.0823 -0.0977
10769W        W30303   0.865   7.320   0.473  0.1296  0.1937 -0.0243
10770W        W30304  12.766   6.081   1.000 -0.1369 -0.0239  0.1671
10771W        W30305  12.932   5.910  11.243  0.1468  0.1497  0.1147
10772W        W30306  15.335   7.617  15.646  0.4746  0.0568 -0.0387
10773W        W30307   6.628   6.783   0.328 -0.0421 -0.5348  0.3189
10774W        W30308   6.694   7.870  13.911  0.0357  0.0740  0.0371
10775W        W30309  16.580   7.037   0.527 -0.4263  0.1167 -0.2396
10776W        W30310  16.822  11.630   2.506  0.3638 -0.1139 -0.2799
10777W        W30311  12.107   8.441  13.368  0.0827 -0.1101  0.2814
10778W        W30312   6.826   6.866  15.778  0.2094  0.1810 -0.3704
10779W        W30313   9.525   3.194   2.121 -0.0592 -0.0704  0.0303
10780W        W30314  16.385  12.303  15.013  0.3421  0.0435 -0.0953
10781W        W30315  16.041  11.590  13.442  0.0695  0.0859 -0.0383
10782W        W30316   1.240   0.765  12.968  0.0033  0.1812 -0.0149
10783W        W30317   1.321  17.198  15.447  0.2616 -0.0644  0.1823
10784W        W30318   4.818   0.080  14.832  0.1506 -0.0371  0.0725
10785W        W30319  10.576   1.368   4.634 -0.1379  0.1516  0.0168
10786W        W30320  17.238  13.882   0.077 -0.0455  0.2458  0.0046
10787W        W30321  17.553  12.907  15.867  0.2000 -0.1127 -0.1115
10788W        W30322  14.422   0.280   1.641 -0.2023  0.0214 -0.1618
10789W        W30323  17.028   4.223  13.867  0.3065 -0.1376 -0.0041
10790W        W30324   6.744  15.814  14.320 -0.1080  0.0469  0.1170
10791W        W30325  13.033   7.411   2.136  0.1941 -0.0312  0.0117
10792W        W30326  12.261   1.936   4.675 -0.2135  0.0166  0.1041
10793W        W30327   3.361   3.624  14.608 -0.1966  0.0649  0.1160
10794W        W30328  14.959   4.513  12.888 -0.0479 -0.1271 -0.3380
10795W        W30329  14.568   4.873   3.927  0.0900 -0.0512 -0.0448
10796W        W30330   4.986  15.670  12.178 -0.2391  0.1505 -0.0717
10797W        W30331  14.538   5.653  14.100  0.2770  0.0845  0.0607
10798W        W30332   2.764   0.170  16.372  0.2454 -0.3335  0.3866
10799W        W30333   2.128   4.384  14.316 -0.0428 -0.1277 -0.0524
10800W        W30334   6.424   1.910  13.658  0.1655  0.2223 -0.0699
10801W        W30335   7.308  15.297  16.932  0.1731 -0.1934 -0.0625
10802W        W30336  12.658  12.968   0.244 -0.1120 -0.2975 -0.1659
10803W        W30337   1.925   7.697   2.646  0.1340  0.0326  0.2727
10804W        W30338  12.505  10.074  14.418 -0.0723  0.0610  0.1227
10805W        W30339  15.805  17.606  14.416 -0.2392  0.0245  0.0159
10806W        W30340   6.417   5.252   3.237 -0.0306  0.2359 -0.1789
10807W        W30341  13.027  11.507  15.437 -0.1568  0.1783  0.0214
10808W        W30342   9.768   0.483  16.536 -0.0247  0.3646  0.1285
10809W        W30343  10.795  14.019  14.373  0.0599  0.3754 -0.1413
10810W        W30344  13.390   1.917   0.754 -0.0562  0.0799  0.0617
10811W        W30345   8.621  11.462  16.967 -0.0911  0.0467  0.1525
10812W        W30346  12.177  13.861   3.832 -0.3648 -0.2087  0.1839
10813W        W30347  17.386  13.458   3.713 -0.0520 -0.2197 -0.4282
10814W        W30348  12.389   3.896  12.310  0.0111  0.0677 -0.0233
10815W        W30349   2.521   6.374  13.203 -0.0021  0.1490 -0.0143
10816W        W30350  17.316   7.106  15.769  0.3679  0.0390  0.0729
10817W        W30351  17.633  10.364   0.588  0.1204 -0.4762  0.2116
10818W        W30352  15.216  14.939  12.680 -0.1481 -0.1592  0.0375
10819W        W30353  10.343  16.696   2.040 -0.0485  0.2739  0.3359
10820W        W30354   5.175  14.500   1.375  0.0352  0.1488  0.1164
10821W        W30355  16.912   7.785  13.779  0.1750  0.1759 -0.2636
10822W        W30356   3.109   4.093  15.482 -0.1489 -0.0785  0.3780
10823W        W30357  13.755  10.233  13.505 -0.3978 -0.1344  0.1016
10824W        W30358  11.381  12.554  16.512  0.1375  0.0393 -0.0674
10825W        W30359   6.728   2.742   4.584  0.0557 -0.4512 -0.0743
10826W        W30360   8.756   6.797   4.058 -0.0374  0.0482 -0.3600
10827W        W30361  13.486   1.734  15.299  0.0311 -0.2954  0.0098
10828W        W30362  11.858  14.385   1.126 -0.0050 -0.0308 -0.0592
10829W        W30363   0.657   4.377  13.101  0.3799 -0.1240  0.0787
10830W        W30364  14.899  12.488   4.661  0.2466 -0.0058  0.2158
10831W        W30365   2.626  15.774   3.953  0.0755  0.1751 -0.2618
10832W        W30366   6.763   0.369  17.037  0.0861  0.2651  0.2540
10833W        W30367   6.861  12.335  11.789  0.0403  0.3852 -0.0498
10834W        W30368   9.672  12.020  13.009  0.3604  0.0971  0.1705
10835W        W30369   2.161   8.530   1.645 -0.1638 -0.2383 -0.2193
10836W        W30370   7.599  13.941   4.195 -0.1833 -0.2614 -0.0040
10837W        W30371   5.223   4.766   3.367 -0.1657 -0.0678  0.1577
10838W        W30372   1.804   2.776   0.049 -0.0289 -0.0525 -0.1885
10839W        W30373   5.007   8.494  14.617  0.2315 -0.1520 -0.0557
10840W        W30374  11.243   6.584  16.216  0.4619 -0.1053  0.1045
10841W        W30375  13.126   5.331  14.543  0.1305 -0.5011  0.0942
10842W        W30376   5.972   2.370  13.060  0.2106  0.1993  0.3244
10843W        W30377   4.362   3.710  15.568 -0.1776  0.1517 -0.3959
10844W        W30378  13.762   7.428   4.382  0.1700 -0.1528 -0.3563
10845W        W30379  13.813  13.129  12.778  0.2664 -0.2786 -0.2167
10846W        W30380  16.142   9.101   1.176  0.0358  0.0918 -0.1819
10847W        W30381  17.435   2.564   3.058  0.0682 -0.0022 -0.0152
10848W        W30382  11.888   8.321  16.471 -0.2965 -0.1977 -0.2297
10849W        W30383   1.022  12.163   1.415 -0.4774  0.0517 -0.0580
10850W        W30384  13.106   2.632  14.064  0.0592 -0.1181 -0.1764
10851W        W30385   4.401   5.041   3.399 -0.0284 -0.3157  0.0801
10852W        W30386   2.666   5.921  15.089  0.0651 -0.1880 -0.0426
10853W        W30387   2.476  11.919  11.823  0.0412 -0.0254 -0.2022
10854W        W30388  10.289  15.530   4.525  0.1140  0.0363  0.1705
10855W        W30389   9.660   0.002   0.635 -0.2998  0.1124 -0.1304
10856W        W30390  14.870   2.782   4.987  0.0266 -0.0241 -0.2185
10857W        W30391   8.477   2.204   4.097 -0.0422 -0.2534  0.2482
10858W        W30392   7.176  15.149   4.627  0.1156 -0.1499  0.1633
10859W        W30393   5.912   4.212   0.472 -0.1225  0.0336 -0.3925
10860W        W30394   5.594  15.513  13.120 -0.1433 -0.0549  0.3115
10861W        W30395   2.927  14.221   2.161 -0.1794  0.0859 -0.0224
10862W        W30396  11.129  15.886  12.883  0.3304  0.1448  0.1330
10863W        W30397   4.551   2.296   0.184 -0.1938 -0.1490 -0.0125
10864W        W30398  15.108   0.380   3.275  0.0990  0.1350 -0.0833
10865W        W30399   7.434   7.372  13.501  0.3046  0.0880  0.1603
10866W        W30400  12.334  17.497  12.680 -0.3065  0.0496  0.4077
10867W        W30401  16.922   3.085   1.512  0.0799  0.1508 -0.1639
10868W        W30402   4.257  13.268  13.487  0.2007  0.2547 -0.4008
10869W        W30403  15.600   1.538   4.992  0.1406 -0.0442  0.0481
10870W        W30404  16.528   6.444  12.401 -0.2254 -0.3254  0.1963
10871W        W30405  11.908   3.866  15.698  0.0759 -0.3251  0.1058
10872W        W30406  11.568   0.568  16.297  0.2362 -0.0351  0.0158
10873W        W30407   3.442   7.847   3.588 -0.1119 -0.2588  0.0479
10874W        W30408   3.269  13.099   0.229  0.1708  0.1636  0.4138
10875W        W30409  17.410  17.529  17.023  0.1733 -0.4117  0.2894
10876W        W30410  10.653   3.665   4.960  0.0911 -0.0268 -0.0172
10877W        W30411   3.535  13.344  15.048 -0.0398  0.1500 -0.0551
10878W        W30412   7.729  16.043  15.700 -0.2034  0.1412  0.0116
10879W        W30413  14.076  12.396  12.940 -0.0344 -0.0309  0.1305
10880W        W30414   4.735   9.944  16.864 -0.0788 -0.3305 -0.1886
10881W        W30415  14.467  12.771  12.169 -0.0677  0.3345  0.0926
10882W        W30416   6.234   0.227  12.029  0.2258  0.2174  0.0552
10883W        W30417   2.008   7.514   3.490  0.2338  0.1046 -0.1635
10884W        W30418  11.417  10.867   0.801 -0.1473 -0.0855 -0.2391
10885W        W30419  12.237  10.871   2.545  0.1614 -0.1573  0.3754
10886W        W30420  12.093   7.066  16.974  0.1716 -0.0443  0.2130
10887W        W30421   8.338   2.658  12.111 -0.0886 -0.1777 -0.1316
10888W        W30422  12.985   0.463   0.887  0.3542 -0.0065 -0.1975
10889W        W30423  13.190   2.916  13.680 -0.3857  0.4288  0.0570
10890W        W30424  17.243   9.357  12.568 -0.2858 -0.2307 -0.0060
10891W        W30425   0.952   8.030   1.001  0.2500  0.0944 -0.2180
10892W        W30426  16.379   2.654   6.041  0.1323  0.1303 -0.0123
10893W        W30427   2.001  15.005  16.415  0.2360 -0.0008  0.1467
10894W        W30428  12.561   6.976   1.508 -0.2283  0.0310  0.0017
10895W        W30429  13.374   5.480   0.422  0.0531  0.1195 -0.1154
10896W        W30430   7.950   1.384  13.992 -0.1360  0.1537  0.0781
10897W        W30431  11.273   0.185   1.194 -0.1182  0.0558  0.0688
10898W        W30432   5.612   3.036  15.653  0.2175 -0.0847 -0.0386
10899W        W30433  12.943   0.789  16.071  0.2759 -0.2104 -0.1804
10900W        W30434   1.531   0.536  13.979  0.1617 -0.0754 -0.2169
10901W        W30435  13.864   4.454   0.715  0.1681 -0.1606  0.1401
10902W        W30436  12.917   9.625   1.189  0.0556 -0.1486 -0.0112
10903W        W30437   4.559   6.185   1.344 -0.0667 -0.1596  0.2433
10904W        W30438  16.917  13.603   0.853 -0.1512  0.0473  0.0532
10905W        W30439  14.062  14.514  13.677 -0.2353  0.0221 -0.0571
10906W        W30440  15.428   2.400   2.769  0.0354 -0.0555  0.0569
10907W        W30441  12.460   6.655  16.981  0.2850 -0.1216 -0.0011
10908W        W30442   0.565  17.066   1.513  0.2054  0.1554 -0.0237
10909W        W30443   8.502   4.963   0.192  0.0866 -0.2842 -0.2207
10910W        W30444   5.154   4.564  16.379  0.0893 -0.0183 -0.0386
10911W        W30445   7.701   2.067  16.738  0.0765  0.0030 -0.0306
10912W        W30446   9.509  16.550   2.465  0.0467  0.0714  0.0971
10913W        W30447   5.924   9.841   2.285  0.2538 -0.1719  0.3039
10914W        W30448   0.257  14.368   1.088 -0.1215 -0.1200 -0.0822
10915W        W30449   0.957   1.056   4.134 -0.0624 -0.0566 -0.1297
10916W        W30450   4.750   3.480  15.838  0.0366  0.0104  0.0732
10917W        W30451  12.740  13.514   2.059 -0.0460 -0.2318 -0.0917
10918W        W30452   3.736  16.699  16.012 -0.3672  0.1306 -0.2018
10919W        W30453   4.056   6.920  12.674  0.1583  0.1003  0.2304
10920W        W30454   2.132  14.106   4.438 -0.2721 -0.0209  0.0704
10921W        W30455  16.878  12.643   4.094  0.0872 -0.0095  0.0899
10922W        W30456   6.166  14.962  12.379 -0.0327 -0.0828  0.1521
10923W        W30457  17.479  10.837   1.220  0.1572 -0.0022 -0.1690
10924W        W30458   9.834   2.027  15.160  0.0682  0.2168  0.1610
10925W        W30459  11.272   5.676   3.324  0.0360 -0.1708 -0.3053
10926W        W30460   9.773   0.780   3.444  0.0545  0.2475 -0.1551
10927W        W30461   1.468   2.798   1.730  0.5975 -0.1082 -0.1086
10928W        W30462   9.278  13.817   2.095  0.4167  0.1917  0.1223
10929W        W30463   6.463   4.306  14.376  0.0749  0.0635 -0.3515
10930W        W30464   6.971  11.257  15.908  0.0189 -0.0715 -0.0719
10931W        W30465   2.352   0.118   0.136  0.4763 -0.1310 -0.2152
10932W        W30466   4.703  16.753   2.889 -0.3104 -0.2384 -0.2684
10933W        W30467   9.280  16.200   3.289  0.0823  0.0940  0.1928
10934W        W30468  12.680   2.481   1.875  0.0186 -0.0401 -0.3374
10935W        W30469  14.760  15.637   0.497  0.2142 -0.0144  0.0516
10936W        W30470   3.561   8.425  15.219  0.1207  0.0126 -0.0175
10937W        W30471   0.051  15.624   1.199  0.3250  0.4537  0.2539
10938W        W30472  16.135  17.427  13.907  0.2456 -0.3240  0.0036
10939W        W30473  15.048   5.856   2.900 -0.0864  0.1366  0.2952
10940W        W30474  12.343   3.253   2.451 -0.1028 -0.1133  0.2695
10941W        W30475   2.015  11.688   1.576  0.3393  0.1442  0.1410
10942W        W30476   9.302  17.661   4.725  0.0356  0.0434  0.0810
10943W        W30477  11.302   4.128   1.226  0.0343  0.0650  0.0594
10944W        W30478   9.709   7.690   5.130 -0.0755  0.0385 -0.1984
10945W        W30479  11.804   4.082   1.508  0.0524  0.0334  0.0594
10946W        W30480  17.267   7.745  16.704 -0.0628 -0.2500  0.1173
10947W        W30481   6.321   5.380   5.064 -0.0947  0.0535  0.0095
10948W        W30482   0.640   6.926   1.323 -0.2927 -0.0862 -0.0223
10949W        W30483   1.099  11.335  15.290 -0.1578  0.0702  0.2992
10950W        W30484  11.902  15.270   0.432 -0.0223 -0.1100  0.4350
10951W        W30485   0.616  13.088  14.605 -0.0999  0.1619 -0.3277
10952W        W30486  10.864   0.362  12.071  0.1013 -0.1238  0.1375
10953W        W30487   0.580   4.653  15.843 -0.0767  0.1516  0.1572
10954W        W30488   9.457   9.431  13.899  0.0163  0.1919  0.0987
10955W        W30489   8.616   8.851   3.131  0.2303  0.1722 -0.2084
10956W        W30490  16.842  10.778   5.728 -0.0790 -0.2024  0.1674
10957W        W30491  15.875   7.333   0.402 -0.0466 -0.2313 -0.1743
10958W        W30492  14.173   6.631  15.715 -0.0976 -0.3678  0.0693
10959W        W30493  12.201  12.280  12.852  0.0158  0.2485 -0.2240
10960W        W30494   9.663   8.419   1.747 -0.4465 -0.0200 -0.1044
10961W        W30495  11.845   7.203   3.045 -0.0868  0.0636  0.1586
10962W        W30496  11.630  10.174  12.798 -0.2074 -0.2975 -0.0266
10963W        W30497  10.023  10.520  14.399  0.4859  0.1100  0.0928
10964W        W30498   1.693   4.316   1.260  0.0755 -0.1618  0.0904
10965W        W30499  15.684   3.068   1.822 -0.1386 -0.2615  0.0272
10966W        W30500  10.954   3.253   0.807 -0.0057  0.0734  0.1136
10967W        W30501   9.589   1.227  13.226 -0.0694  0.3088  0.1479
10968W        W30502   4.178   0.985  12.478  0.0755  0.2020  0.1575
10969W        W30503   4.547  17.362   2.176 -0.1093 -0.3068 -0.0476
10970W        W30504  10.820   6.928  13.727  0.0400  0.1592  0.1795
10971W        W30505   7.980  10.255   4.509  0.0100 -0.2169 -0.0873
10972W        W30506   2.561   6.817  14.730 -0.1879 -0.2255  0.0693
10973W        W30507  14.207   2.145  16.016  0.0529 -0.0419 -0.0750
10974W        W30508  13.654   5.878   2.107  0.0077  0.2165 -0.0255
10975W        W30509   1.116  11.935  13.324  0.2093  0.1393  0.2042
10976W        W30510   6.401  14.136  15.179 -0.2377  0.0201 -0.1373
10977W        W30511  17.246   7.073  14.317  0.0916  0.0836 -0.1010
10978W        W30512   9.691  14.624   2.445 -0.2602  0.0874  0.1398
10979W        W30513  10.426  17.423  16.911 -0.0022  0.1533  0.2589
10980W        W30514  16.618   3.389  13.201 -0.1311  0.1995  0.0149
10981W        W30515   0.968   8.125  16.740 -0.0519  0.2512  0.1336
10982W        W30516  13.408   8.413  15.825 -0.1029  0.2450  0.2583
10983W        W30517   5.228  12.560   0.194  0.5008 -0.0326 -0.0860
10984W        W30518   1.749   8.434  16.107 -0.1734  0.2741 -0.0544
10985W        W30519  12.385  15.272  16.582 -0.0745  0.0863 -0.1154
10986W        W30520  14.601  10.197   2.897 -0.2136 -0.1515 -0.1483
10987W        W30521  17.262   5.636   3.883  0.0891  0.0109  0.0936
10988W        W30522  16.021  17.359  16.638  0.0435  0.0492  0.2424
10989W        W30523   5.034   7.378  13.259  0.2743 -0.0473 -0.1629
10990W        W30524  12.907  11.885  12.623  0.2359 -0.0539  0.0239
10991W        W30525  14.206   1.360  14.761  0.1927  0.0250  0.0576
10992W        W30526   1.991   5.870   2.403 -0.1761 -0.2278 -0.0308
10993W        W30527  15.751  14.003  16.922  0.0316  0.2521 -0.0789
10994W        W30528  11.781  15.357  13.200 -0.0621  0.2053 -0.5098
10995W        W30529  16.467   7.796  12.188  0.1440  0.1223  0.1332
10996W        W30530  10.211   2.833  17.060 -0.0377 -0.1104 -0.3878
10997W        W30531  10.916   2.077  16.362 -0.0477  0.0011 -0.0184
10998W        W30532  15.923   7.151   5.042  0.2172  0.3118 -0.0179
10999W        W30533   8.123  15.714   4.968  0.1479 -0.0525  0.3003
11000W        W30534   7.501  16.826  13.291 -0.0282  0.2448 -0.3347
11001W        W30535   7.368   8.671   2.878  0.0362 -0.1000 -0.0593
11002W        W30536   9.209   2.050  13.579 -0.0012  0.1408  0.0604
11003W        W30537   6.857  15.716   3.701  0.0396 -0.0268 -0.2641
11004W        W30538   8.311  10.411  13.100 -0.1238  0.2300 -0.0186
11005W        W30539   6.395  16.523  14.471 -0.4610 -0.1168  0.0647
11006W        W30540   1.016  13.344  14.928  0.3016 -0.3914 -0.1489
11007W        W30541   7.592  16.553   1.756 -0.2174  0.0442  0.1161
11008W        W30542  17.600   0.972   4.227 -0.2474  0.2200  0.1262
11009W        W30543   7.811   9.807   3.354 -0.0189  0.0304  0.1436
11010W        W30544   3.431   4.535  15.699 -0.0558 -0.0217  0.0223
11011W        W30545  12.304  16.567   4.425 -0.0488 -0.0791 -0.1224
11012W        W30546  13.677   4.720  13.749  0.0330 -0.1409  0.3020
11013W        W30547   4.633  13.954  14.509  0.0812 -0.0811  0.0877
11014W        W30548   5.875   2.694  15.996 -0.0538  0.0243 -0.0283
11015W        W30549  10.943  17.659  14.710 -0.0951  0.1197 -0.1961
11016W        W30550  13.640  11.683  13.336 -0.0458 -0.1220 -0.0502
11017W        W30551  14.839   6.149  13.922 -0.1926  0.1656  0.0607
11018W        W30552   5.538  13.099  12.455  0.0223 -0.2030 -0.0308
11019W        W30553   5.637   3.908   4.956 -0.0024  0.1322  0.1151
11020W        W30554  12.359   3.184  16.964  0.2721  0.0886  0.1181
11021W        W30555   7.271   4.924   1.397 -0.0677  0.1152 -0.0483
11022W        W30556  11.100   3.851  13.063 -0.0842  0.0751  0.0904
11023W        W30557   8.996   2.219  13.991  0.3710 -0.0108  0.0902
11024W        W30558   4.492  17.032  16.503 -0.3628 -0.1691 -0.1149
11025W        W30559  11.685   3.570  15.279 -0.0017  0.2708 -0.1371
11026W        W30560  14.456  14.821  15.870 -0.0428  0.0698  0.0484
11027W        W30561  10.662  16.187   3.505  0.1402  0.0961  0.0952
11028W        W30562   1.088   0.220  12.891  0.3552  0.0516  0.1944
11029W        W30563   3.644  13.628  12.278 -0.0625 -0.2506  0.0084
11030W        W30564   2.063  16.454  16.123  0.1157 -0.1179  0.1759
11031W        W30565  12.222   4.884   4.010  0.1864 -0.1870 -0.3511
11032W        W30566   7.578   9.236   0.340 -0.1259 -0.0222  0.3187
11033W        W30567  12.675  11.812  15.668  0.1230  0.1416  0.2530
11034W        W30568   1.121  15.601   4.312  0.0660 -0.1286  0.1662
11035W        W30569  11.468   4.002   3.648  0.1682  0.3258  0.0483
11036W        W30570   6.380   0.082  16.855 -0.1410  0.3098 -0.2178
11037W        W30571  10.016   6.108   4.099 -0.1156  0.0289  0.1312
11038W        W30572  11.598  10.539   1.970 -0.0029 -0.5560  0.1094
11039W        W30573   3.234  17.017   4.623 -0.0445  0.0972 -0.2235
11040W        W30574   3.923  13.168   4.507 -0.0569 -0.1453  0.1635
11041W        W30575   9.683  11.817   0.753  0.4233  0.3052  0.1372
11042W        W30576  17.029  13.475   4.983  0.0677 -0.3442 -0.1491
11043W        W30577  10.440   8.862   4.654  0.0857  0.3621  0.1406
11044W        W30578   9.263   7.727   3.237  0.0311 -0.0427  0.0743
11045W        W30579   1.618   3.790   0.804  0.1231 -0.2662  0.0039
11046W        W30580   4.630   6.882   2.939  0.0281 -0.1870 -0.1628
11047W        W30581  16.426  15.715  14.286  0.0366  0.0510  0.1481
11048W        W30582  15.183  12.003   3.238 -0.1442 -0.2031  0.0313
11049W        W30583   6.900  13.584   3.937 -0.2595 -0.1746  0.0021
11050W        W30584   9.488   2.553  12.953 -0.0308 -0.1733 -0.1626
11051W        W30585  11.067   6.576   3.202  0.1440 -0.0859  0.0365
11052W        W30586  12.421   8.597  16.297 -0.1760  0.2192 -0.0018
11053W        W30587  11.904   2.269   0.204  0.0652 -0.0964  0.0602
11054W        W30588   3.518  12.608   3.514 -0.1759  0.0673  0.0131
11055W        W30589   7.380   6.452   4.686  0.1351  0.2469 -0.3577
11056W        W30590  10.095   7.367   3.860  0.1798 -0.1007  0.0115
11057W        W30591   5.922   3.793  13.460 -0.0573  0.0692  0.0389
11058W        W30592   3.311   2.445  15.078 -0.2273  0.0449  0.2681
11059W        W30593   1.592   6.352  16.874  0.0909  0.0905  0.0748
11060W        W30594  13.548   5.955   3.123  0.1400 -0.0656 -0.0304
11061W        W30595   3.546  12.347   2.725  0.1898 -0.0124 -0.2641
11062W        W30596   1.824  12.913  12.040  0.2563 -0.0494 -0.0704
11063W        W30597  14.532   2.447   2.626  0.0818 -0.1285  0.1259
11064W        W30598   0.208   8.480   1.304 -0.2372  0.1089  0.1521
11065W        W30599  13.406   7.826  12.338  0.0389  0.2231 -0.1018
11066W        W30600   8.235  10.476   5.046 -0.0471 -0.1702 -0.0935
11067W        W30601  16.954   1.717   1.359 -0.1164  0.1862 -0.3039
11068W        W30602   5.366  15.181   3.628 -0.0896 -0.0846 -0.1568
11069W        W30603   4.980  17.325  15.573 -0.2797 -0.1458  0.2664
11070W        W30604   2.288  17.215  13.832 -0.1017  0.0034  0.2576
11071W        W30605   9.948  16.953   2.327  0.2666 -0.1190 -0.3387
11072W        W30606   8.620   0.131  13.609  0.1996 -0.0744 -0.0591
11073W        W30607  15.085   1.923  15.860  0.0986 -0.1105 -0.0001
11074W        W30608  15.435  16.518  15.164 -0.1040 -0.0887  0.2093
11075W        W30609  12.827  15.308  13.516  0.0771  0.0637 -0.0885
11076W        W30610  15.034   4.027   4.720 -0.3113  0.1028  0.0547
11077W        W30611  11.046  13.327  13.240  0.0328 -0.1283 -0.0699
11078W        W30612  11.165   2.245   4.551  0.2474  0.1596  0.1540
11079W        W30613   6.660  12.874   4.491 -0.0420  0.3789 -0.0306
11080W        W30614   8.158   1.361   4.479  0.4369  0.0109 -0.0840
11081W        W30615   9.737   9.025  16.865  0.4556 -0.0866  0.0348
11082W        W30616   6.466  12.856   4.922 -0.2266  0.1535  0.1098
11083W        W30617  11.067   0.381  12.728 -0.0923  0.3313 -0.3251
11084W        W30618  12.649   0.590  17.019  0.0984 -0.2243 -0.1208
11085W        W30619   8.312  17.581   1.251 -0.1389  0.1677 -0.1745
11086W        W30620  10.297  15.167  11.177  0.0871  0.0142  0.0600
11087W        W30621  17.508   5.909  12.765  0.0546 -0.0301  0.1635
11088W        W30622   6.150   4.763  15.769 -0.0657  0.0979  0.4367
11089W        W30623  15.344   7.850   3.896 -0.3364 -0.0209  0.2295
11090W        W30624  11.283  14.137   3.072 -0.1123  0.0528 -0.1734
11091W        W30625   5.693   2.638   1.335 -0.1294 -0.0283  0.1807
11092W        W30626   3.221  12.776  13.706  0.1784  0.2210  0.1007
11093W        W30627   5.822   7.364   3.502  0.0458 -0.0989  0.1300
11094W        W30628  11.628   7.014  14.136  0.1799  0.0972 -0.1353
11095W        W30629  10.700  10.885  15.875 -0.0479 -0.1525  0.2446
11096W        W30630  17.327  16.304   2.336  0.0091 -0.0600  0.1161
11097W        W30631  12.542  16.553  13.102  0.2109  0.0592  0.0980
11098W        W30632   5.523   2.197  16.823 -0.1640  0.1283  0.0068
11099W        W30633  15.658  11.560  16.106 -0.0472  0.2737  0.1815
11100W        W30634  11.074   1.470   2.063 -0.2493 -0.2430  0.2647
11101W        W30635  16.027   7.491  15.029  0.3020  0.1347  0.0307
11102W        W30636  14.524  14.360  15.268 -0.3427 -0.0084  0.2560
11103W        W30637   0.640  16.330   2.063  0.0105  0.0375 -0.1645
11104W        W30638   9.442   9.532   2.214  0.2711 -0.0149  0.0049
11105W        W30639   0.054   1.997   1.577  0.0377  0.5196  0.1996
11106W        W30640   7.233  10.960   1.427  0.2616 -0.1611  0.0910
11107W        W30641   6.988  11.878   1.298  0.2223  0.0259  0.2044
11108W        W30642  10.486   5.998   2.806  0.1943 -0.1626 -0.0921
11109W        W30643   4.185   2.135  13.325 -0.1234  0.0565 -0.0668
11110W        W30644   3.655  13.792   5.824  0.1311  0.1818  0.1437
11111W        W30645   9.111   0.083  12.354 -0.1100 -0.2322  0.0053
11112W        W30646   3.096   3.624   1.019 -0.2120  0.2463 -0.1592
11113W        W30647   6.332   5.040  11.937 -0.0343  0.1588 -0.0407
11114W        W30648   4.683  15.956   3.017 -0.0300  0.0588 -0.0340
11115W        W30649  14.689  13.057   2.315 -0.0047 -0.0206 -0.0721
11116W        W30650   3.220   2.329  12.517  0.3316 -0.1206 -0.1640
11117W        W30651   3.592   4.685  16.629  0.1184  0.1298 -0.0256
11118W        W30652   1.836   5.668  12.912 -0.1084  0.1847  0.2069
11119W        W30653   7.088  14.325   0.975 -0.0131 -0.0743  0.0134
11120W        W30654  14.454  15.897  13.880 -0.1600  0.0578 -0.2545
11121W        W30655  16.103   6.548   3.552 -0.0751  0.1467 -0.0264
11122W        W30656   0.438   4.700  14.379  0.1353  0.1447  0.0118
11123W        W30657   7.409  13.800   4.636  0.1092  0.2473  0.0025
11124W        W30658  15.256   8.052  14.990 -0.3065  0.1530  0.3139
11125W        W30659   3.090  10.537   2.162 -0.2921 -0.0144  0.0653
11126W        W30660   9.562   3.946   1.477 -0.2610  0.2632  0.1646
11127W        W30661  13.138  14.924   4.821  0.0244  0.2286  0.3534
11128W        W30662  15.738   4.104   1.825 -0.2110  0.1481 -0.2153
11129W        W30663   6.985  11.894   4.471 -0.1133  0.0342  0.1043
11130W        W30664  10.826   3.728   0.810 -0.1050 -0.0814  0.0549
11131W        W30665   5.199   8.719   1.936  0.1227 -0.1023  0.0225
11132W        W30666  13.209   4.643   5.317  0.0812  0.0978 -0.0393
11133W        W30667  14.981   8.462  12.821 -0.4586 -0.2936  0.0308
11134W        W30668  10.093  12.428  12.685 -0.1359 -0.0102 -0.0730
11135W        W30669   4.282  14.154  13.083  0.2387  0.0189  0.2048
11136W        W30670   4.960   8.371  14.111  0.1977 -0.1899  0.0667
11137W        W30671   3.310   3.936   3.901 -0.1127 -0.2719  0.4948
11138W        W30672   2.191   8.195  12.375 -0.1190 -0.0843  0.1859
11139W        W30673  13.595  11.112   2.905  0.0028  0.0779  0.3564
11140W        W30674   8.338   9.200   3.798 -0.2003  0.0044  0.0161
11141W        W30675  11.996  16.895   1.787 -0.0966  0.0977 -0.1121
11142W        W30676  14.622  11.971   3.126  0.2555  0.1113 -0.2107
11143W        W30677  15.356   8.234  14.508  0.0255 -0.1480 -0.3687
11144W        W30678  16.130   7.636  14.109 -0.1232 -0.3018 -0.1158
11145W        W30679  13.740   6.493  12.118 -0.0412 -0.0908  0.1221
11146W        W30680  14.932   9.605  16.437 -0.0212  0.1688  0.1444
11147W        W30681   2.273   1.702   0.920  0.0468 -0.2590  0.0986
11148W        W30682   0.764   6.713   3.703 -0.2845  0.1377  0.2084
11149W        W30683   1.360  11.272  14.478 -0.0208  0.2444  0.1783
11150W        W30684   8.574  10.588   0.403 -0.0241  0.0731 -0.0048
11151W        W30685  15.326   1.927   0.779  0.2592  0.1507  0.1439
11152W        W30686   3.629  15.686   0.321  0.0577 -0.4428  0.1322
11153W        W30687   5.847   8.312   3.828  0.1401  0.1556 -0.0673
11154W        W30688   0.467   7.498  16.314  0.0267  0.3106  0.2588
11155W        W30689  17.035   2.248   2.053 -0.0694  0.1415  0.0554
11156W        W30690   2.106  13.432   2.648  0.1854  0.0320 -0.3328
11157W        W30691   5.181   0.756   2.815  0.2574  0.0685 -0.2202
11158W        W30692  10.535  10.660  15.299  0.3784  0.0795  0.1784
11159W        W30693   9.802  13.172   5.010  0.1725 -0.0910 -0.0995
11160W        W30694   3.479   7.991  16.348 -0.5657 -0.1913  0.0986
11161W        W30695   8.813   5.522   2.713  0.1875  0.1229 -0.1789
11162W        W30696   5.385   8.269  12.606 -0.1850  0.0393  0.1125
11163W        W30697   8.134   1.962  12.648  0.3078 -0.2883  0.0500
11164W        W30698   3.537   9.118   4.300  0.2431  0.1760  0.0741
11165W        W30699   9.743  10.572  13.507 -0.0477 -0.0425 -0.2281
11166W        W30700   2.117   3.896   4.921  0.3116  0.0751  0.1808
11167W        W30701  16.845  17.225   2.528 -0.0622 -0.0814  0.0837
11168W        W30702   0.112  15.528   3.412  0.2480  0.1267 -0.0505
11169W        W30703   9.465  14.721   1.739 -0.1815 -0.1367  0.2724
11170W        W30704   9.327  16.191  13.304  0.0537  0.1379  0.0471
11171W        W30705   7.509  12.397  12.465 -0.0783  0.0436  0.1352
11172W        W30706   6.111   3.194  13.648 -0.1351 -0.1673  0.0248
11173W        W30707  12.473   4.376  12.236 -0.1521 -0.2121  0.1586
11174W        W30708   2.260   9.437  12.990 -0.0377  0.1550 -0.0174
11175W        W30709   4.794  16.746  16.850 -0.2093 -0.3293  0.2590
11176W        W30710   9.338  15.760   3.127  0.5268  0.0300 -0.1071
11177W        W30711   5.533   2.522  15.650 -0.1398 -0.0440  0.0146
11178W        W30712  11.354  12.830   2.990  0.0310  0.1789 -0.0740
11179W        W30713   5.150  10.078   4.003  0.0221  0.1213  0.0734
11180W        W30714  10.374  17.054   0.169  0.2471 -0.0607 -0.2836
11181W        W30715   0.529   1.850   2.773 -0.1393  0.0956  0.1379
11182W        W30716   8.282   2.951  14.070  0.3592 -0.0692 -0.0918
11183W        W30717  16.249  16.169  14.164 -0.0052 -0.1564  0.1152
11184W        W30718  16.971   5.013  12.372  0.0328 -0.0029  0.1795
11185W        W30719   7.967  15.790   1.275 -0.0236  0.2255  0.3047
11186W        W30720   7.162   7.134  14.892  0.1919 -0.1403  0.0368
11187W        W30721  15.461   3.648   0.151 -0.3137 -0.1882 -0.1014
11188W        W30722   2.023  17.517   3.167  0.2457 -0.1854 -0.1108
11189W        W30723  14.531   9.609   2.631 -0.2988 -0.0097  0.2929
11190W        W30724   1.616   8.891   3.869 -0.0625  0.1092  0.1621
11191W        W30725  15.378   7.665   0.510 -0.1181 -0.0370  0.3761
11192W        W30726  14.660   5.972  16.591 -0.0456 -0.0482 -0.2881
11193W        W30727   7.357  12.442  17.005 -0.2137 -0.0650  0.2463
11194W        W30728   6.262   7.572   0.352  0.1362 -0.0404 -0.1753
11195W        W30729   3.880   1.350   0.353 -0.0418 -0.0111  0.0830
11196W        W30730   0.239  10.590  12.869  0.0157  0.1225  0.1532
11197W        W30731   5.303   8.957   2.553  0.3721  0.0847 -0.0167
11198W        W30732   8.739  15.215   2.440 -0.1244 -0.5295  0.0500
11199W        W30733  12.397  11.179  17.038 -0.2970  0.1178  0.2013
11200W        W30734   6.470   3.430   3.307  0.3212  0.0186 -0.0870
11201W        W30735  15.738   8.321  13.524  0.3468  0.1418  0.2310
11202W        W30736  15.867   1.710   2.386  0.3480  0.0389 -0.0260
11203W        W30737  12.981   5.333  16.346  0.0970  0.0140  0.0683
11204W        W30738  12.465  13.259   4.951  0.0142  0.1992  0.0347
11205W        W30739   2.034   9.382  16.534  0.1314  0.2613  0.1716
11206W        W30740   7.441   2.918  11.942 -0.2271 -0.3064  0.0141
11207W        W30741  16.865  11.083   0.833  0.0226  0.0719  0.1633
11208W        W30742   0.557   6.208  13.963  0.1137  0.4345  0.3317
11209W        W30743  14.210   2.025   2.420  0.1851 -0.0265  0.1294
11210W        W30744   6.095   4.300   2.156  0.3225 -0.1120  0.0002
11211W        W30745   4.668  15.028  12.885 -0.0086  0.1354 -0.0760
11212W        W30746   3.534   1.417  13.564  0.0201 -0.2174  0.0425
11213W        W30747   6.164   9.542   1.944  0.1022 -0.0526 -0.2143
11214W        W30748  11.144  11.368  12.572 -0.1424  0.1523  0.1722
11215W        W30749  10.703  11.347   4.461 -0.0405  0.3055 -0.3403
11216W        W30750  15.273  11.005  15.437  0.0039  0.1248  0.0284
11217W        W30751   3.390   2.187   3.014 -0.0242 -0.0532 -0.0456
11218W        W30752  10.687  12.831  16.014  0.2013 -0.0673  0.2413
11219W        W30753  14.746   0.734   3.299  0.1283 -0.1678 -0.0952
11220W        W30754  10.227   5.442  14.518 -0.0870  0.0096 -0.1890
11221W        W30755   2.405  11.432   0.325 -0.1185 -0.0390 -0.1128
11222W        W30756   2.974  16.198  16.249 -0.2037 -0.0696 -0.0735
11223W        W30757   0.043   7.184   4.809 -0.1520 -0.0244 -0.2775
11224W        W30758   9.040   6.049  12.468 -0.3081 -0.2373  0.0959
11225W        W30759   6.982   5.994  16.837  0.0942 -0.2037  0.1879
11226W        W30760   2.323  10.939  12.290 -0.0373 -0.0167  0.3225
11227W        W30761  10.700   2.274  14.987 -0.2430  0.0371  0.0925
11228W        W30762  16.122  16.676   2.600  0.0093  0.2856  0.1899
11229W        W30763  16.326  12.547   1.259  0.1754  0.2343  0.2967
11230W        W30764   5.560  10.169   3.754  0.1962 -0.1610 -0.2993
11231W        W30765  10.242  12.270   3.647 -0.0710  0.0853 -0.0954
11232W        W30766   4.269  13.871   1.964  0.0657  0.2770 -0.1062
11233W        W30767  14.791   3.138   4.367 -0.4353  0.3118  0.2558
11234W        W30768   2.474  15.602   1.525  0.3220 -0.1895  0.2721
11235W        W30769  13.462   8.399   4.709  0.0215 -0.1180 -0.3647
11236W        W30770   3.839   1.701  13.222  0.0566 -0.0450 -0.1265
11237W        W30771  15.385   4.421  15.278 -0.0171  0.1838  0.1301
11238W        W30772   1.267  10.812   2.724  0.1802 -0.1382 -0.0373
11239W        W30773   1.628  13.486   3.634 -0.1200  0.3088  0.1742
11240W        W30774  15.640   6.085  12.598  0.2941 -0.1111 -0.2509
11241W        W30775   0.623   3.629   1.201 -0.0900  0.0411  0.0599
11242W        W30776   4.304  14.660   1.409 -0.5453  0.1698  0.2005
11243W        W30777   2.239  12.471   2.539 -0.2163 -0.2341  0.2668
11244W        W30778  14.709   5.270  13.354  0.0785  0.1472  0.1107
11245W        W30779  12.909  12.246  13.082  0.0481  0.0551  0.1868
11246W        W30780   6.461   6.251  12.554  0.2486 -0.1197  0.4453
11247W        W30781   7.708  16.958   1.441 -0.0173 -0.0321 -0.1459
11248W        W30782   8.682  14.354  16.273 -0.2699 -0.0326 -0.0003
11249W        W30783   5.204  12.105  15.082 -0.2316  0.0309 -0.0114
11250W        W30784  13.252   2.008  13.476  0.3416 -0.0406  0.1896
11251W        W30785   2.544   9.238  14.975 -0.1393  0.0514 -0.0606
11252W        W30786   0.077   5.901  13.234  0.2754 -0.0647 -0.0562
11253W        W30787   2.609   2.356  14.723  0.1967 -0.0031  0.0478
11254W        W30788   6.672   8.097  15.288 -0.0957 -0.1085 -0.1499
11255W        W30789  14.247  12.435   0.878  0.2121 -0.0897  0.1378
11256W        W30790   9.020  10.109  17.062 -0.1055  0.0622 -0.0356
11257W        W30791  10.461  15.965   0.352 -0.1805  0.2062  0.2142
11258W        W30792  13.847  12.443   2.603 -0.2253 -0.0903 -0.0341
11259W        W30793  13.755   3.426   4.511  0.2183  0.1101 -0.2089
11260W        W30794   9.447   0.050  16.523 -0.0790  0.3550  0.2249
11261W        W30795   8.715  11.989   1.290 -0.1393 -0.2020  0.0118
11262W        W30796  10.959   1.962   4.933  0.1917 -0.0690  0.2793
11263W        W30797  13.959  16.342  12.636 -0.1758  0.0510  0.0656
11264W        W30798   5.955   5.241  15.309 -0.1095 -0.2596  0.1263
11265W        W30799  16.759  12.522   1.597  0.3631  0.1025 -0.0669
11266W        W30800   3.877  17.003   1.135  0.1915 -0.1041  0.1454
11267W        W30801  11.936  17.200  13.551  0.2709  0.1137  0.1046
11268W        W30802   3.628  12.846  14.115  0.2592 -0.0466  0.0851
11269W        W30803   5.204  11.295  12.395 -0.2312  0.0975  0.0634
11270W        W30804   5.090   8.920  13.575  0.1357 -0.1389 -0.4163
11271W        W30805   8.682   8.975   2.664 -0.3071  0.1015  0.0430
11272W        W30806   8.443  15.709   3.141  0.3141 -0.2039 -0.0245
11273W        W30807   8.178  16.365  15.824  0.1063  0.4136 -0.3168
11274W        W30808   0.333  10.683   4.247 -0.1517 -0.0571 -0.0895
11275W        W30809   4.912  10.841  12.559  0.0335 -0.0426 -0.2350
11276W        W30810   0.897   5.109   3.039  0.0995  0.3783 -0.1538
11277W        W30811  13.994  12.174  16.029 -0.3632 -0.1148  0.0088
11278W        W30812   3.590   6.798  15.980 -0.0260 -0.0225  0.1011
11279W        W30813  15.053  16.827  15.971 -0.0634  0.2827  0.1391
11280W        W30814  17.388  17.069   5.036 -0.0797  0.1931  0.0578
11281W        W30815   2.748   9.100   3.225 -0.1493  0.0505  0.2059
11282W        W30816  13.089  10.924   5.087 -0.2830  0.0364  0.3200
11283W        W30817   0.240  15.881   1.637  0.1670 -0.1558  0.0718
11284W        W30818  11.876   3.121   4.088  0.1219 -0.3422 -0.1104
11285W        W30819  14.219  16.108   1.618 -0.0986  0.1648  0.3506
11286W        W30820   3.309   5.371   4.939 -0.2525 -0.0103 -0.2345
11287W        W30821  15.280  11.086   3.742  0.3743 -0.0537 -0.0317
11288W        W30822  12.622   9.575  13.601  0.0181  0.0657 -0.3611
11289W        W30823  13.646  13.107   0.518 -0.3640  0.1835  0.0933
11290W        W30824   3.148  17.426   4.228  0.0401  0.0710  0.0492
11291W        W30825   5.108   1.534  14.376 -0.1985  0.0706  0.1697
11292W        W30826  10.811  15.886  17.050  0.1765 -0.0341  0.3174
11293W        W30827   5.492  12.699  12.111  0.0632 -0.1655  0.0296
11294W        W30828  11.281   5.401  13.500  0.1931  0.1383 -0.3816
11295W        W30829  13.697  13.854  16.698 -0.2097 -0.1499  0.0798
11296W        W30830   1.841  15.375  15.805 -0.1567 -0.1778 -0.1810
11297W        W30831   9.495  15.324  14.447 -0.3203 -0.0829 -0.1060
11298W        W30832  16.099   1.926  13.913  0.1108  0.1650 -0.2033
11299W        W30833  13.468  10.532   4.915  0.1488  0.0798 -0.1559
11300W        W30834   8.639   7.393  12.137 -0.1703 -0.0695 -0.1983
11301W        W30835   3.173   6.319  16.612  0.0421  0.0011 -0.0750
11302W        W30836  15.746   6.371   2.339 -0.1155 -0.0485 -0.0137
11303W        W30837   6.779  10.766   3.203  0.2688 -0.0741  0.0816
11304W        W30838  14.089  12.886  13.187 -0.1310 -0.1171 -0.2289
11305W        W30839  17.128   3.445   3.476 -0.0571 -0.1075  0.0912
11306W        W30840   9.325   8.632  14.279  0.1087  0.1304  0.0452
11307W        W30841  13.523  11.716  12.409  0.0952  0.1415 -0.2863
11308W        W30842   0.684   8.343   0.761  0.2270 -0.1432  0.3409
11309W        W30843  12.574   0.561  14.291  0.0976  0.0248 -0.0100
11310W        W30844  11.577   1.589   0.780  0.0715  0.2714 -0.2990
11311W        W30845  11.290  14.426   1.407 -0.1198  0.3388  0.0832
11312W        W30846  16.878   6.289  14.681  0.1924  0.2840  0.2133
11313W        W30847  12.517   2.691   5.128  0.1147  0.0321  0.1106
11314W        W30848   1.249  11.394  16.092  0.0848  0.3073  0.1987
11315W        W30849  15.151  16.396   2.757 -0.0478 -0.0561  0.2199
11316W        W30850  11.335   8.474   3.626 -0.0084  0.1394  0.6326
11317W        W30851  11.289   2.913   1.584  0.0661  0.4854  0.0776
11318W        W30852   0.320  17.468  14.801  0.1957  0.5938  0.0529
11319W        W30853  13.304   8.469  16.441  0.1639 -0.1121  0.0564
11320W        W30854   0.127  14.713   4.855  0.0181 -0.1724 -0.0314
11321W        W30855  13.346   8.162  14.711 -0.0417 -0.1810  0.2944
11322W        W30856   8.116   7.907  12.978 -0.0695  0.1440  0.0411
11323W        W30857   0.325   4.053  14.413 -0.1033  0.1089  0.3570
11324W        W30858  16.349  12.261   0.155 -0.4231  0.0125 -0.0525
11325W        W30859  13.774  11.688  16.096  0.1594 -0.3694  0.1751
11326W        W30860  13.910  11.167  15.111 -0.0027  0.3641 -0.1584
11327W        W30861  14.299  17.611   4.098  0.0727  0.0813 -0.2163
11328W        W30862   4.413  10.924  14.795  0.3367 -0.1009 -0.2706
11329W        W30863   0.008  14.836   1.619 -0.1297  0.0241  0.1746
11330W        W30864   8.507  17.019   0.839  0.2174 -0.1376 -0.0322
11331W        W30865   0.393  15.620   2.634  0.2055 -0.2853  0.0958
11332W        W30866   0.442   4.544  15.367  0.1588 -0.0245 -0.0852
11333W        W30867   1.903   0.857  12.299 -0.0064 -0.1043  0.0683
11334W        W30868  14.424   3.630  13.825 -0.1034 -0.0687 -0.0744
11335W        W30869   1.708  13.252  14.095  0.0573 -0.1603  0.0735
11336W        W30870   7.447  14.652   0.813 -0.3675 -0.1012 -0.1171
11337W        W30871   0.965   5.796  14.813  0.0406  0.0326 -0.3117
11338W        W30872   9.635  11.002  15.164 -0.1338  0.4789  0.0111
11339W        W30873  13.117   1.591   4.584  0.1644  0.1614  0.0692
11340W        W30874   3.827  17.061  14.108 -0.1726  0.0015  0.0541
11341W        W30875  11.172  10.508  12.729 -0.0205  0.3288  0.0925
11342W        W30876  16.965  14.554   0.030 -0.0836  0.0286 -0.3614
11343W        W30877  10.739  11.006   4.003 -0.2104  0.1214 -0.3292
11344W        W30878  12.930   2.215  13.817 -0.1144 -0.1500 -0.0083
11345W        W30879   8.227  15.212  12.833  0.1302 -0.1890 -0.1391
11346W        W30880  16.680  10.871  12.064  0.2592  0.0752  0.1642
11347W        W30881  12.527  12.591  13.119 -0.0515  0.2997  0.2726
11348W        W30882  17.162  13.494   0.417 -0.0753  0.3353 -0.2265
11349W        W30883   4.041   9.373  15.423 -0.0939  0.0807 -0.0577
11350W        W30884   7.102   9.322   0.008 -0.2500 -0.1572 -0.0511
11351W        W30885   4.638   1.452  15.167  0.0774  0.1854  0.0692
11352W        W30886   1.500  13.923   3.721  0.0964 -0.0397 -0.0880
11353W        W30887  16.848  10.413  16.650 -0.0799 -0.4211 -0.0110
11354W        W30888   9.800  17.206  12.680  0.0159 -0.0321  0.0615
11355W        W30889   2.217   6.656  16.547 -0.1795 -0.0014 -0.0695
11356W        W30890  11.907   1.912  13.986 -0.1087 -0.1257 -0.2709
11357W        W30891   5.601   2.197   1.067  0.1720  0.0900 -0.0851
11358W        W30892   1.990  17.101  12.202 -0.0409  0.1539 -0.1291
11359W        W30893   8.630  11.296  15.432  0.1889  0.3960  0.2251
11360W        W30894  17.449   1.819   0.333  0.1057  0.2290  0.1268
11361W        W30895   6.904  14.286   0.501  0.0124  0.0180 -0.1281
11362W        W30896   9.877   1.253   0.460  0.0016  0.0197 -0.0953
11363W        W30897  15.642  15.839   1.014  0.0237 -0.2274  0.3953
11364W        W30898   8.303  11.801   2.567  0.2531  0.2338  0.0662
11365W        W30899   2.341  15.182  12.375  0.0448 -0.2165 -0.0443
11366W        W30900  11.017   1.212   3.476  0.2068  0.0500 -0.1392
11367W        W30901   5.356   1.946  16.465 -0.1516  0.2241 -0.3250
11368W        W30902  11.784  16.427   1.800 -0.1336 -0.1096 -0.1361
11369W        W30903   6.156   8.846   1.883  0.0896 -0.1647 -0.2031
11370W        W30904   1.629   7.944   0.461  0.3072  0.3562 -0.0873
11371W        W30905  12.905   4.370   1.791  0.0874 -0.3055  0.2325
11372W        W30906   1.664  11.733   1.950  0.1337 -0.0940  0.1681
11373W        W30907   6.245  12.458   0.434 -0.0887  0.2285  0.2143
11374W        W30908  13.599   9.145   5.624  0.3910 -0.0016 -0.0666
11375W        W30909   5.694  16.029  13.286  0.0401  0.1885 -0.2424
11376W        W30910  10.942  15.961   2.091  0.2374 -0.0411 -0.2014
11377W        W30911   7.585   2.369   3.031  0.3410 -0.3434 -0.1684
11378W        W30912   6.080   0.447   1.429  0.3289  0.1272  0.1246
11379W        W30913   4.580  15.691  15.261 -0.2502  0.2464 -0.0795
11380W        W30914   7.831   7.247   1.968  0.2038  0.0285  0.0137
11381W        W30915   6.568   6.296   0.139  0.0332  0.2413 -0.2177
11382W        W30916   7.645   1.940  12.398  0.2304 -0.0301  0.2678
11383W        W30917  11.029   0.869  12.807 -0.0202 -0.1950  0.0683
11384W        W30918   5.028   5.487  15.668 -0.3111 -0.0567 -0.1257
11385W        W30919   8.233   1.445  16.702 -0.0401 -0.2770 -0.3059
11386W        W30920   6.884   0.136  16.144 -0.0074  0.4441 -0.1940
11387W        W30921  10.039   6.893   0.815  0.0562 -0.0058  0.0088
11388W        W30922   4.733   4.126  16.638  0.4509  0.1424 -0.0704
11389W        W30923  10.443  15.756  12.306 -0.1644  0.0423 -0.1134
11390W        W30924   3.361  13.926   4.878  0.1466 -0.0696 -0.4709
11391W        W30925  15.875  11.300   1.940  0.0331  0.3178 -0.3057
11392W        W30926   7.542  14.800  15.043 -0.0338 -0.2667 -0.0771
11393W        W30927   9.718   2.967   0.251  0.1676 -0.0629 -0.2079
11394W        W30928   6.399  11.886   4.396 -0.3144 -0.2016  0.1539
11395W        W30929   6.630   8.548  15.534  0.0854  0.0507  0.3321
11396W        W30930  12.604  11.172  15.349 -0.0560  0.1596 -0.0590
11397W        W30931   6.366   3.341   1.912  0.3131 -0.2997  0.4337
11398W        W30932  10.548   7.948  14.006 -0.0393 -0.2403 -0.0725
11399W        W30933  10.068  15.639   2.557 -0.4301  0.1663  0.2921
11400W        W30934  13.141  12.860   1.800  0.1800  0.0175  0.0757
11401W        W30935   8.406   1.205   2.086 -0.1503 -0.0758  0.1832
11402W        W30936  15.099   2.381  16.786  0.2946 -0.1720  0.2107
11403W        W30937   9.011  12.368   1.390  0.3200 -0.2019  0.0239
11404W        W30938   5.780   6.878   3.774  0.2338 -0.5935  0.0093
11405W        W30939  13.002   7.940  13.674 -0.4355  0.0735 -0.2774
11406W        W30940   5.830  14.947  13.299  0.0918 -0.1382  0.1483
11407W        W30941  14.270   1.853   0.020 -0.1240  0.0044  0.0578
11408W        W30942  12.952   0.006   0.611  0.0506  0.0382 -0.0790
11409W        W30943   9.763  13.851   0.716  0.0309  0.2714 -0.2983
11410W        W30944  13.655   2.883   1.280 -0.0158 -0.0788  0.2669
11411W        W30945   9.428   6.646   1.501  0.0189  0.0665  0.2540
11412W        W30946   0.701   1.342   1.923  0.3174 -0.2381  0.0821
11413W        W30947  15.892   7.894  13.709 -0.0079  0.1551  0.1068
11414W        W30948   2.476  13.683   3.758  0.0270 -0.1177  0.1061
11415W        W30949   3.527   1.800   1.643  0.0561  0.0620 -0.1698
11416W        W30950  17.631   8.282   2.170  0.0640  0.0776 -0.0299
11417W        W30951   4.806  11.650   4.220  0.0349 -0.0036  0.3155
11418W        W30952  15.608  10.672  15.800  0.1631  0.2731  0.3509
11419W        W30953  11.021  15.147   1.916  0.2575 -0.1781  0.0541
11420W        W30954   7.920   8.136  16.022 -0.1499  0.0329  0.0083
11421W        W30955  15.884  12.487  12.938  0.1185  0.2392  0.0259
11422W        W30956  13.084   5.621  13.306 -0.0843  0.0649 -0.0537
11423W        W30957   6.823   2.451   0.835 -0.2685  0.2630  0.1651
11424W        W30958   9.363   5.151   1.176 -0.2488 -0.1731  0.0572
11425W        W30959   4.525   2.338  15.341 -0.0054  0.0317  0.0385
11426W        W30960   6.016  14.178  11.742 -0.0895  0.0356  0.1109
11427W        W30961  16.032   7.025  13.174 -0.1648 -0.2365  0.0034
11428W        W30962   1.522   5.032   2.570  0.0461 -0.1800 -0.3467
11429W        W30963   8.393   4.901  11.796 -0.2111  0.1674  0.2439
11430W        W30964  12.137  14.952  16.232 -0.0906  0.0195  0.2556
11431W        W30965   6.040  15.254  12.828 -0.2530 -0.1161 -0.0435
11432W        W30966   8.845  16.423   3.444 -0.0652 -0.1242  0.0512
11433W        W30967  12.707   5.822   5.194  0.1224  0.1088 -0.4258
11434W        W30968  13.531   7.522   2.239  0.0408 -0.0503  0.1446
11435W        W30969   8.905  16.688  16.779  0.1414 -0.0846  0.0020
11436W        W30970   9.003  16.821   0.341 -0.1180  0.2902 -0.2786
11437W        W30971  13.845  14.190   1.106 -0.0046 -0.2240 -0.3998
11438W        W30972   4.794  16.763   1.731  0.1350 -0.1131 -0.0548
11439W        W30973   1.831   1.025   2.734  0.2812  0.0413  0.0543
11440W        W30974  10.374   7.256   1.422  0.0402 -0.0595 -0.0367
11441W        W30975   9.831  11.162   3.598 -0.1199  0.1338  0.0014
11442W        W30976   8.034   5.948   3.050  0.0167  0.2744 -0.0426
11443W        W30977   1.365  15.038  13.337 -0.0769  0.1685 -0.4044
11444W        W30978   9.995  17.311  15.998 -0.0137 -0.0937 -0.1631
11445W        W30979  15.667   1.003  16.744  0.3883 -0.0994  0.1697
11446W        W30980   4.603   4.559   4.641 -0.2019  0.3572 -0.2130
11447W        W30981   2.610   1.885   1.941  0.0304  0.0446  0.2993
11448W        W30982   2.129   2.912   2.568  0.1620  0.3731 -0.0145
11449W        W30983   8.803   3.680   1.427 -0.0082  0.1802  0.0481
11450W        W30984   7.346  13.713   3.594 -0.0251  0.0765  0.0503
11451W        W30985   5.021   4.656  14.721  0.2204 -0.0067 -0.1886
11452W        W30986   9.785  16.027   3.026  0.3197  0.1310 -0.2759
11453W        W30987  13.622  11.181  13.309 -0.5040  0.0257 -0.2686
11454W        W30988  16.999   6.935  10.874  0.3283 -0.0132 -0.1982
11455W        W30989  13.611  13.267   1.419  0.2896 -0.0751 -0.1906
11456W        W30990   1.150   7.719  13.951  0.0146 -0.2297 -0.2637
11457W        W30991   5.492  14.916  16.738 -0.3231 -0.0853 -0.0233
11458W        W30992   4.776  14.974   1.204 -0.1634  0.1886  0.1942
11459W        W30993  17.033   6.600  13.157  0.0645 -0.3844  0.1324
11460W        W30994   0.517   8.444   3.087  0.2934  0.0152  0.0083
11461W        W30995  15.659   5.627   0.936 -0.1964 -0.0592 -0.1564
11462W        W30996   3.759   6.523   2.866 -0.2005  0.3266 -0.3611
11463W        W30997  15.061   8.221   4.113 -0.2205  0.0398  0.0280
11464W        W30998   7.431  14.447   3.911 -0.0710 -0.0345 -0.1395
11465W        W30999  14.392   1.714   1.042  0.0826  0.0761  0.1412
11466W        W31000   5.659   4.868  14.015  0.2150 -0.0800 -0.1738
11467W        W31001   2.287  15.485   4.261 -0.0710  0.0188  0.0922
11468W        W31002   9.893  12.003  16.341 -0.1667 -0.0047  0.0336
11469W        W31003   6.768  17.050   2.620 -0.0988 -0.3666 -0.1305
11470W        W31004  11.406   9.541  13.783 -0.0426  0.0621 -0.0044
11471W        W31005  14.061  12.475  13.523 -0.3307 -0.0871  0.0612
11472W        W31006  11.383   5.158  13.077  0.1869 -0.3622 -0.1275
11473W        W31007  10.687   6.685   0.196 -0.2419  0.2263  0.0923
11474W        W31008   6.728   4.719  11.098  0.1833 -0.2484  0.1112
11475W        W31009  13.768   1.069   4.757  0.1401  0.0429 -0.2701
11476W        W31010   0.389   0.095   3.251  0.1336 -0.6150  0.3390
11477W        W31011   3.615  15.103   4.313  0.0407 -0.3859  0.0151
11478W        W31012  16.793   2.996  13.517  0.1702  0.1875  0.2639
11479W        W31013  12.883   0.363   4.616 -0.1433  0.1234 -0.1278
11480W        W31014   6.774   5.338   2.767 -0.2176  0.0246 -0.2241
11481W        W31015   6.665   8.143  13.476  0.0584 -0.0043 -0.0570
11482W        W31016   7.979  11.760  16.113  0.1136 -0.1634  0.0284
11483W        W31017  11.620   3.197   3.615 -0.0388 -0.1970 -0.0961
11484W        W31018  13.785   9.661   0.017  0.0822 -0.0665  0.1116
11485W        W31019   5.664  12.343   2.343 -0.1143  0.1544  0.3721
11486W        W31020  15.844   3.346  13.365  0.1836  0.4779  0.1515
11487W        W31021   7.566   4.100  14.617  0.0238  0.0006 -0.2268
11488W        W31022  10.472   5.990   2.040  0.0488  0.3969  0.1994
11489W        W31023  13.694  13.783   1.445 -0.0078 -0.0565  0.2043
11490W        W31024  13.567   6.859  15.036  0.1673 -0.0431  0.2341
11491W        W31025   7.105  16.796  13.031  0.0245  0.0280  0.0692
11492W        W31026  10.432   9.598   0.880  0.1168  0.2653  0.2390
11493W        W31027  17.326   5.169  14.098  0.0729 -0.1696  0.1614
11494W        W31028   0.139   4.887  15.652  0.1880 -0.2366 -0.5472
11495W        W31029  12.256  15.365  12.865  0.0974 -0.1544 -0.1871
11496W        W31030   3.722   8.494  15.679  0.2830 -0.0848  0.1397
11497W        W31031  12.838  10.684  13.327 -0.0407  0.0960  0.0648
11498W        W31032   5.061   7.742   3.362  0.0038  0.2327 -0.1700
11499W        W31033  15.791  11.542  14.921  0.2258 -0.0118 -0.0705
11500W        W31034  16.293   0.867   5.448  0.1405 -0.1357  0.1263
11501W        W31035   4.088   1.963  12.842 -0.1526 -0.0822  0.1589
11502W        W31036  16.054   5.813   3.110  0.0400  0.0466  0.1961
11503W        W31037  15.924   1.837  15.849  0.0605  0.3281  0.0057
11504W        W31038   8.699   5.072  13.896 -0.3469 -0.2125 -0.0028
11505W        W31039   7.756  15.392  12.719 -0.3171 -0.0076  0.2081
11506W        W31040   5.398  12.658   2.605  0.0567  0.0921 -0.2952
11507W        W31041   6.290  16.506  12.285  0.0028 -0.0493 -0.1164
11508W        W31042   5.638  14.990  15.416 -0.0229 -0.0907 -0.0497
11509W        W31043   4.512   8.163   4.094  0.2371  0.0553  0.1805
11510W        W31044   0.167   1.243  15.624 -0.1530 -0.0926  0.0762
11511W        W31045   6.882   9.395  12.522 -0.2398 -0.0753  0.0066
11512W        W31046  13.599  14.136   0.471 -0.2112 -0.0878  0.0992
11513W        W31047  17.224   8.394  13.251  0.0139  0.2873 -0.0780
11514W        W31048  11.208  15.134   0.418  0.2374  0.1589  0.1000
11515W        W31049  11.780   2.600   3.398  0.1315  0.0170 -0.0137
11516W        W31050   1.350   9.899  14.610 -0.0770  0.0541  0.4812
11517W        W31051  14.707   5.452   4.528  0.0542  0.0960  0.0218
11518W        W31052   7.569   0.609   2.190  0.1486 -0.4368 -0.1782
11519W        W31053   4.086   5.527  12.716 -0.1441 -0.0652  0.1144
11520W        W31054   9.228  11.811   0.507 -0.0727  0.2131 -0.1121
11521W        W31055  11.775   3.559   0.596 -0.0080  0.3805 -0.0132
11522W        W31056   9.292  15.705   3.678 -0.2272 -0.1635  0.2091
11523W        W31057   0.299   6.607  16.127 -0.1792  0.0593 -0.3606
11524W        W31058   3.581  15.575   2.907 -0.0856  0.4166 -0.0903
11525W        W31059  14.964  14.248  13.954  0.0711  0.1424 -0.0448
11526W        W31060   9.518   8.323  12.007  0.1349  0.2779  0.1768
11527W        W31061  11.358  16.303  13.187 -0.0706 -0.1921 -0.1270
11528W        W31062  17.133   9.461   5.074 -0.0017 -0.1076 -0.0040
11529W        W31063   3.376  10.813   2.450  0.2024  0.1694  0.0614
11530W        W31064   6.198  16.832  13.318 -0.1733  0.4494 -0.1954
11531W        W31065  14.516   9.617  14.681 -0.3271  0.0547  0.2171
11532W        W31066   2.022   6.205  15.708  0.0093  0.0210  0.0221
11533W        W31067   6.449   5.430   2.401  0.0970  0.0165  0.1905
11534W        W31068   2.683  16.557  13.234 -0.1429  0.0179 -0.0242
11535W        W31069  10.760  14.966  16.321  0.0590 -0.1555 -0.0994
11536W        W31070  12.155   5.520   2.258 -0.0519 -0.0583 -0.0401
11537W        W31071   7.347  17.146   3.177 -0.1202  0.0206 -0.0388
11538W        W31072   5.591  11.945  15.950  0.1879  0.3181 -0.1828
11539W        W31073   2.617   2.443   0.710 -0.1197 -0.0018 -0.3893
11540W        W31074  13.705   2.172   5.090  0.0819  0.2182 -0.0788
11541W        W31075   7.312   5.761  12.197  0.0366 -0.0366  0.1450
11542W        W31076   9.138  16.645   3.077 -0.0602 -0.0341 -0.0588
11543W        W31077   4.587   6.932   2.433 -0.0020  0.0040  0.1789
11544W        W31078  11.379  17.653  14.329  0.0656 -0.2547 -0.1054
11545W        W31079   6.719   1.682  13.261 -0.0289 -0.2243 -0.1053
11546W        W31080  10.653   3.569   0.331  0.0938 -0.1788 -0.0962
11547W        W31081   3.962   7.392   0.079 -0.0580  0.1409 -0.1554
11548W        W31082   4.330   5.202   0.360  0.1976  0.3343  0.0141
11549W        W31083  15.768   0.360  16.204 -0.0906  0.0439  0.0860
11550W        W31084  17.302  16.905  15.300  0.1621 -0.1399  0.0637
11551W        W31085  16.416   4.169   4.625  0.2033  0.0875  0.1336
11552W        W31086   5.857   0.498  13.612  0.4272  0.0055  0.1823
11553W        W31087   4.729  16.943   1.221 -0.0279 -0.0280 -0.0493
11554W        W31088  14.060   6.706   3.356  0.2643  0.2334 -0.1416
11555W        W31089  14.628   1.444  13.235  0.1315 -0.1988 -0.1506
11556W        W31090   6.472   3.029   2.312 -0.0257 -0.0094  0.0746
11557W        W31091   1.743  15.153  15.254  0.3152  0.3157  0.2817
11558W        W31092   6.944   0.319  15.636  0.0032  0.0362 -0.3993
11559W        W31093   1.950  15.228  14.361 -0.0404 -0.1100  0.1519
11560W        W31094   1.670   3.786   2.606 -0.1691  0.1082 -0.3382
11561W        W31095   3.230   9.461   0.552  0.0544  0.0772  0.1454
11562W        W31096   4.538  13.432   0.090 -0.3888  0.0217  0.3402
11563W        W31097   3.075   9.650  15.651 -0.0556  0.1699 -0.0200
11564W        W31098   3.193  17.211   0.819 -0.2668 -0.1496  0.2079
11565W        W31099  11.573  11.928  15.614  0.2504 -0.2546 -0.1960
11566W        W31100   6.793  15.719   2.796 -0.0412  0.0575  0.4247
11567W        W31101  11.391   7.065  16.147 -0.1687 -0.3847  0.2759
11568W        W31102  14.136   7.418   5.214  0.1114 -0.4246 -0.1463
11569W        W31103  12.427  15.082  13.299 -0.1883  0.0353  0.0824
11570W        W31104  13.156  15.386   4.077  0.1225  0.0690 -0.0635
11571W        W31105   7.155  14.616   3.139  0.1634  0.1915 -0.1528
11572W        W31106  14.001   3.330  15.748  0.0773  0.1922 -0.2788
11573W        W31107  13.725   8.715  12.319  0.0121  0.1758  0.0885
11574W        W31108   0.996   8.255  15.084 -0.2627 -0.2884 -0.2711
11575W        W31109   6.365   0.391   3.913 -0.1264 -0.0540 -0.2291
11576W        W31110   5.854   8.311  12.966  0.0240  0.0616  0.4702
11577W        W31111   2.478   5.842   1.679  0.1197  0.1739 -0.0677
11578W        W31112   6.361  13.387  12.223 -0.0866  0.1315 -0.0842
11579W        W31113   1.002   1.312  16.084 -0.0501  0.2377 -0.0910
11580W        W31114  13.385   3.638  15.921  0.2862 -0.0802 -0.0500
11581W        W31115   8.762   1.567   2.764 -0.0663 -0.0194  0.3012
11582W        W31116   1.702   5.595   2.034  0.0601 -0.1104  0.0351
11583W        W31117  11.494  10.826  14.207  0.2889  0.1218 -0.1432
11584W        W31118   3.466   3.554  16.052  0.1742  0.2356  0.3699
11585W        W31119   3.925   8.785   2.502  0.1779  0.1766  0.0035
11586W        W31120   3.181   8.082   1.556 -0.0030  0.0385 -0.1923
11587W        W31121   0.571  15.367   0.364  0.2348 -0.1899  0.0873
11588W        W31122  12.032  10.269   3.268  0.2148 -0.0666 -0.3891
11589W        W31123   3.311   9.044   1.214  0.0443  0.0931  0.3244
11590W        W31124   7.353   8.135   4.481 -0.1972 -0.0645  0.4496
11591W        W31125  12.196  17.157  14.770  0.0054  0.0965  0.1364
11592W        W31126  15.297   4.447   3.994 -0.2032  0.4846  0.0394
11593W        W31127  13.077   0.114   5.007 -0.1453  0.0741 -0.2151
11594W        W31128   7.452   3.829   4.224  0.1153 -0.1489  0.1552
11595W        W31129   2.721   3.114  13.055 -0.0958 -0.0110  0.1732
11596W        W31130   1.659  16.643  16.452  0.1050 -0.2641 -0.1336
11597W        W31131   7.896   7.435  16.530 -0.2610 -0.0368 -0.1531
11598W        W31132   6.450   1.106  13.708  0.0075  0.3048  0.0633
11599W        W31133  15.443   0.789   4.135  0.1211 -0.0486  0.1347
11600W        W31134   2.219   2.617  12.392  0.0332  0.1253  0.1136
11601W        W31135   0.931   3.137  15.508  0.2404  0.2343 -0.3611
11602W        W31136  10.499  12.300  13.090  0.4620  0.1223  0.2631
11603W        W31137   3.517   8.352  16.693 -0.0251 -0.1720 -0.2532
11604W        W31138  11.283   6.298  13.024 -0.2395  0.1160  0.0078
11605W        W31139   9.065   2.650   3.553  0.0414  0.2374 -0.0151
11606W        W31140  17.640   8.076  16.619 -0.0522 -0.0213  0.3123
11607W        W31141  10.914   2.516  14.002  0.0565  0.0678 -0.1076
11608W        W31142   9.059   7.207   2.138 -0.1023 -0.2943 -0.2701
11609W        W31143   2.311   6.574   3.514 -0.0310  0.4081 -0.4419
11610W        W31144   9.787   2.556  16.861 -0.0842  0.4452 -0.0874
11611W        W31145  10.143   1.807   0.946 -0.0768 -0.2557 -0.2077
11612W        W31146   6.129   1.659   4.813 -0.1063  0.3551 -0.0015
11613W        W31147   5.841   3.341   1.981 -0.0522  0.1585 -0.2589
11614W        W31148  13.110  11.202   2.709 -0.3275 -0.0880  0.1522
11615W        W31149   5.920  14.678   3.001 -0.0938 -0.3503 -0.2143
11616W        W31150   0.277   5.755   0.477 -0.2562  0.1429 -0.3582
11617W        W31151   6.184  11.150   0.659  0.0112 -0.0103 -0.0468
11618W        W31152   7.945   4.222   1.136  0.0056 -0.1930  0.0176
11619W        W31153   8.137   7.049  15.786 -0.1558 -0.2660  0.0029
11620W        W31154  13.505   4.110   0.254 -0.1743  0.0420 -0.0494
11621W        W31155   5.669   1.384   4.358 -0.1739  0.1860  0.0719
11622W        W31156   1.588  10.319   0.799  0.2284  0.0292 -0.0287
11623W        W31157  14.700   6.134   0.705  0.0433  0.1337 -0.1596
11624W        W31158  16.448   6.631   0.274  0.1395  0.1414 -0.0602
11625W        W31159  12.815   1.200  16.561 -0.2402 -0.0632  0.1129
11626W        W31160   2.227  16.718  12.482 -0.0755 -0.0037 -0.2603
11627W        W31161   0.153   9.282  16.074  0.2276 -0.2024 -0.0701
11628W        W31162   8.420   3.205   5.165  0.1213 -0.2563 -0.1775
11629W        W31163   3.237  14.839  16.699 -0.1714 -0.1143 -0.1852
11630W        W31164   5.362   5.215  14.392  0.1879 -0.0355  0.1074
11631W        W31165  14.047  17.105   0.185  0.2100  0.3262  0.2786
11632W        W31166  12.505   0.960  16.045 -0.1727  0.0112  0.0690
11633W        W31167   9.825   0.316   2.417 -0.1149  0.1733 -0.3960
11634W        W31168  17.315  10.291   3.507  0.0483  0.1135  0.0197
11635W        W31169   0.025   7.269   3.706 -0.0545 -0.1546  0.2818
11636W        W31170  12.311  14.455  12.577 -0.0378 -0.1636 -0.2576
11637W        W31171  11.064   1.426  15.144 -0.0057  0.1206  0.1642
11638W        W31172  14.583   4.224  13.099 -0.1684  0.1316 -0.4219
11639W        W31173   9.332   6.203   1.094 -0.1380  0.1746  0.2868
11640W        W31174  15.976   9.603   0.459 -0.2719  0.2477 -0.1339
11641W        W31175  11.835  16.544   2.602  0.0478 -0.1584 -0.0829
11642W        W31176  11.578  13.352   3.577 -0.1227 -0.0887 -0.1123
11643W        W31177   4.741  15.967  12.499  0.3431  0.0684 -0.0220
11644W        W31178  10.057  10.874   1.484 -0.1699 -0.1534 -0.1421
11645W        W31179   9.169  11.517  13.107  0.3001 -0.0006  0.0739
11646W        W31180   9.546  13.509   2.592 -0.2614  0.2002 -0.2368
11647W        W31181  14.027  10.975   0.374  0.2293 -0.3508  0.2018
11648W        W31182  15.402  10.206  13.120 -0.0896  0.0787 -0.1536
11649W        W31183  13.182  16.790   3.085 -0.4491  0.1072 -0.1987
11650W        W31184  17.219  10.947  15.479 -0.0876  0.0927  0.3023
11651W        W31185   1.393  11.142   3.797 -0.0433  0.2181  0.0904
11652W        W31186   2.187  11.940   2.101  0.2739 -0.2275 -0.1674
11653W        W31187  16.823  10.511   4.126 -0.2494 -0.2868 -0.1489
11654W        W31188  17.473   7.841   1.775 -0.0616  0.0734 -0.1790
11655W        W31189  13.692  12.789   1.767 -0.2298  0.0203  0.1569
11656W        W31190  13.035  13.771   4.055 -0.1215  0.3542  0.1988
11657W        W31191   2.337  11.417  13.097 -0.1248 -0.1154  0.2331
11658W        W31192   6.615  15.263  15.257 -0.1872  0.1810  0.1389
11659W        W31193  15.196  10.302  11.517  0.0171  0.1741  0.0469
11660W        W31194   9.925   5.281  15.999 -0.1836 -0.0832 -0.1637
11661W        W31195  10.966   6.695   4.008 -0.0556 -0.0225  0.1883
11662W        W31196  12.917  16.026  13.189 -0.0296  0.1698 -0.1955
11663W        W31197  12.369   7.287   2.748 -0.3071  0.0506 -0.2203
11664W        W31198   1.147   6.597  15.616  0.1027  0.1104  0.2069
11665W        W31199  12.215   6.115   4.369  0.0488  0.2772  0.0934
11666W        W31200  11.932  12.342   2.192 -0.1420 -0.0140  0.0394
11667W        W31201  13.013   5.397   4.309 -0.1785  0.0116 -0.0455
11668W        W31202   9.216  14.017   4.075  0.0138  0.0170  0.2800
11669W        W31203  11.350  16.960   0.258  0.2812  0.1927 -0.2648
11670W        W31204  12.785  16.636   3.567 -0.2683  0.0557  0.2642
11671W        W31205   1.395  16.158  16.283  0.3929 -0.0648  0.0466
11672W        W31206   7.857   4.262   3.403 -0.2184 -0.1023  0.2944
11673W        W31207  11.976  15.789  15.475 -0.0314 -0.0789 -0.2576
11674W        W31208   9.177  14.486  12.828  0.1727  0.1494 -0.0717
11675W        W31209   8.220   4.808  13.944  0.1648 -0.0602 -0.1503
11676W        W31210   6.203   8.041  13.865  0.0330  0.1989  0.1780
11677W        W31211  10.148   3.724   2.634 -0.2581 -0.1229 -0.1554
11678W        W31212  12.688  17.647  12.276  0.0611  0.1695  0.3205
11679W        W31213   2.022  15.747  13.426  0.3934  0.0601 -0.2119
11680W        W31214   9.170   6.244  13.737  0.1613  0.1098 -0.1290
11681W        W31215  17.170  14.653  16.151 -0.1509  0.2207  0.1870
11682W        W31216  16.160   1.326   2.412  0.2001  0.1856 -0.1023
11683W        W31217   8.754   0.904  13.454 -0.0321 -0.0399 -0.0415
11684W        W31218   0.828  14.435  12.027 -0.0773  0.2389  0.0143
11685W        W31219   0.833   4.519  16.316  0.2437  0.1483 -0.2231
11686W        W31220   4.254   3.464   1.072 -0.0564  0.1570  0.3073
11687W        W31221  13.335   0.973  14.645  0.1510  0.3013 -0.2614
11688W        W31222   9.152   9.497   4.876  0.1164  0.1433 -0.1429
11689W        W31223   9.266  12.006   1.598  0.1990 -0.0722 -0.2686
11690W        W31224  11.000   0.394   2.085  0.4014 -0.2883  0.0621
11691W        W31225  16.853  17.046   1.216 -0.1970 -0.0060 -0.1615
11692W        W31226  13.234   2.642   1.502 -0.0782  0.0385 -0.3794
11693W        W31227   8.456  14.940  15.131 -0.0419 -0.2217  0.0344
11694W        W31228   4.509  16.219  16.172 -0.1429 -0.0531 -0.0642
11695W        W31229   1.192   3.444  12.716  0.0741 -0.0846 -0.0809
11696W        W31230   0.941  10.487  15.473 -0.0376 -0.2006  0.2090
11697W        W31231   3.246   0.851  12.788  0.1325 -0.2741  0.0452
11698W        W31232   7.641   9.074  15.790  0.2880  0.0165 -0.0539
11699W        W31233  15.648   4.165   3.390  0.0970 -0.1814  0.1955
11700W        W31234  10.914   2.207   0.581  0.0638 -0.1071 -0.1567
11701W        W31235   3.819   6.991   3.063  0.1730 -0.2149  0.0252
11702W        W31236  11.831   8.473   4.518 -0.0531  0.1637  0.1423
11703W        W31237   6.536  13.030  15.746 -0.1144  0.0128  0.0626
11704W        W31238  16.915   2.959   0.881  0.1980  0.2388  0.1014
11705W        W31239  15.513   7.094  12.521  0.1031 -0.0496 -0.1318
11706W        W31240   4.861   2.519   0.506 -0.0367  0.3591  0.1795
11707W        W31241   6.307   0.549  16.902 -0.1239 -0.0964 -0.3945
11708W        W31242   1.741  14.134   4.135 -0.1208  0.2448  0.0996
11709W        W31243   3.789  12.022   1.478  0.1450 -0.0675  0.1157
11710W        W31244  12.895  12.921   4.087 -0.0932  0.2536 -0.0929
11711W        W31245   8.270  11.951   4.073  0.0566  0.1568 -0.1610
11712W        W31246   0.950   4.640   3.304 -0.0908  0.1266  0.0289
11713W        W31247   3.204   1.516   2.059  0.2941  0.1679 -0.3292
11714W        W31248  12.895   3.322   2.337 -0.0221 -0.3536 -0.1542
11715W        W31249   7.593   1.357   1.379 -0.0308 -0.1154  0.0909
11716W        W31250  14.918   2.128   2.736  0.0568  0.0930  0.3265
11717W        W31251  12.470  10.856  15.691  0.2549 -0.1091 -0.2058
11718W        W31252  14.055  17.379   5.087  0.1477  0.2898 -0.1829
11719W        W31253   1.807   8.422   3.597  0.0054 -0.1885 -0.1649
11720W        W31254  12.214   0.608   3.359 -0.2926  0.0042  0.0294
11721W        W31255  11.207  13.268   6.144  0.1056  0.2136 -0.2996
11722W        W31256   7.391   7.420  16.460  0.0502 -0.3727  0.1885
11723W        W31257   5.970   8.550   1.544  0.2073 -0.1940 -0.2691
11724W        W31258  13.103   0.667   4.256 -0.2792  0.0266  0.2402
11725W        W31259  14.805  11.067   2.008 -0.0528  0.2899  0.0364
11726W        W31260  11.276  13.789   3.460 -0.2412  0.0525 -0.1377
11727W        W31261   3.645   9.332   2.411 -0.1822 -0.1125 -0.0735
11728W        W31262   9.416   9.102   0.150 -0.1029  0.0544 -0.1071
11729W        W31263  13.644  13.800   0.871 -0.0618 -0.0255  0.0931
11730W        W31264  11.942  12.098   4.707  0.2235  0.0924 -0.2057
11731W        W31265   9.860  17.421  15.442  0.0058 -0.0298 -0.0630
11732W        W31266  14.248   4.693  12.333  0.0656  0.1635 -0.1642
11733W        W31267   7.328   9.924   3.463 -0.0657  0.0578  0.1217
11734W        W31268   2.635  15.333  15.087  0.3117 -0.0445 -0.2217
11735W        W31269   7.777   3.957  14.084 -0.1534 -0.1121 -0.2597
11736W        W31270  10.958  13.797   1.648 -0.2610 -0.2005  0.1451
11737W        W31271  10.179   5.352   4.254  0.0349  0.0157 -0.2709
11738W        W31272   1.869   8.752  16.429  0.3597  0.4769 -0.3538
11739W        W31273  17.127   4.100  14.344  0.0257 -0.6521  0.0262
11740W        W31274   5.381   3.504   4.887  0.2592 -0.2277  0.1487
11741W        W31275   1.028   1.579  14.737  0.0308 -0.0481 -0.1287
11742W        W31276  16.141  16.145   3.838  0.0764  0.3030 -0.1737
11743W        W31277   8.320   8.244   4.672  0.4244  0.1588 -0.0790
11744W        W31278   7.420   3.329   4.161  0.3325 -0.0875  0.4205
11745W        W31279  11.676  17.135  13.097  0.0487 -0.0554 -0.0996
11746W        W31280   3.432   1.730   1.110  0.0178  0.0019 -0.2346
11747W        W31281   7.543  15.604   1.537  0.1808  0.2108 -0.0174
11748W        W31282   7.981   4.951  11.577 -0.3175  0.1110 -0.0228
11749W        W31283   2.658  14.661   2.234  0.0544 -0.3204 -0.0649
11750W        W31284  17.200  15.038   0.163 -0.0704  0.1280  0.1874
11751W        W31285  10.590  17.650  15.076  0.2287  0.0522 -0.1721
11752W        W31286  12.023  10.391   3.786 -0.1719  0.1674 -0.1152
11753W        W31287   1.843  12.700  14.242  0.1626 -0.0139 -0.2260
11754W        W31288   4.728   5.207  12.431  0.1192  0.2960 -0.1905
11755W        W31289  10.533   8.529   2.337 -0.3015  0.0851 -0.1873
11756W        W31290   2.436   6.577  16.093  0.2949 -0.2025 -0.0385
11757W        W31291   4.113  10.908  12.121 -0.0503 -0.1149  0.1174
11758W        W31292   5.331   2.743  16.091  0.2665 -0.0500 -0.2380
11759W        W31293  16.132  11.624   4.863 -0.2505  0.1836  0.0585
11760W        W31294   5.350  16.377  16.675  0.0455 -0.0925  0.1353
11761W        W31295   9.773  11.687   1.343  0.0657  0.2709 -0.1078
11762W        W31296  14.128  13.328   0.576  0.2156 -0.1192 -0.0364
11763W        W31297   0.769   0.967  17.002  0.0041 -0.3258  0.0386
11764W        W31298   7.520  12.814  12.853  0.3454  0.0487 -0.1386
11765W        W31299  17.556  15.954  13.527 -0.2227  0.1755  0.2155
11766W        W31300   5.312  11.261   0.156 -0.2580  0.2830  0.1386
11767W        W31301  13.642  12.647  14.072  0.2320 -0.0024 -0.1935
11768W        W31302   7.475   6.380   0.716 -0.1262  0.1592  0.2465
11769W        W31303  16.515   2.289  12.465  0.1309 -0.0416  0.0992
11770W        W31304   3.141  15.476   2.125  0.2884  0.0682 -0.0827
11771W        W31305   3.189   8.225   3.306  0.0810 -0.0502  0.0021
11772W        W31306   0.546   2.138   3.221  0.1637  0.2216 -0.2169
11773W        W31307   3.785  17.604   0.455 -0.1577 -0.4719  0.1940
11774W        W31308  10.390   7.713  12.333  0.1724  0.0867  0.0294
11775W        W31309  12.810  10.532  14.787  0.2291 -0.4124  0.0234
11776W        W31310  14.813   3.172   3.874  0.2571  0.1034  0.1856
11777W        W31311   2.193   3.268  16.835 -0.0443  0.0952 -0.2071
11778W        W31312   7.741  13.754  12.176 -0.2525 -0.1625  0.0824
11779W        W31313   4.826   5.201   0.090  0.0071 -0.1127  0.0076
11780W        W31314  17.358   7.975   4.441 -0.0341 -0.0023 -0.3067
11781W        W31315  12.407   4.383   0.605  0.0628  0.0552  0.0207
11782W        W31316  10.608   5.582  14.258  0.0533 -0.2334  0.1508
11783W        W31317  10.692  13.870   3.317 -0.0614  0.5247 -0.1684
11784W        W31318   8.951  16.595  14.687 -0.1307 -0.1910  0.1720
11785W        W31319   7.304  15.082   2.184 -0.2151  0.2802 -0.3990
11786W        W31320   8.782   1.357   1.580 -0.1932 -0.0061 -0.0674
11787W        W31321  13.390  15.696  16.787 -0.0344 -0.1484  0.1996
11788W        W31322  13.626   7.324  13.409  0.2941 -0.0721  0.0674
11789W        W31323   2.349   2.039   0.377  0.2297 -0.3246 -0.0938
11790W        W31324  15.358  14.186  12.743 -0.0138  0.0094  0.0805
11791W        W31325   1.469   7.379  16.011 -0.1294 -0.0059 -0.1863
11792W        W31326  14.203  16.341   4.258  0.0013  0.1024 -0.0210
11793W        W31327   3.172   4.395   0.707 -0.1193  0.0620 -0.1751
11794W        W31328  16.728   1.619   2.867 -0.0048 -0.0970 -0.3484
11795W        W31329   4.724  15.016  14.577  0.0667  0.0691  0.0683
11796W        W31330  17.295   0.394  15.637 -0.1185  0.0355  0.1476
11797W        W31331  16.340   2.360  13.826  0.0185 -0.1675  0.0002
11798W        W31332   9.941  17.629  13.274 -0.0397  0.2933  0.1600
11799W        W31333   6.971   7.747  15.921 -0.1986 -0.0983  0.1263
11800W        W31334  13.810   2.152   4.539  0.1162  0.0667  0.0727
11801W        W31335   7.223   1.282   5.091  0.1359 -0.3060 -0.0081
11802W        W31336  15.529  10.652   3.809  0.0541  0.2758  0.2938
11803W        W31337  12.980   8.544  13.584 -0.0345 -0.0414 -0.0530
11804W        W31338  12.267   2.405  16.266  0.0537  0.1842 -0.2219
11805W        W31339   9.949   1.529  15.122 -0.2281  0.0726  0.0027
11806W        W31340  16.436  13.573   0.642  0.3157  0.1565 -0.0926
11807W        W31341   4.029  11.131   0.012  0.1030  0.1899 -0.1373
11808W        W31342  12.442   5.591  13.866  0.2493  0.0023 -0.0593
11809W        W31343   5.594   6.999   1.497  0.0499  0.0293 -0.3449
11810W        W31344  15.011  14.650  16.974  0.2073 -0.0646 -0.1400
11811W        W31345  14.453   6.670   2.983 -0.0223  0.1206 -0.0741
11812W        W31346   9.489   9.487   0.435 -0.2591 -0.1541  0.1036
11813W        W31347   7.183   1.118  16.163  0.1944 -0.1621  0.0463
11814W        W31348  10.313   1.468  12.432  0.2126 -0.1696  0.2633
11815W        W31349   7.038  15.611   1.355  0.1582 -0.0140  0.0521
11816W        W31350   4.812   2.331   4.200  0.3259 -0.0414  0.0966
11817W        W31351   2.434   4.983  12.097  0.0267 -0.0526  0.0145
11818W        W31352   1.913  13.726   1.190  0.0012 -0.1788  0.1568
11819W        W31353  10.055   0.807   2.304  0.1073 -0.2098  0.0138
11820W        W31354   0.705  15.818   2.957  0.3820 -0.1623 -0.1582
11821W        W31355   1.652   5.794  16.709 -0.0804  0.0549  0.3091
11822W        W31356  13.063  11.093   0.572  0.0313 -0.0244  0.0176
11823W        W31357  11.224   2.100  13.321 -0.2237  0.1296 -0.0874
11824W        W31358  11.326   3.447  13.581  0.1068  0.1768 -0.0726
11825W        W31359  12.635   2.759   3.151  0.2381 -0.1889  0.2296
11826W        W31360   4.343  15.153   3.019  0.0342  0.0011 -0.3326
11827W        W31361  10.704  17.481   0.243 -0.0090  0.0941  0.0663
11828W        W31362   5.830   4.059  14.685  0.0192  0.6988 -0.1681
11829W        W31363   6.618   8.684   3.510  0.1714 -0.0362 -0.2044
11830W        W31364  10.820  13.958   4.568  0.1140  0.0161  0.2742
11831W        W31365  11.003  14.223   3.460  0.4906 -0.1226 -0.4227
11832W        W31366  16.992  11.312   4.724 -0.2995  0.1488 -0.0981
11833W        W31367   8.528   3.525   4.794 -0.0413 -0.2991 -0.3565
11834W        W31368   2.160  17.656  12.899  0.0153 -0.1541 -0.0536
11835W        W31369   3.478  11.795  14.507  0.1640 -0.0769 -0.0518
11836W        W31370  14.907   3.727  12.467 -0.0830  0.0166 -0.3291
11837W        W31371   2.231   4.617  12.408  0.1298 -0.4395  0.3656
11838W        W31372   1.880   4.740  12.748  0.0154  0.0111  0.0900
11839W        W31373  11.727   6.311   2.698 -0.2159  0.3215 -0.1261
11840W        W31374  17.058   5.474   0.127  0.2132  0.0083  0.2737
11841W        W31375  10.224   2.498  16.093 -0.0831 -0.3611 -0.1149
11842W        W31376   1.030  15.403   3.028 -0.2976  0.1867 -0.0811
11843W        W31377   4.440   7.503   1.120  0.1464  0.0559  0.0946
11844W        W31378   9.773  12.017  12.511  0.0475 -0.0356  0.0404
11845W        W31379   5.823  10.269   0.614  0.2045 -0.3329  0.0668
11846W        W31380   8.607   6.083   4.733 -0.2517  0.2561  0.1812
11847W        W31381   7.114   1.612   0.795  0.2334 -0.0337  0.0847
11848W        W31382  15.266   3.993  12.640 -0.0671  0.1342 -0.0723
11849W        W31383   7.469   6.366   5.159  0.0466  0.4616 -0.2005
11850W        W31384  17.049  17.522   4.709  0.0181  0.0066 -0.1824
11851W        W31385   2.815   6.102   2.434 -0.0920 -0.1177 -0.1364
11852W        W31386  15.865  14.355   4.465  0.1898  0.2249 -0.0689
11853W        W31387   0.670  15.129  11.778 -0.3101 -0.2598  0.3638
11854W        W31388   9.554   8.880  12.086 -0.0029  0.0371  0.0856
11855W        W31389  15.102   3.036  13.619  0.3337 -0.1575 -0.1303
11856W        W31390   9.187   6.124  11.977  0.0148 -0.0509 -0.2213
11857W        W31391  11.913   4.312  16.328 -0.0142 -0.2274 -0.1122
11858W        W31392  14.982  12.440   3.019  0.0181 -0.0659 -0.1284
11859W        W31393   1.451   9.490  13.667  0.2200 -0.2965 -0.0624
11860W        W31394  13.164  11.640   4.585 -0.0764 -0.0074  0.1534
11861W        W31395   6.412   9.917  14.912 -0.1520  0.0656  0.0907
11862W        W31396   8.697   9.238   1.374 -0.0187 -0.0920 -0.0816
11863W        W31397   4.916  11.842   3.698 -0.0910 -0.3695 -0.4902
11864W        W31398   2.597   3.284  15.635 -0.0678 -0.0253 -0.0340
11865W        W31399   1.830   1.734  15.862 -0.1205 -0.1241 -0.0661
11866W        W31400  12.897  11.678   4.096  0.1749 -0.0421 -0.3282
11867W        W31401  12.215   4.244  15.395 -0.3197  0.0588 -0.3351
11868W        W31402  13.870  13.528  15.033 -0.2603 -0.5156 -0.1766
11869W        W31403   7.947   4.376   2.941 -0.4683  0.0259 -0.1094
11870W        W31404   2.834  16.616   4.738  0.1706 -0.2095 -0.0086
11871W        W31405   9.473  10.044  15.970 -0.2042 -0.0585 -0.0365
11872W        W31406   2.013   2.047   1.327  0.1614  0.1948 -0.3332
11873W        W31407  12.047  16.999  16.908 -0.1877  0.0968  0.2233
11874W        W31408  12.112   9.664   3.973  0.0718  0.0479 -0.3492
11875W        W31409  15.848   5.138   3.714  0.0216 -0.0244 -0.0010
11876W        W31410  15.339  11.442   2.585 -0.1878 -0.0761 -0.0595
11877W        W31411  13.721   3.325  14.290  0.0787  0.1058 -0.1537
11878W        W31412  14.405  12.545   3.129 -0.0524 -0.1375 -0.2359
11879W        W31413   6.309  16.675   0.661 -0.4788  0.0996 -0.0809
11880W        W31414   9.634  16.145   1.971  0.2078 -0.0587 -0.1262
11881W        W31415  15.167   6.492  11.792  0.3523  0.0950 -0.2365
11882W        W31416  11.309  15.533   5.035  0.0748 -0.2782  0.0961
11883W        W31417   4.185   3.750  14.822  0.1400 -0.0083  0.1198
11884W        W31418   2.143   8.864   0.756  0.1623  0.1080 -0.2135
11885W        W31419  14.907   3.243  12.425  0.0733 -0.1275  0.0165
11886W        W31420  11.090   4.519   4.635 -0.0593 -0.0272  0.0047
11887W        W31421  10.842  10.969   1.476  0.0872 -0.1791  0.0917
11888W        W31422  15.609   8.817  13.210 -0.1116  0.0826 -0.0091
11889W        W31423   8.922   5.675   4.736 -0.0688 -0.1383  0.1917
11890W        W31424   6.574   5.878   2.240  0.1916 -0.1859  0.0992
11891W        W31425   7.648   0.145  13.759  0.1301  0.1709 -0.1003
11892W        W31426  12.403   6.777  12.983 -0.0578 -0.0482  0.1980
11893W        W31427  14.809   5.748  17.047 -0.1972  0.0813  0.1026
11894W        W31428   6.765   1.731   0.501  0.0154 -0.1508 -0.0933
11895W        W31429  12.961   2.215  12.924 -0.1883  0.3601 -0.1028
11896W        W31430   0.469  15.035  12.531 -0.2244 -0.0503  0.1379
11897W        W31431  12.667   2.138  15.185 -0.0554 -0.1859  0.0829
11898W        W31432   5.189  16.673   2.049 -0.0909 -0.2468  0.0810
11899W        W31433   6.431  15.690  16.639  0.2732  0.0902  0.2868
11900W        W31434  13.000   3.023   3.400 -0.0400  0.0645  0.0288
11901W        W31435  16.642   8.479  14.555 -0.0087 -0.1817  0.0332
11902W        W31436  14.134   2.506  12.504 -0.0061  0.0272  0.0023
11903W        W31437   9.384  11.488   1.779  0.2447 -0.0636  0.2357
11904W        W31438   4.928   0.892   1.571  0.2000  0.4080  0.2157
11905W        W31439  15.212   1.077  16.956 -0.0290 -0.3238 -0.0712
11906W        W31440   0.216  12.693   1.607  0.1053  0.2340  0.0663
11907W        W31441  15.274  11.069   3.267 -0.0574 -0.1484 -0.0894
11908W        W31442   6.346   8.128  12.123 -0.1907 -0.1420 -0.2215
11909W        W31443   7.118  16.838  11.066 -0.0410  0.0888  0.1488
11910W        W31444  11.623   6.827  12.270  0.3295 -0.2437 -0.0711
11911W        W31445  17.189   6.588  14.496  0.1281 -0.1479 -0.1429
11912W        W31446   0.723   0.013  14.161 -0.4126  0.1962  0.3051
11913W        W31447   1.685  17.030   0.541  0.1642 -0.0211 -0.0249
11914W        W31448  11.442   4.084   4.954  0.0309  0.1786  0.0646
11915W        W31449  13.945   9.126  13.264 -0.0521 -0.2448 -0.3220
11916W        W31450   3.489   2.664  15.581  0.2587 -0.1269 -0.0296
11917W        W31451   3.793   7.884  13.484 -0.1103  0.1262 -0.1620
11918W        W31452   2.270   2.406   2.554  0.4105 -0.0110  0.2493
11919W        W31453   3.889  15.708   1.413 -0.1763 -0.1071 -0.0540
11920W        W31454   9.788   2.122  12.815  0.0035  0.1544  0.3384
11921W        W31455   5.124   1.089  14.094  0.1516 -0.0727  0.1577
11922W        W31456   2.479  13.607  14.382 -0.3159 -0.0081 -0.1003
11923W        W31457  11.842  13.656   2.479  0.0896  0.0582 -0.2988
11924W        W31458  12.065  15.486  14.155  0.2566 -0.0640  0.1097
11925W        W31459  11.912   3.942  12.503  0.1848 -0.2064 -0.0881
11926W        W31460   4.236  11.265   3.480 -0.4784  0.0708 -0.1696
11927W        W31461   0.376   0.205  12.989  0.0387  0.1474  0.0933
11928W        W31462  16.187  16.022  15.952 -0.3326  0.1128 -0.1271
11929W        W31463  14.942  14.778   1.203 -0.1232  0.0979  0.2153
11930W        W31464   6.918   3.124   4.039  0.1454  0.2264  0.0973
11931W        W31465   7.106  15.307  15.392 -0.1680  0.0216  0.0986
11932W        W31466   6.306  13.671  14.398 -0.2351  0.0647 -0.0392
11933W        W31467  13.614   6.933   1.359 -0.1748  0.1316  0.2114
11934W        W31468   9.365  14.451   4.252 -0.0845  0.0150  0.1581
11935W        W31469   6.067   2.441   0.956 -0.2596 -0.0706  0.4095
11936W        W31470  14.149  15.796   4.173 -0.0098 -0.1057 -0.2437
11937W        W31471   5.199   1.077   5.075 -0.1809 -0.1026 -0.1426
11938W        W31472  15.022  12.142  16.840 -0.0342  0.0956 -0.2376
11939W        W31473   1.627   8.284   4.974  0.2285  0.0792  0.2525
11940W        W31474   4.550   1.172  13.302 -0.1801  0.1013  0.1659
11941W        W31475  14.142  12.539  16.987 -0.0615 -0.3342  0.1907
11942W        W31476  17.587  17.215  12.985  0.1135  0.0170  0.1487
11943W        W31477  10.332   6.041   1.060 -0.1309 -0.1231 -0.0287
11944W        W31478   8.969  13.950  13.652 -0.2363  0.2767 -0.2940
11945W        W31479   0.213   3.740   1.894 -0.1057 -0.0666 -0.3395
11946W        W31480   3.892   5.083   0.103  0.2262 -0.0344  0.1982
11947W        W31481  12.895   7.094   1.133  0.4552 -0.0244 -0.0133
11948W        W31482   1.847   3.636   3.136  0.1189  0.2205  0.0699
11949W        W31483   2.713   4.557   0.972 -0.1687 -0.1689  0.1832
11950W        W31484   1.444   2.465   3.845  0.2543 -0.0920 -0.1343
11951W        W31485   9.011  16.123  13.828 -0.0215  0.0196 -0.1963
11952W        W31486   9.624   9.147   2.485  0.1068  0.1990  0.1061
11953W        W31487  12.041   6.607  12.545  0.2062 -0.2875  0.3832
11954W        W31488   2.592   6.493  12.433  0.0909  0.0801 -0.3210
11955W        W31489   3.308   1.180  14.282  0.1779  0.2308 -0.0968
11956W        W31490  10.093   9.419  14.316  0.0235  0.0301  0.3183
11957W        W31491  14.717  14.210   5.049  0.0174  0.4221  0.1638
11958W        W31492   7.939  13.800  13.220 -0.2190  0.0643  0.0444
11959W        W31493   0.777   7.107  12.146 -0.2639  0.1138 -0.1756
11960W        W31494   6.355  11.973   0.742  0.0210 -0.4765 -0.0891
11961W        W31495   0.686   4.967   3.632 -0.0694 -0.0650  0.0673
11962W        W31496  16.778   6.006  16.126 -0.1748 -0.0439  0.2280
11963W        W31497   3.979   7.819  15.178  0.0509 -0.0431  0.3180
11964W        W31498  17.554   8.313  14.178 -0.5544  0.1671 -0.0603
11965W        W31499   2.351   1.469  16.090 -0.0314 -0.2895 -0.1561
11966W        W31500   7.372   5.561   0.919 -0.1012  0.3047 -0.1012
11967W        W31501   2.959  17.535   2.838  0.1141  0.1741  0.2790
11968W        W31502  10.069  15.981   0.753 -0.2075 -0.1601  0.1344
11969W        W31503   3.914  10.321   3.990 -0.2353 -0.0809 -0.0756
11970W        W31504  14.121   2.211   1.203  0.0352 -0.1205 -0.3936
11971W        W31505  17.253   4.062  13.381 -0.1308  0.2104 -0.0925
11972W        W31506   9.348  16.799  17.046 -0.1385  0.0785 -0.1339
11973W        W31507  14.521   1.751   2.182 -0.0204 -0.0005  0.2519
11974W        W31508  13.144  10.735  16.805 -0.1155 -0.0165  0.0235
11975W        W31509  17.431  11.074   3.616 -0.0419 -0.1547 -0.0828
11976W        W31510   2.632  16.464   0.527  0.1770 -0.0695  0.1734
11977W        W31511  14.279   7.110  14.828 -0.0379  0.4211 -0.0687
11978W        W31512  16.291  13.022  12.228  0.0596 -0.3179  0.2390
11979W        W31513   8.767   0.915  16.616 -0.3023  0.4045  0.0267
11980W        W31514  10.919   5.192  16.086  0.2975  0.0610  0.0150
11981W        W31515   5.733   5.136  12.436  0.2880 -0.1470  0.1203
11982W        W31516  14.705   8.767  15.692 -0.3390 -0.3098 -0.1472
11983W        W31517  10.879   8.051  12.161  0.0421 -0.4312  0.0247
11984W        W31518  15.397   6.195   1.067  0.2755  0.1462  0.0203
11985W        W31519   4.417   6.170  13.653 -0.3014 -0.1617 -0.2415
11986W        W31520   2.376  11.326  13.999  0.1203  0.0436  0.0696
11987W        W31521   9.126   6.489   3.505  0.3329  0.1959  0.2455
11988W        W31522   3.656   0.351   4.803  0.0467 -0.0013 -0.0577
11989W        W31523  13.684   2.139   5.604  0.0480  0.0941 -0.0479
11990W        W31524   9.972  11.060  14.700 -0.1135  0.4650  0.0791
11991W        W31525  17.162   7.339   1.677  0.1629  0.2784 -0.1100
11992W        W31526   2.992   9.782  13.383  0.1009  0.1343 -0.1492
11993W        W31527  16.270  11.814  16.977  0.1466  0.1280  0.1750
11994W        W31528  17.554   0.284  12.770 -0.0103 -0.0632  0.0321
11995W        W31529   7.071   7.983  12.031  0.2271 -0.0764 -0.1024
11996W        W31530   7.024   4.171  15.551  0.0120  0.0714 -0.2339
11997W        W31531   2.115   1.041  16.646  0.0816  0.0200 -0.2723
11998W        W31532   4.444  10.724  15.617  0.0271  0.3304 -0.0670
11999W        W31533   5.720   7.734  16.025  0.1002  0.1230 -0.0418
12000W        W31534  11.797   5.820   3.240  0.1031  0.1511  0.0051
12001W        W31535   0.910   9.002   2.916  0.0700 -0.0036 -0.3480
12002W        W31536  16.884   1.188   1.371  0.1547 -0.1587 -0.0134
12003W        W31537   1.460   3.077   4.702 -0.2239  0.0265 -0.0460
12004W        W31538   4.962   9.408   3.401  0.0765 -0.1593 -0.1963
12005W        W31539   5.018  13.816  13.548 -0.1718  0.0118  0.1624
12006W        W31540   1.997   4.107  15.810  0.0418  0.0349 -0.2215
12007W        W31541  17.118  14.843  14.929  0.1006  0.0125 -0.4771
12008W        W31542   3.931   8.157   4.849  0.0270 -0.0899 -0.2313
12009W        W31543  16.844  12.921   2.597  0.0295  0.2614 -0.2696
12010W        W31544   3.101  11.478   1.986  0.4603  0.0940 -0.1405
12011W        W31545   7.616  16.079  16.264  0.0764 -0.0891 -0.0566
12012W        W31546   1.020  13.263  14.407 -0.0341  0.1595 -0.2038
12013W        W31547   4.463   1.165   4.046  0.0913 -0.1000  0.0186
12014W        W31548   5.620   6.262   2.436 -0.0489 -0.0092  0.1419
12015W        W31549  11.706   1.088   4.720  0.1001  0.3162 -0.0463
12016W        W31550   0.338   8.706   0.879  0.2536 -0.0966  0.1695
12017W        W31551   1.015   0.329  15.378  0.1531  0.0196  0.0073
12018W        W31552  10.706   1.547  15.487 -0.4934  0.1134  0.0121
12019W        W31553   2.185   2.698  15.994  0.0080 -0.1774  0.0021
12020W        W31554   0.453  17.040  15.499 -0.2774  0.0266  0.0077
12021W        W31555   8.512   7.964  16.912  0.1466  0.1919 -0.0811
12022W        W31556   7.398   6.918   4.956  0.1153 -0.0883  0.4048
12023W        W31557  15.547   0.386  14.329 -0.1687  0.0637  0.2854
12024W        W31558  16.758  17.570  14.258 -0.2678  0.0100  0.3030
12025W        W31559   3.801   8.931  15.967  0.0309 -0.0836 -0.0197
12026W        W31560  13.202   6.672   1.499 -0.1168  0.1189  0.0087
12027W        W31561  10.549  17.091  11.124  0.1070 -0.0237  0.0883
12028W        W31562   2.157   7.787   0.655 -0.1934  0.1331 -0.2499
12029W        W31563  12.513  16.421   1.117 -0.2293 -0.3342  0.0317
12030W        W31564   4.181   6.612   2.609  0.0342  0.1260  0.2395
12031W        W31565  16.639   8.720  15.652 -0.0527  0.1062 -0.0311
12032W        W31566  12.668   7.577  15.043  0.2174  0.0865 -0.1869
12033W        W31567   6.074  14.679  14.160 -0.0774 -0.1233 -0.4888
12034W        W31568  10.091   9.895   4.679  0.1501 -0.1280  0.1346
12035W        W31569   6.127   3.026   0.924 -0.2904 -0.1859 -0.0059
12036W        W31570   3.102  12.059   0.873 -0.1525  0.2429 -0.1719
12037W        W31571   9.713   3.123  15.030  0.3566 -0.2503  0.1344
12038W        W31572   4.269  15.238   3.669  0.1065 -0.0888  0.3563
12039W        W31573  14.303  15.303  16.882 -0.1015  0.0174  0.3199
12040W        W31574   2.762  11.646  14.066 -0.1176  0.3861  0.0286
12041W        W31575  10.730   0.895  16.617  0.0926 -0.3183 -0.0753
12042W        W31576  17.280   3.915   2.720 -0.0841  0.2430  0.0316
12043W        W31577  12.136  11.601   0.014  0.1962 -0.0097  0.1602
12044W        W31578  10.049  14.867   1.728 -0.2487 -0.3073  0.0065
12045W        W31579   5.508  12.990   2.997 -0.3291  0.0870  0.1180
12046W        W31580  15.883   8.944  15.824 -0.1646 -0.1028  0.0006
12047W        W31581   4.609   8.060  13.895  0.1018 -0.0319 -0.1844
12048W        W31582  16.967  12.441  14.197 -0.0480  0.4666 -0.0504
12049W        W31583  13.562  11.778   0.010  0.1903 -0.2165 -0.0737
12050W        W31584   9.511   0.700  12.250 -0.3135 -0.0129 -0.0464
12051W        W31585   0.509   4.678  13.595  0.3697 -0.0957  0.1535
12052W        W31586   7.601   3.488   4.633  0.0714  0.3453 -0.3399
12053W        W31587   6.479  11.631  14.579  0.2017  0.1820 -0.4189
12054W        W31588  11.603  17.536  13.445  0.0685  0.1067  0.0273
12055W        W31589   4.164   5.496   4.507 -0.0138  0.1671  0.2002
12056W        W31590   4.269  16.711   2.467 -0.1265 -0.2892 -0.3076
12057W        W31591  16.470   1.236  14.944  0.0762 -0.2283  0.2533
12058W        W31592   9.473   1.016   0.209 -0.0508 -0.2351 -0.0439
12059W        W31593   9.341  11.695  14.524  0.0253  0.0985  0.1888
12060W        W31594   8.243   5.007  13.034 -0.3287  0.3715  0.2011
12061W        W31595  17.110  15.900  16.648 -0.0970 -0.1046 -0.0699
12062W        W31596   0.829   7.604  13.543 -0.3540  0.1493 -0.1481
12063W        W31597  16.105   4.606   2.078  0.0131 -0.0331  0.0695
12064W        W31598   3.796   8.257   5.731  0.1810  0.0662 -0.0708
12065W        W31599   4.723  12.511   4.528 -0.1667 -0.1464  0.0834
12066W        W31600  16.689   9.164   2.372  0.0009 -0.0982 -0.0725
12067W        W31601  11.643  17.185   1.880  0.4190 -0.0757  0.1676
12068W        W31602  10.273  16.651   4.162 -0.0127 -0.0175  0.0446
12069W        W31603  12.351  16.195   5.244  0.0250 -0.2564 -0.0495
12070W        W31604   6.082   7.794   4.778  0.1041 -0.1512  0.1623
12071W        W31605  12.621   0.716   4.359  0.0848  0.0321 -0.2460
12072W        W31606   9.441   1.694  12.089  0.0618 -0.1029 -0.2544
12073W        W31607   4.111   5.954  15.695 -0.1095 -0.3982 -0.0428
12074W        W31608   2.271   1.279  13.073  0.0894  0.1551 -0.0127
12075W        W31609   8.992   6.408  15.030  0.2932 -0.0291 -0.1659
12076W        W31610  17.656   0.209  13.799  0.0429  0.0216  0.0865
12077W        W31611   0.843   7.479  16.660 -0.2979  0.2453  0.1918
12078W        W31612  14.340   3.343   3.717 -0.0286 -0.1841  0.0190
12079W        W31613   5.695  10.371   1.128 -0.1431 -0.1709  0.0484
12080W        W31614  14.710   2.309  13.607 -0.1239 -0.4119  0.0035
12081W        W31615   8.919   4.286  16.955  0.0377  0.2806  0.1977
12082W        W31616   1.623  16.522  13.800 -0.1301 -0.1766 -0.0148
12083W        W31617   6.101  15.422  13.298 -0.0069 -0.0165 -0.1214
12084W        W31618   9.265   7.055  13.073  0.0822 -0.2938 -0.1308
12085W        W31619   4.834   2.202  13.867 -0.1063  0.0654 -0.0090
12086W        W31620   6.312   5.414  16.897  0.0214 -0.0377  0.1591
12087W        W31621   9.596  16.317  14.267 -0.1711  0.0376 -0.0291
12088W        W31622  16.832   9.458   3.326  0.0767 -0.0846  0.0912
12089W        W31623  16.412   5.848   2.089 -0.0115 -0.2131  0.2343
12090W        W31624  10.279   4.356   2.256  0.1660  0.1547  0.0477
12091W        W31625  13.205   8.388   0.450  0.1789  0.0552 -0.0587
12092W        W31626  16.554  16.376  15.897 -0.0846 -0.2919  0.0476
12093W        W31627   1.948  17.618   0.433  0.0089 -0.4071 -0.0711
12094W        W31628  15.057   1.543  14.940 -0.1088 -0.0132  0.0598
12095W        W31629   6.466   4.969  16.049 -0.0080 -0.0706  0.0324
12096W        W31630   8.427   8.192   0.614  0.3625 -0.2929 -0.1047
12097W        W31631   6.476   0.246  14.337  0.0425  0.0051 -0.4611
12098W        W31632  10.343   6.484   3.894  0.2201 -0.1620  0.0025
12099W        W31633   2.388   2.258  15.948 -0.3220  0.1549 -0.3660
12100W        W31634  16.399  14.362   1.581 -0.1504  0.0934 -0.0952
12101W        W31635  14.776  10.013   1.870 -0.1667  0.0300 -0.1436
12102W        W31636  12.921  12.914  16.853 -0.0518  0.1772 -0.0527
12103W        W31637   6.030  14.267   3.209  0.1092 -0.2680 -0.1112
12104W        W31638   9.668  13.282  16.787  0.1542 -0.0303  0.1835
12105W        W31639   6.113   6.168   0.327 -0.3181  0.0565  0.0863
12106W        W31640   8.024   4.661  13.465  0.0593 -0.0871  0.1515
12107W        W31641  13.170  15.005  17.016  0.2103  0.0102 -0.1679
12108W        W31642  14.649   9.095  16.498 -0.0245  0.3074  0.2489
12109W        W31643   4.057   1.510  12.748 -0.0595  0.0288 -0.3819
12110W        W31644   8.018  10.303   3.201 -0.2517 -0.0618 -0.0480
12111W        W31645   7.193  11.781  16.606  0.2002  0.0531  0.1630
12112W        W31646   5.168  12.639  15.198 -0.0664 -0.0676  0.0049
12113W        W31647  12.444  17.022   3.626  0.1167  0.2396 -0.1318
12114W        W31648   6.744  14.826   3.466 -0.1504  0.1595 -0.0093
12115W        W31649  11.248   1.960   4.088  0.0821  0.0709 -0.1043
12116W        W31650   3.914   5.193   0.594  0.1027 -0.1990 -0.2777
12117W        W31651  11.623   2.453  13.570  0.1381 -0.3770 -0.1853
12118W        W31652   6.451  12.951  16.838 -0.0861  0.0254 -0.1093
12119W        W31653  13.084   8.344  15.493 -0.0616  0.3909  0.0414
12120W        W31654   0.001   0.807   3.590  0.0410  0.0299 -0.1829
12121W        W31655   0.299   5.016   1.368 -0.1679  0.1882  0.1595
12122W        W31656  11.865   3.105   2.588  0.1313 -0.0603  0.0628
12123W        W31657  17.566  13.489   2.859 -0.1408 -0.0895  0.1658
12124W        W31658   7.071  10.148  13.619  0.1227  0.1892 -0.0590
12125W        W31659   6.844   5.697  12.418 -0.1709 -0.1475  0.2185
12126W        W31660   8.522  14.198   3.246  0.2710 -0.0592 -0.1593
12127W        W31661  16.264   3.881  16.238 -0.0860  0.2953  0.1793
12128W        W31662  14.662   8.767   0.969  0.0888 -0.0947 -0.2187
12129W        W31663   6.170   1.859  16.271 -0.1273  0.2893 -0.1484
12130W        W31664  17.397  10.534  16.837 -0.0958  0.0169 -0.0559
12131W        W31665  11.727   0.362   4.949  0.1867 -0.2743 -0.2129
12132W        W31666  16.280  15.671   3.673  0.4754 -0.0325 -0.3183
12133W        W31667   2.325  10.148  14.511  0.1226 -0.0589 -0.0081
12134W        W31668  16.534   0.957  12.579 -0.1476  0.0447 -0.0939
12135W        W31669  17.073  11.169   2.597 -0.2942  0.0783  0.4836
12136W        W31670   6.217   3.993   2.558  0.3130 -0.0610 -0.1958
12137W        W31671  16.074  11.190  13.814  0.1862 -0.2116 -0.1465
12138W        W31672  11.984  13.022  15.029  0.0801  0.1161 -0.1442
12139W        W31673   9.448  15.413   1.219  0.0938  0.0357  0.0984
12140W        W31674   7.311   3.907   0.093 -0.2153  0.0071  0.0694
12141W        W31675   1.762  13.613  12.665  0.1624  0.1407 -0.1012
12142W        W31676   0.292   2.200  13.570 -0.5907  0.1032 -0.2027
12143W        W31677   2.593   2.860   2.537  0.2457 -0.2191 -0.0711
12144W        W31678  13.854   1.778   0.940 -0.0779 -0.0659  0.0447
12145W        W31679   3.661  15.098  14.560 -0.2174  0.0826  0.1489
12146W        W31680   0.589  11.778  13.296 -0.1832 -0.1209  0.1328
12147W        W31681   9.528   5.122  12.633  0.1146 -0.4137  0.1358
12148W        W31682  13.636  10.630  16.951  0.1520 -0.2835  0.0740
12149W        W31683  10.948   6.846   0.539  0.2072 -0.1800 -0.2530
12150W        W31684   8.061  11.814   0.446 -0.0044  0.1392 -0.1314
12151W        W31685  17.057  11.944  14.199 -0.1001 -0.3381 -0.0564
12152W        W31686   1.870   5.815   0.655  0.0534 -0.0202  0.2952
12153W        W31687  13.347   9.681  14.754 -0.0551  0.1169  0.1947
12154W        W31688   8.939   5.270   1.443 -0.0487 -0.0573  0.2016
12155W        W31689  11.247  14.454   4.494  0.1469 -0.0476 -0.0433
12156W        W31690  16.003   9.687  16.461  0.1402 -0.0882  0.1367
12157W        W31691   0.068  15.763   0.240  0.2632 -0.1544  0.0009
12158W        W31692   2.684   3.609  12.982 -0.1436 -0.2445 -0.0530
12159W        W31693  10.995  13.031  12.829 -0.0202 -0.0561  0.0962
12160W        W31694   2.026   6.748  16.994  0.2400 -0.0373  0.0941
12161W        W31695  13.030  15.962  15.856  0.3529  0.1389  0.1999
12162W        W31696   8.717  15.530  14.509 -0.3218 -0.0078  0.0806
12163W        W31697   9.786   6.597  12.429 -0.0339 -0.3589  0.2449
12164W        W31698   8.465   0.949  14.872  0.0189 -0.2677 -0.0286
12165W        W31699   4.939   3.385   4.590 -0.3060  0.0334  0.0602
12166W        W31700   7.160   6.133  15.158  0.0311 -0.2177 -0.0741
12167W        W31701  15.394  13.257  16.212  0.2228  0.2919  0.1419
12168W        W31702   6.564   7.139  13.611  0.0921  0.0193  0.0711
12169W        W31703  16.184  10.407   4.844 -0.0772 -0.0847  0.0362
12170W        W31704  13.059  10.069   0.421  0.3976  0.3005  0.2537
12171W        W31705   3.810  16.110  15.305 -0.0053 -0.1437 -0.0512
12172W        W31706   9.770   4.697  12.602  0.0724  0.0106  0.2822
12173W        W31707   8.675  15.273   2.946 -0.0795 -0.0063 -0.2666
12174W        W31708  12.861  15.533  14.499  0.2087 -0.0107  0.0020
12175W        W31709   0.241  14.097  13.311 -0.0258  0.2773 -0.2353
12176W        W31710   5.784   8.323  13.626  0.4396  0.1290 -0.1961
12177W        W31711  13.509  11.952   0.548  0.1221 -0.2959  0.0194
12178W        W31712   2.503   3.679  15.945 -0.0723  0.1844 -0.2391
12179W        W31713  15.742   7.147   0.940 -0.0512  0.0215  0.3114
12180W        W31714   6.686   4.978  13.140 -0.0528 -0.0598  0.0194
12181W        W31715   6.571  10.847  16.694 -0.1535 -0.2942  0.3241
12182W        W31716  16.916  15.157   4.525  0.2889  0.2343 -0.1635
12183W        W31717   6.258  14.290   2.727 -0.2230 -0.0219  0.0702
12184W        W31718   1.030   2.744  13.556  0.0128 -0.1738 -0.3607
12185W        W31719  17.012  14.179   4.788  0.0296 -0.0187 -0.2000
12186W        W31720   7.421  10.712  12.112  0.1161 -0.0525 -0.1670
12187W        W31721   3.596  13.156  16.920 -0.2272  0.3428  0.0180
12188W        W31722   3.174  12.721  16.246  0.3058  0.0373  0.2813
12189W        W31723  15.790  11.741   4.361 -0.1666 -0.0557 -0.1740
12190W        W31724   9.475   4.100   0.741 -0.4042 -0.1975 -0.1601
12191W        W31725  14.438  13.833   3.169 -0.1670 -0.0437 -0.0785
12192W        W31726  10.301  15.107   4.899  0.0109 -0.1318 -0.3086
12193W        W31727  15.723   6.383  12.999 -0.0673  0.0883 -0.0315
12194W        W31728  15.487  15.577  16.216 -0.4041 -0.1344 -0.0297
12195W        W31729  12.866  15.468  15.524 -0.0182  0.0445 -0.0562
12196W        W31730  15.419  11.886   4.060 -0.3078 -0.1460 -0.1234
12197W        W31731  11.360  10.478  15.851  0.2386 -0.3770 -0.1811
12198W        W31732   0.718  10.483  15.921  0.0480  0.1220 -0.0064
12199W        W31733   3.903   1.080   0.970  0.1997  0.0222  0.0329
12200W        W31734   0.457  17.221   4.671  0.1303 -0.1221 -0.0289
12201W        W31735   1.226  11.583  12.791  0.0992 -0.1001  0.3038
12202W        W31736   4.957  13.789   4.429  0.0480 -0.0156  0.2700
12203W        W31737   3.728   2.946  14.160  0.0134  0.0504 -0.0398
12204W        W31738   9.029  16.155  14.989 -0.2297 -0.1680  0.0740
12205W        W31739   8.755   9.856   0.885 -0.0423  0.1314  0.2755
12206W        W31740   6.263  12.443  15.530  0.0200  0.1485 -0.1428
12207W        W31741  13.616   5.969  16.265  0.1223  0.1078 -0.0355
12208W        W31742  13.263  12.868   0.160 -0.1503 -0.1222  0.0404
12209W        W31743   0.148  10.216   4.486 -0.2622 -0.0490  0.0600
12210W        W31744  13.886  16.606   0.020  0.1948  0.2344 -0.0688
12211W        W31745  12.154  14.238   4.243  0.1228  0.0407  0.0484
12212W        W31746   6.184   4.884   0.177  0.0268 -0.0021  0.0376
12213W        W31747  17.452  16.559  15.649  0.0588  0.1152 -0.0371
12214W        W31748   8.365  16.896  16.478  0.4896 -0.0345 -0.1498
12215W        W31749   9.838   7.643   2.508  0.0197  0.0592  0.0483
12216W        W31750  10.411   3.070   3.680 -0.0808 -0.0705  0.0092
12217W        W31751   0.662  15.859   0.355  0.1090  0.1271 -0.2973
12218W        W31752   2.368   3.171   3.676 -0.0876  0.2390  0.3114
12219W        W31753   3.592   5.805  12.803 -0.0275 -0.0957 -0.2734
12220W        W31754   1.595  12.319  13.373  0.0779 -0.0127 -0.0110
12221W        W31755  17.362  17.484   0.431 -0.2306 -0.0002 -0.2027
12222W        W31756  14.468  14.686  14.871 -0.0132  0.3436 -0.3042
12223W        W31757  15.403   9.282   2.750 -0.0143 -0.0126  0.2186
12224W        W31758   4.345   6.107   2.420 -0.0253  0.0517  0.3646
12225W        W31759  16.233  12.755  14.647  0.0736 -0.3486  0.0837
12226W        W31760   0.916  12.416  15.082 -0.0749  0.0759 -0.3848
12227W        W31761   7.817   7.968   5.338 -0.0302  0.0729  0.0523
12228W        W31762  10.268   6.881   4.690  0.1931  0.2282 -0.0494
12229W        W31763   3.159   8.747   0.366  0.1050 -0.1002 -0.0643
12230W        W31764  11.005   2.022   0.071 -0.0093  0.1838 -0.0802
12231W        W31765  14.112  11.536  13.544 -0.1088  0.1465 -0.3206
12232W        W31766  11.046   3.766   3.554  0.0760 -0.0759 -0.0599
12233W        W31767  13.593   9.383  16.039 -0.0148  0.2039 -0.0852
12234W        W31768   9.885  15.069  15.583 -0.2187  0.3752  0.0111
12235W        W31769  13.750   4.623   0.184 -0.1370  0.0102  0.1372
12236W        W31770   9.267   3.271  14.665 -0.2285  0.1334 -0.2717
12237W        W31771   1.806  16.965  13.088 -0.0436 -0.2321  0.0206
12238W        W31772   8.214   8.420   1.524 -0.1353  0.0905 -0.0682
12239W        W31773  15.783  12.062   3.165 -0.3933  0.1236 -0.1080
12240W        W31774  13.578   7.299   0.440 -0.1763 -0.0947  0.0493
12241W        W31775  17.330   3.733   0.776 -0.2135 -0.2546  0.0309
12242W        W31776   6.649  13.078  12.490 -0.1029  0.0716  0.0132
12243W        W31777  13.488   7.249  16.242 -0.0618 -0.1187  0.2049
12244W        W31778  17.644  14.722  14.808  0.2251 -0.1010 -0.0022
12245W        W31779   1.194   9.756   4.145  0.0355 -0.0180  0.1975
12246W        W31780  12.113  13.151   0.208  0.0262 -0.0679 -0.3691
12247W        W31781  10.647   1.360   2.892 -0.0933  0.2664 -0.1531
12248W        W31782  17.342  11.199   0.065  0.0074 -0.1615 -0.2245
12249W        W31783  10.787   6.375  13.640 -0.1645  0.0261 -0.0303
12250W        W31784   1.660  12.558   4.750 -0.1041  0.0818 -0.1672
12251W        W31785   0.450   7.939   3.586  0.3718  0.0480 -0.1431
12252W        W31786   5.622   8.902   1.655 -0.1230  0.0937 -0.2194
12253W        W31787  14.390  13.537   3.550  0.1819  0.2193  0.0522
12254W        W31788  11.907   5.227  15.080 -0.0994  0.2201  0.0937
12255W        W31789  16.079   3.711   1.048 -0.0490 -0.0905  0.2936
12256W        W31790   9.279   8.200   1.198 -0.0566  0.0495 -0.1184
12257W        W31791   7.457   0.528  13.433 -0.3016 -0.2653 -0.0492
12258W        W31792  13.690   2.268  14.656 -0.2711  0.1224 -0.1444
12259W        W31793  14.038   7.565   0.539  0.0173 -0.4953 -0.1503
12260W        W31794  13.011  12.960   5.002  0.0560  0.0325 -0.1996
12261W        W31795   7.811  10.895  13.823  0.1097  0.1011  0.1818
12262W        W31796   0.188   2.958  12.116  0.1872  0.0051  0.0702
12263W        W31797  15.628   5.616  12.993  0.1167 -0.0160 -0.1487
12264W        W31798  16.550   5.410   4.817 -0.1831 -0.0673  0.1086
12265W        W31799  10.030   2.644   4.012  0.2021 -0.0914  0.1846
12266W        W31800   3.208   6.985   3.626 -0.0872 -0.0774 -0.0421
12267W        W31801   3.685  16.210  12.042  0.1510 -0.2630  0.1818
12268W        W31802   5.771  14.479  14.583 -0.1897 -0.3688  0.0086
12269W        W31803   8.228   3.161  12.066 -0.2081 -0.1005 -0.2467
12270W        W31804  13.751  15.729  13.911  0.2692  0.0407 -0.2703
12271W        W31805  12.280   3.468   3.918 -0.2566  0.1499  0.3438
12272W        W31806   7.794   7.802   1.059 -0.0201  0.0731  0.3577
12273W        W31807   0.696  15.007   1.534 -0.2448 -0.4306  0.2770
12274W        W31808   9.808  11.729   1.895 -0.1820 -0.2148  0.0599
12275W        W31809   7.756   7.793   2.997 -0.0857  0.0383  0.0143
12276W        W31810   8.229   5.253  13.685  0.2792 -0.0755  0.1886
12277W        W31811  15.213   3.466   0.582 -0.2692 -0.0552  0.2317
12278W        W31812   4.482  11.048   4.604 -0.0485  0.1415 -0.1362
12279W        W31813   3.821  13.983  13.944  0.1936 -0.0800  0.1632
12280W        W31814  10.989  11.739   4.472 -0.1361 -0.0549 -0.0650
12281W        W31815  10.267  13.987  15.397  0.0735 -0.2104 -0.1905
12282W        W31816   2.722   7.972   1.107  0.1940  0.0191 -0.0637
12283W        W31817  15.768  16.100   0.480 -0.1041  0.0579  0.0231
12284W        W31818   2.435  10.641  13.341 -0.1707  0.3052 -0.1910
12285W        W31819   8.950   5.059  11.937  0.1397  0.0551 -0.1227
12286W        W31820   0.480   3.044   2.600 -0.1617  0.0246  0.1013
12287W        W31821   4.487   1.895  15.099  0.0252  0.2464  0.3762
12288W        W31822  17.465   9.738   2.827  0.0183  0.0044 -0.2832
12289W        W31823   6.605   3.141   4.896  0.0321  0.0666 -0.0381
12290W        W31824   1.175   3.147   1.403 -0.0642 -0.0176  0.1650
12291W        W31825   9.407   5.178  16.083 -0.0422  0.0880  0.2621
12292W        W31826  13.139   8.349  10.832  0.0645 -0.3064  0.0635
12293W        W31827  16.139  13.386   1.026 -0.0353 -0.1004 -0.0051
12294W        W31828   1.534   0.237   1.726 -0.0235 -0.1604 -0.1279
12295W        W31829   8.748   2.349   1.506 -0.3582 -0.1564  0.0122
12296W        W31830  12.105   2.559   4.258 -0.1486  0.0026  0.0303
12297W        W31831   1.765   3.381  13.124  0.0651  0.1078  0.1145
12298W        W31832  16.952   1.016   4.513 -0.1498  0.0837 -0.1974
12299W        W31833  15.757  15.957  13.767  0.2117  0.2097 -0.2562
12300W        W31834   8.044   6.956   4.436 -0.0920 -0.1388  0.1725
12301W        W31835  10.045  15.841   2.089 -0.2259  0.0619 -0.0282
12302W        W31836  11.972  16.263   1.335 -0.0623  0.1503  0.2896
12303W        W31837  10.935  13.453  12.077  0.0760 -0.0078 -0.1051
12304W        W31838   4.688   3.841   2.228  0.1894 -0.2360  0.0372
12305W        W31839   3.019  14.672  11.815 -0.0179 -0.0458  0.0977
12306W        W31840   4.774  12.439   2.906 -0.2558 -0.2696 -0.1956
12307W        W31841  16.455   0.888   2.539  0.0546 -0.2966 -0.1690
12308W        W31842   7.389   8.269   3.950 -0.1592 -0.2044  0.0547
12309W        W31843  15.720   3.522   0.712  0.1227 -0.0616  0.0108
12310W        W31844  12.085  16.378  16.741 -0.1079  0.2767  0.0281
12311W        W31845   7.498   2.446  16.981 -0.1494 -0.1701  0.0016
12312W        W31846   7.484   9.609   2.120  0.2259 -0.0629  0.0633
12313W        W31847  15.604  11.954  14.492 -0.0349  0.1895 -0.0032
12314W        W31848   3.344  10.671   0.863  0.0845  0.0628  0.0677
12315W        W31849   2.339  16.320  15.755  0.2654  0.1414  0.1750
12316W        W31850  11.762  10.367   0.070  0.1798 -0.3124 -0.2122
12317W        W31851  13.133  15.535   4.560 -0.0493 -0.2222 -0.0176
12318W        W31852   5.189  16.615   0.069  0.1821 -0.0014 -0.1983
12319W        W31853  13.043   5.842  16.189 -0.1466 -0.3984  0.0664
12320W        W31854   9.132   6.141   0.019  0.3361 -0.0841  0.0999
12321W        W31855  13.997   4.858   3.346  0.0891  0.0652 -0.2911
12322W        W31856   3.461  14.976  15.901 -0.1401 -0.0644  0.0134
12323W        W31857  12.178   3.667   1.051  0.0549  0.0340 -0.0990
12324W        W31858   1.894  12.807   1.638  0.2239  0.1354 -0.2450
12325W        W31859  16.637  13.243   1.071  0.0749 -0.1324 -0.0389
12326W        W31860   4.293   8.203   0.683 -0.0443 -0.2717  0.1030
12327W        W31861   7.029  16.171   1.009  0.1621 -0.4727  0.1319
12328W        W31862  15.704  13.239   3.291  0.0778  0.2561 -0.1223
12329W        W31863  17.090  13.174  15.924 -0.0925 -0.0036 -0.0594
12330W        W31864  10.129   4.226   2.713  0.2768  0.2335  0.3177
12331W        W31865  15.271   8.895  13.643 -0.2458 -0.0839 -0.0237
12332W        W31866   8.028  13.000  16.783  0.0527 -0.0002  0.0597
12333W        W31867  12.571   0.331  12.580 -0.3377  0.1193 -0.3445
12334W        W31868   9.726   3.434   2.577  0.3442  0.3919 -0.1307
12335W        W31869   9.607  15.599  14.879  0.0182  0.0083  0.0638
12336W        W31870   0.398  12.671   2.840  0.3195 -0.4079 -0.0015
12337W        W31871   8.227   3.905   0.841  0.1550 -0.3522  0.2082
12338W        W31872   8.987   7.353   2.977  0.1401 -0.1810 -0.1391
12339W        W31873   3.677   1.543  15.465 -0.0322 -0.0351  0.1025
12340W        W31874   0.047  12.993   4.746  0.1541 -0.1691  0.2210
12341W        W31875   2.848  14.595  13.981  0.1056 -0.2970  0.0254
12342W        W31876   9.313   2.505  13.422  0.0019 -0.0491  0.1250
12343W        W31877   0.438   7.386  13.196  0.0204 -0.0503 -0.1710
12344W        W31878  14.663   8.793   1.464 -0.0990  0.0395 -0.1144
12345W        W31879   0.990   3.312   0.933 -0.0230 -0.3012  0.0931
12346W        W31880  13.328  15.693  12.383  0.1538 -0.0494 -0.0806
12347W        W31881   3.632   7.227   3.413 -0.2679 -0.1719 -0.2677
12348W        W31882  12.102  11.876  13.856  0.1963  0.0013 -0.1333
12349W        W31883   4.584  11.296  16.300  0.0936  0.0109  0.0201
12350W        W31884  11.782  13.903  12.131  0.1413  0.1217 -0.1247
12351W        W31885   1.652  11.097   2.970 -0.1343 -0.0249  0.1237
12352W        W31886  11.356  13.401  17.059 -0.1767 -0.1900 -0.0099
12353W        W31887   3.427   6.678   3.282  0.1721  0.1453 -0.1720
12354W        W31888   6.581   7.206   0.556  0.2492  0.0362 -0.1588
12355W        W31889   4.754  11.773  16.211 -0.2792  0.2471  0.2043
12356W        W31890  11.652   5.996  12.768  0.0274 -0.0145  0.0498
12357W        W31891   5.942   3.518  14.425 -0.0748  0.1992 -0.0720
12358W        W31892  17.626  13.599   1.940  0.0172 -0.1742  0.0281
12359W        W31893  14.711   9.895  15.059 -0.1237  0.0093  0.0171
12360W        W31894  15.081  16.449   3.485  0.1414 -0.4088 -0.0306
12361W        W31895  13.906   3.994   5.376  0.2387  0.1654  0.2641
12362W        W31896   6.713  11.649   3.837  0.1194  0.1889 -0.2737
12363W        W31897   1.371   6.296   1.066 -0.0896 -0.2197  0.0185
12364W        W31898  17.299  15.201   2.878 -0.3411  0.4501  0.2372
12365W        W31899   2.721   3.282   0.161  0.3211  0.0113  0.1562
12366W        W31900   5.205   2.965  15.366 -0.1223  0.0691 -0.1002
12367W        W31901   0.029   0.878   4.751  0.2504 -0.4263  0.0943
12368W        W31902   6.217   4.205   3.073 -0.1001  0.0846  0.3064
12369W        W31903   7.849  12.644   0.015 -0.0513 -0.0255  0.1041
12370W        W31904   8.606   2.798   3.198  0.1102  0.0438  0.0280
12371W        W31905   1.119  11.987  13.832  0.0092  0.0471 -0.2884
12372W        W31906   3.307  11.319   1.558  0.1054 -0.1932 -0.0767
12373W        W31907   5.878  15.948   3.270  0.2539  0.2582  0.0864
12374W        W31908   1.485   0.653   0.723 -0.0498 -0.2534  0.1781
12375W        W31909   1.351  15.262   2.318  0.0005 -0.0399  0.0436
12376W        W31910   5.563  13.473   3.204 -0.2197 -0.1976  0.0146
12377W        W31911  16.439   1.568  13.969 -0.0902 -0.2877  0.0894
12378W        W31912  13.460  15.414   1.172  0.1462 -0.1955 -0.3632
12379W        W31913  12.326   5.489  17.054 -0.1439 -0.0934 -0.3913
12380W        W31914   5.497  16.286   4.332 -0.0513  0.1539 -0.1101
12381W        W31915   3.028   4.638   4.959 -0.0825  0.0677  0.2651
12382W        W31916  15.672  11.290   0.985 -0.0889 -0.2831  0.0322
12383W        W31917   4.056   3.880   5.113  0.1884 -0.3478 -0.1644
12384W        W31918  15.474   8.176   2.508 -0.1222 -0.1637 -0.0665
12385W        W31919   8.412   2.282  16.377  0.3822 -0.0878  0.2486
12386W        W31920   4.679  11.610  12.129  0.3694  0.1924 -0.1318
12387W        W31921   1.712  12.017   4.548  0.0888  0.0580 -0.1070
12388W        W31922  17.212   7.951  12.935  0.1395  0.1258 -0.0611
12389W        W31923  10.266   5.282   0.405 -0.0782  0.0970  0.0392
12390W        W31924  13.186   6.447   4.465  0.4388  0.1696 -0.1327
12391W        W31925   0.722   0.586   2.640 -0.1434  0.0713 -0.1707
12392W        W31926  10.930  13.420   0.305 -0.1271  0.1157 -0.0903
12393W        W31927  10.003  11.150   0.550  0.1910  0.2259  0.0699
12394W        W31928   0.132   7.421   0.090 -0.1865  0.0107  0.0645
12395W        W31929   6.434   2.621   0.572  0.2103 -0.0719 -0.0038
12396W        W31930   3.893  12.403   0.352 -0.3255 -0.1124 -0.1003
12397W        W31931  10.140   8.056   3.196 -0.2519  0.2311  0.1112
12398W        W31932  14.676   7.642   1.651  0.5111  0.0860  0.2303
12399W        W31933   6.217  15.662  11.996  0.1023 -0.0823  0.0504
12400W        W31934   4.025  12.680   3.671  0.3371 -0.1009  0.0488
12401W        W31935  13.267  17.493   0.073 -0.2723  0.4122 -0.0377
12402W        W31936   6.613   9.697   3.503  0.3758 -0.0326  0.1672
12403W        W31937   7.911  16.039  12.822  0.2688  0.1618 -0.0197
12404W        W31938  12.182  17.362   1.973  0.0760 -0.0931 -0.1760
12405W        W31939   0.654  10.339   1.974  0.2131  0.1767  0.0920
12406W        W31940   1.799   1.514  15.125 -0.0164 -0.2215  0.1733
12407W        W31941   3.594   7.195  16.267  0.1155  0.0238 -0.3251
12408W        W31942   5.130   1.448  14.951 -0.0838  0.1698 -0.2862
12409W        W31943  17.175  15.726  12.256 -0.3053 -0.1237  0.1755
12410W        W31944   8.744   2.302   0.991 -0.1894 -0.2102  0.2239
12411W        W31945  16.213   4.242  13.953  0.1115 -0.1906  0.2315
12412W        W31946   8.640   3.313  12.271 -0.0323  0.1543 -0.4675
12413W        W31947   6.120  10.973  15.284 -0.1607  0.1848 -0.3663
12414W        W31948   3.220  13.714  13.798  0.0642 -0.3719 -0.2441
12415W        W31949  10.925  10.951   0.849  0.2417  0.0524 -0.1501
12416W        W31950  12.808  17.531  15.934  0.0630 -0.2847 -0.3251
12417W        W31951   6.006   4.536   4.328  0.0412 -0.2251 -0.1664
12418W        W31952   6.223   4.422   0.868  0.2311  0.1769  0.3427
12419W        W31953   3.501  10.346   3.709 -0.0038 -0.1214 -0.2185
12420W        W31954  15.467   5.073   3.186  0.0922 -0.1348  0.1878
12421W        W31955   9.073  11.260   2.142  0.2994  0.2476  0.3370
12422W        W31956  15.880  14.796  15.851 -0.0950 -0.0552 -0.3975
12423W        W31957   9.709  17.164   3.692  0.2057  0.2957 -0.0909
12424W        W31958  11.900  12.522   3.670  0.2427  0.1730  0.1185
12425W        W31959   1.105   1.451  14.263  0.0166  0.0391 -0.1001
12426W        W31960  12.373   7.040   0.947  0.0821  0.0701  0.0063
12427W        W31961  16.547  14.653   3.122  0.1173  0.2454 -0.0338
12428W        W31962   9.143   7.830  16.731 -0.1490  0.0369 -0.2221
12429W        W31963   5.070   4.139  13.265 -0.1131  0.2911  0.1656
12430W        W31964   9.498   9.791  14.958 -0.1316 -0.1595 -0.0039
12431W        W31965   3.752   2.970   2.932  0.0640 -0.2174  0.2329
12432W        W31966   6.161   8.157  13.350  0.0312 -0.2093  0.2918
12433W        W31967   3.031   7.281  15.705 -0.0908 -0.1610  0.1518
12434W        W31968  17.501   6.609  13.510  0.2131 -0.0873  0.0177
12435W        W31969   1.873  10.233   3.255  0.1193 -0.1683  0.1270
12436W        W31970   0.624  16.318   3.254 -0.0833  0.0452  0.1368
12437W        W31971   2.530   5.067  12.611  0.0338  0.2580  0.3389
12438W        W31972  11.298  17.613  13.002 -0.0979 -0.0837  0.0273
12439W        W31973  10.945   4.678  16.071  0.3420 -0.3547  0.2427
12440W        W31974   3.899  14.826  16.189 -0.1639  0.0575  0.3659
12441W        W31975  13.684  11.587  16.605  0.1191  0.3591  0.1627
12442W        W31976  15.268  16.025  11.834 -0.0412 -0.0910 -0.0028
12443W        W31977  13.730   0.127   2.876 -0.2909 -0.2903  0.2521
12444W        W31978   4.416   7.428  14.005 -0.0021  0.1931  0.0373
12445W        W31979  16.478  11.305  12.298 -0.0942 -0.1331 -0.0054
12446W        W31980  14.049   4.561  14.746  0.0320  0.0987 -0.1482
12447W        W31981  10.195   1.635   2.783 -0.2232 -0.3541  0.1615
12448W        W31982   8.084   7.852   0.633  0.0343  0.0926 -0.0491
12449W        W31983  16.316   2.112   0.570 -0.0333 -0.4150  0.0310
12450W        W31984   1.158  14.657  16.838  0.1603 -0.4554 -0.2348
12451W        W31985  14.889  11.146  14.079  0.2323  0.2763 -0.1858
12452W        W31986  14.870   1.756   4.314 -0.0801  0.0336  0.0277
12453W        W31987  15.482   4.289   2.729  0.1188  0.0708  0.4195
12454W        W31988  13.742   4.843  13.129 -0.0834  0.2596 -0.2542
12455W        W31989   7.039  16.583   2.529  0.1525  0.0357  0.0138
12456W        W31990  13.685   0.774   0.381  0.0606  0.3962  0.0196
12457W        W31991   4.143  13.490   3.718 -0.0418 -0.2565  0.1327
12458W        W31992   6.503  11.527   0.363  0.0404  0.0567  0.1111
12459W        W31993   2.358  13.970  13.199  0.2197  0.0281  0.0993
12460W        W31994   9.772  10.722  15.505  0.0246 -0.1666 -0.2706
12461W        W31995   1.737   3.065  16.087 -0.0481  0.3261  0.3218
12462W        W31996  12.899   2.941  13.239 -0.2294 -0.2024  0.4530
12463W        W31997   4.398  11.076   3.942  0.0062 -0.1293  0.1252
12464W        W31998   9.817   5.564  12.352  0.2362 -0.0817 -0.1782
12465W        W31999  11.234  10.464  16.301  0.1712 -0.2846 -0.0786
12466W        W32000   3.086  17.440   2.315 -0.0149 -0.1432  0.1170
12467W        W32001   8.545  10.429  15.599  0.0384  0.1281  0.1565
12468W        W32002   7.960   2.166   2.134  0.0577 -0.0293 -0.1557
12469W        W32003  16.184   4.288   1.654  0.0954  0.0690 -0.5010
12470W        W32004   2.486  15.749  13.600 -0.0415  0.0315  0.0589
12471W        W32005   8.924   5.820   1.264  0.2824 -0.0676  0.0621
12472W        W32006  13.517   9.616   2.029  0.0282  0.1893  0.1195
12473W        W32007  12.402  11.537  14.539 -0.3766 -0.1599  0.1630
12474W        W32008  11.091  15.782  13.341 -0.0169 -0.1313  0.0230
12475W        W32009  11.557   3.864   2.361 -0.0069 -0.1268  0.2776
12476W        W32010  12.493  14.938   1.992 -0.3231  0.0493 -0.1846
12477W        W32011   9.501  12.368   4.634 -0.0247 -0.1464 -0.2134
12478W        W32012   7.487   1.079  13.145  0.0603  0.1368 -0.1720
12479W        W32013   7.518  14.278  12.250  0.1558  0.2620 -0.2597
12480W        W32014   3.505  12.422   4.145 -0.0397  0.0691  0.0142
12481W        W32015   6.294   0.352   4.942 -0.0473  0.1679 -0.6037
12482W        W32016  15.108   5.942   1.853 -0.1181  0.3202 -0.1824
12483W        W32017  13.596   9.192   1.690  0.0861  0.0184  0.0409
12484W        W32018  14.343  12.153  11.932  0.3544 -0.1438 -0.0103
12485W        W32019   7.525   9.266   3.918  0.1742  0.1462 -0.2365
12486W        W32020   5.892  15.516   4.454 -0.1766 -0.2792  0.0364
12487W        W32021   2.021   7.532   4.395  0.3367 -0.0315  0.2401
12488W        W32022  16.885   6.052   0.615 -0.0031 -0.0480  0.3336
12489W        W32023   9.088  16.838  12.682 -0.0912  0.3180 -0.0399
12490W        W32024   6.546   5.419  12.170  0.1604 -0.1943 -0.0764
12491W        W32025   5.736   4.170  12.569  0.0687  0.1086 -0.1420
12492W        W32026  13.378   4.307  16.546 -0.2771 -0.2348 -0.0973
12493W        W32027   9.712   0.265   1.626 -0.1657 -0.2994  0.1184
12494W        W32028   1.238  13.759   3.340 -0.0526  0.1534 -0.3563
12495W        W32029  14.020  13.268  13.564  0.2262  0.3685 -0.0204
12496W        W32030  11.108  10.687   0.484 -0.2729 -0.2451  0.1208
12497W        W32031   1.387   8.213  17.025  0.1077  0.2315 -0.4378
12498W        W32032   2.398  11.541   1.340  0.0102 -0.1539  0.2425
12499W        W32033  10.568   0.787   3.181 -0.1279  0.0199 -0.0400
12500W        W32034   8.710   6.613   2.650 -0.1847  0.0443  0.3921
12501W        W32035  17.207  13.078   4.595  0.1438 -0.1862 -0.0129
12502W        W32036   5.229  15.168  13.187  0.4167  0.0671 -0.2094
12503W        W32037   9.300   4.985  15.633 -0.0017  0.1814  0.1484
12504W        W32038  15.163   3.531  15.128 -0.1519  0.0958 -0.0881
12505W        W32039  14.212   0.843  15.566  0.2325  0.2956 -0.1702
12506W        W32040  15.391  13.993  15.258  0.1762  0.2729 -0.1975
12507W        W32041   0.360  12.793  15.832  0.1939  0.0947  0.0443
12508W        W32042   7.012   3.068  14.646 -0.1486  0.2487 -0.0550
12509W        W32043   5.126   2.282   0.139  0.2281  0.1776 -0.1188
12510W        W32044  17.513   3.218  16.669  0.0100 -0.0436  0.0269
12511W        W32045  17.659  11.167   2.044  0.0424 -0.3395 -0.0377
12512W        W32046  15.138  16.737  12.424 -0.1524 -0.0849 -0.1683
12513W        W32047  14.457  14.805   0.489  0.2097 -0.0072 -0.2252
12514W        W32048  14.991  15.984   1.846 -0.1492  0.4437 -0.1783
12515W        W32049  14.427   9.298   1.045  0.0655 -0.5254  0.2475
12516W        W32050  17.143  15.376  16.783  0.1506  0.4376 -0.2342
12517W        W32051   7.642   1.284  15.439 -0.1155  0.0665 -0.1451
12518W        W32052   7.865   6.939  12.647  0.0280 -0.0336  0.2782
12519W        W32053   6.094  10.224   0.025  0.1010  0.1866  0.0521
12520W        W32054   4.709   7.159   1.397  0.1902  0.0308 -0.1687
12521W        W32055   3.766  12.950   0.404  0.1521 -0.0422 -0.1148
12522W        W32056   9.252  15.805  16.818 -0.3001  0.0612  0.1545
12523W        W32057   6.361  11.468   2.544  0.4088  0.0192  0.1839
12524W        W32058   4.826  17.622   1.811  0.1026 -0.1871 -0.3382
12525W        W32059   1.948   2.819   4.611  0.0477 -0.0723  0.0580
12526W        W32060  10.849   5.552   2.090 -0.2018 -0.0494 -0.1350
12527W        W32061   3.420   3.388   0.623  0.0731  0.1043  0.1255
12528W        W32062  13.974  13.696   3.273  0.1945  0.1061  0.2783
12529W        W32063  12.063  11.151   4.222 -0.1603  0.1807  0.2059
12530W        W32064  11.927  13.485  14.991 -0.1428 -0.1641  0.2275
12531W        W32065   5.945  14.264  12.830 -0.0236 -0.1009  0.0162
12532W        W32066   3.419   4.908  14.439  0.2062 -0.0423 -0.3598
12533W        W32067   8.180  12.675  14.063 -0.3006 -0.0332 -0.1953
12534W        W32068   4.896   2.684  15.075  0.3102  0.1561  0.1452
12535W        W32069  12.264   9.396   2.525 -0.2948 -0.1864  0.1868
12536W        W32070   4.810   7.057  16.645  0.0481 -0.2490  0.0321
12537W        W32071  11.507   3.886   5.395 -0.1222 -0.1122  0.1212
12538W        W32072  15.527   2.209  12.584  0.0692 -0.0518  0.2271
12539W        W32073  10.718  15.389  13.053 -0.4563 -0.1070  0.1159
12540W        W32074   1.952  14.513  16.336 -0.5220 -0.2504  0.1343
12541W        W32075   5.987  15.181   2.619 -0.1602 -0.2294  0.2072
12542W        W32076   7.881   5.506   4.935  0.0138 -0.0154  0.0800
12543W        W32077   6.255  10.153   2.571 -0.2808 -0.1628  0.2070
12544W        W32078  17.388   7.273   0.860  0.0891 -0.0675 -0.2715
12545W        W32079  16.074  12.046   2.167  0.0681 -0.0954 -0.1819
12546W        W32080  17.073   9.194   4.137 -0.1702 -0.0053 -0.0806
12547W        W32081   6.161   8.501   0.673 -0.0024  0.0549 -0.1000
12548W        W32082   9.617  10.230  15.506  0.3489 -0.1726  0.5652
12549W        W32083  16.520   1.897  13.428  0.2637 -0.4020  0.2106
12550W        W32084  16.517   1.324  16.710 -0.0266  0.3004 -0.0743
12551W        W32085  15.463   5.432   5.078 -0.0333  0.2193 -0.3172
12552W        W32086   5.008   1.593  16.566  0.0922 -0.0504  0.3177
12553W        W32087   9.562  16.770  14.033  0.0715  0.2995 -0.2460
12554W        W32088   7.874  17.467   4.831 -0.2218 -0.2558  0.1163
12555W        W32089   1.943  11.567   0.277  0.2170  0.3282  0.4726
12556W        W32090   4.392  10.327   2.236  0.1392  0.1492 -0.2418
12557W        W32091  14.663  10.850  13.544 -0.3838 -0.0002 -0.0516
12558W        W32092   9.092  15.626  14.836  0.2537 -0.0853  0.0674
12559W        W32093  13.074   1.024   2.996  0.1335  0.2832 -0.1644
12560W        W32094  11.923  13.579  12.583 -0.1956  0.4147  0.1851
12561W        W32095  16.968  10.648   0.351 -0.2184  0.1247  0.2279
12562W        W32096   6.999  10.856   0.855 -0.4839  0.0129 -0.0425
12563W        W32097  13.390  15.355   2.958  0.0133 -0.0240 -0.0970
12564W        W32098   2.496   6.724   0.675 -0.2359 -0.0353  0.1956
12565W        W32099   7.131  12.631   0.810 -0.0345 -0.2776 -0.1040
12566W        W32100   8.928   3.765  13.225  0.3103  0.1410  0.0434
12567W        W32101  16.894   0.014  15.592 -0.3133 -0.1126 -0.0841
12568W        W32102  16.215   2.107  14.853  0.3171 -0.1523 -0.1073
12569W        W32103  17.032  14.053   2.522 -0.1683 -0.0862  0.2219
12570W        W32104   3.733   9.238  13.550  0.0095  0.0191 -0.0124
12571W        W32105  10.928  13.481  15.093 -0.3043  0.0434  0.0230
12572W        W32106  10.297   4.222   4.017  0.0234 -0.0394 -0.0467
12573W        W32107   6.430   1.557  16.637  0.0125 -0.5389 -0.1540
12574W        W32108   8.574   3.894  14.491 -0.0861 -0.0690  0.4082
12575W        W32109  15.070  16.010  13.465  0.0036  0.0048  0.1406
12576W        W32110   1.770   2.457   4.216  0.1017  0.0938  0.1066
12577W        W32111   3.056  10.765   0.357  0.0736 -0.0899  0.0240
12578W        W32112   4.368   9.354   2.380  0.1007 -0.1472  0.1302
12579W        W32113   7.233  11.202   5.122 -0.2904  0.0424  0.1254
12580W        W32114   0.272  13.467   3.586  0.1386  0.0220 -0.1077
12581W        W32115   0.580   7.126   4.510 -0.1592 -0.2908  0.1820
12582W        W32116   7.088  10.503  13.287  0.0673 -0.2955  0.0120
12583W        W32117   7.714   9.829  14.000 -0.3532 -0.1668 -0.0789
12584W        W32118  10.215  11.803  12.230 -0.0298 -0.0163  0.0889
12585W        W32119  11.901  11.044   3.455 -0.0450  0.0928  0.1101
12586W        W32120   6.130  10.887   4.325  0.0920  0.1366 -0.1860
12587W        W32121  16.120  16.509   3.477 -0.1709  0.0584 -0.1163
12588W        W32122   7.922   1.143  17.059 -0.0398 -0.1497  0.1457
12589W        W32123   8.193   9.648   2.773  0.0225  0.0823  0.1537
12590W        W32124   7.028   0.946   3.763 -0.1350 -0.3895 -0.1182
12591W        W32125   4.477   6.281  15.256  0.0047 -0.2025  0.1560
12592W        W32126   6.027   6.703  15.094  0.2408  0.0512  0.0168
12593W        W32127  16.786  16.348  16.669  0.2332 -0.0102  0.0557
12594W        W32128  14.968   9.034  15.330 -0.0105 -0.1698  0.0208
12595W        W32129   0.460   9.744  12.309 -0.1054  0.0557  0.1055
12596W        W32130   3.081  17.300   1.827 -0.2525  0.0495 -0.1595
12597W        W32131  12.809  14.595   3.662  0.2095 -0.3157  0.1173
12598W        W32132  12.263   3.426  15.960 -0.3113  0.0629  0.2120
12599W        W32133   1.021   8.588   1.275  0.0301  0.0594  0.0116
12600W        W32134  11.380   0.224  12.189 -0.0523 -0.0603 -0.0749
12601W        W32135  14.090   3.405  17.045 -0.0078 -0.0677 -0.0821
12602W        W32136   2.520   1.607  13.341 -0.0015  0.0257 -0.4544
12603W        W32137   6.481  10.028  13.435  0.1864 -0.0090  0.2598
12604W        W32138  15.086   7.971   2.843 -0.0368 -0.1062 -0.3492
12605W        W32139   3.904  11.997   2.782  0.1615  0.1205  0.1109
12606W        W32140  15.792   6.660   4.858  0.0065  0.0843 -0.0352
12607W        W32141  11.198   0.972  14.758 -0.1354  0.0024 -0.4300
12608W        W32142   7.583   0.239  16.423 -0.1144 -0.1566 -0.1248
12609W        W32143  15.727   1.759   3.231 -0.0195  0.2100 -0.0434
12610W        W32144   6.657  11.684   1.580 -0.0702  0.2160 -0.1973
12611W        W32145  17.349   5.090  13.064 -0.1089 -0.0675  0.1081
12612W        W32146   2.779   3.245   1.125  0.2673  0.2320  0.1935
12613W        W32147   4.048  13.735   0.871 -0.2687 -0.2023  0.0356
12614W        W32148  14.079  11.102   2.678 -0.1834  0.1262  0.3535
12615W        W32149   2.599   4.483   3.968 -0.1686  0.4032  0.0105
12616W        W32150   2.458  10.180  16.688 -0.0472 -0.0363 -0.2941
12617W        W32151   6.695   6.378   2.170  0.0594  0.0605 -0.2075
12618W        W32152  17.189   8.786   0.359  0.0020  0.3251 -0.1897
12619W        W32153  12.859   4.812  16.928 -0.3556  0.0325  0.1729
12620W        W32154  12.980   4.442   3.393 -0.0943  0.1965  0.0418
12621W        W32155   0.099   5.000   0.366 -0.1388 -0.0696  0.0487
12622W        W32156   4.766  11.067  16.782 -0.0656  0.2923  0.2686
12623W        W32157   3.444  12.557   2.236 -0.0471 -0.0952  0.1370
12624W        W32158  11.040   3.707  15.934 -0.1822 -0.1406 -0.2652
12625W        W32159  11.728  12.424  12.762 -0.0168 -0.0151  0.0810
12626W        W32160   1.637   6.628   4.314  0.2656  0.3813  0.1108
12627W        W32161   5.124  14.934  15.154  0.0406 -0.0384  0.2250
12628W        W32162  11.796   2.794  12.709  0.2624 -0.2330 -0.0829
12629W        W32163   4.189  16.784   4.444 -0.2688  0.2783  0.1684
12630W        W32164   1.338  12.122  16.831  0.1445  0.2069 -0.0786
12631W        W32165   2.524  12.028   1.615 -0.1875 -0.4228  0.4151
12632W        W32166  16.121  10.901   2.282  0.1036  0.0614 -0.0725
12633W        W32167  13.615   5.481   3.046  0.1211 -0.1770 -0.0017
12634W        W32168  16.411   6.994  12.408 -0.0795 -0.1135  0.1260
12635W        W32169   5.585  12.684  16.115  0.0993 -0.3889  0.0239
12636W        W32170   3.746  12.691  12.170 -0.1152  0.1795 -0.2932
12637W        W32171   7.399  13.319   4.719 -0.2303  0.4526  0.2607
12638W        W32172   4.906  17.265  16.063 -0.3010 -0.1476 -0.1242
12639W        W32173   8.679   4.735   1.554 -0.1308  0.1336  0.1406
12640W        W32174   8.553  11.038   0.622  0.1670 -0.0007 -0.0761
12641W        W32175   6.348   4.735  12.830 -0.0476  0.1655  0.1126
12642W        W32176   1.871  12.707   4.328 -0.0262 -0.0797 -0.1370
12643W        W32177   1.877   9.176   2.971  0.0509 -0.1060  0.0468
12644W        W32178   0.686   6.922  15.771  0.1401 -0.0244 -0.2179
12645W        W32179   9.911   6.591  13.001 -0.1109  0.1004  0.4115
12646W        W32180  13.161   0.993  12.639  0.2930 -0.1256  0.0840
12647W        W32181  10.363  13.571   0.411  0.1314 -0.1598  0.1636
12648W        W32182   5.580   3.568  14.815  0.1880  0.1108  0.0957
12649W        W32183  10.847   5.553  11.578  0.2078 -0.2542  0.0033
12650W        W32184   2.294   0.931  15.652  0.0561  0.0833 -0.0565
12651W        W32185  13.446   4.838   0.587  0.0824 -0.1153 -0.0446
12652W        W32186   9.530   1.955   4.403  0.2564 -0.1076  0.0999
12653W        W32187  10.829   9.492   3.414 -0.0301 -0.1428 -0.2802
12654W        W32188   1.731   5.303  11.439 -0.0761  0.1870 -0.1739
12655W        W32189  17.139   2.466  12.442  0.0735 -0.0663 -0.1524
12656W        W32190   6.832  14.598  15.473  0.1229 -0.0375 -0.3450
12657W        W32191   7.516   0.473   4.646 -0.2396 -0.0507 -0.0104
12658W        W32192   5.489   5.598   4.293  0.0026  0.1680 -0.1455
12659W        W32193  10.867  14.405   1.004  0.2296 -0.2043 -0.2428
12660W        W32194  17.662  13.158   1.945 -0.0821  0.0285  0.4623
12661W        W32195   7.538  12.842  16.112  0.1403 -0.0695 -0.3589
12662W        W32196   7.089   4.438   2.714 -0.1142  0.2467  0.1101
12663W        W32197  15.411   3.198  11.445  0.3427 -0.2243  0.2726
12664W        W32198   2.583  13.463   3.199 -0.2108 -0.0737 -0.0086
12665W        W32199   6.122   7.289  12.239 -0.0273  0.1752 -0.1222
12666W        W32200  16.385   3.129  14.354  0.0141 -0.2392 -0.1187
12667W        W32201  14.479  14.689  13.447 -0.0769 -0.1247 -0.0438
12668W        W32202  16.449   0.745  14.381 -0.1481 -0.3965 -0.4299
12669W        W32203   1.259  10.056  13.670 -0.2184  0.4275 -0.2904
12670W        W32204  16.553   6.875  16.262  0.1651  0.3793 -0.4087
12671W        W32205  17.409   3.002  15.859 -0.1670 -0.0046 -0.2664
12672W        W32206   0.454   6.579  12.835  0.1196  0.0842 -0.0599
12673W        W32207   3.688  17.561   2.261  0.0908  0.0172  0.1320
12674W        W32208  13.383  10.311   3.950 -0.0376  0.0543  0.0163
12675W        W32209   7.098   7.041  12.249  0.0392  0.0261 -0.1029
12676W        W32210   4.264  11.487  14.943 -0.0297  0.1089  0.1186
12677W        W32211   1.420   7.143   2.678  0.0783  0.0592 -0.0736
12678W        W32212  10.736  13.114  14.706 -0.2116  0.0118 -0.4665
12679W        W32213   5.399   3.760   4.063 -0.0989  0.3672  0.1635
12680W        W32214   7.598   0.497   0.519 -0.0336 -0.0480 -0.1470
12681W        W32215   2.591   9.636   0.445 -0.0249 -0.1380 -0.2135
12682W        W32216  16.898   6.901  15.244 -0.3042 -0.3217  0.0193
12683W        W32217   4.803   7.155   0.046  0.1831 -0.0944 -0.1852
12684W        W32218   4.653   1.994  13.413 -0.1962 -0.0770 -0.2331
12685W        W32219   9.881   2.254  14.542  0.4148 -0.2629 -0.2705
12686W        W32220   5.476   4.572  12.284 -0.1603  0.0766 -0.1074
12687W        W32221   0.315  13.204  16.753  0.0252  0.1393  0.2263
12688W        W32222   5.909  15.951   4.242  0.1841 -0.0134 -0.1350
12689W        W32223   1.254  14.162  12.026  0.1291 -0.0079 -0.0843
12690W        W32224   8.273   5.545   2.824 -0.1207 -0.2608  0.2578
12691W        W32225   4.352  13.788   3.229 -0.1904  0.0147 -0.1133
12692W        W32226   3.502  11.297  13.814  0.2150 -0.2336  0.0362
12693W        W32227   6.509   9.304  14.986 -0.0313 -0.1086 -0.2177
12694W        W32228   4.121  11.411  12.096  0.0608 -0.3311 -0.2598
12695W        W32229   0.393  12.206  12.982 -0.0453  0.0890 -0.2301
12696W        W32230  13.210   6.981  15.360 -0.0567  0.1723 -0.1801
12697W        W32231  15.811   1.415   1.044 -0.1229  0.0653 -0.1377
12698W        W32232   0.102   6.776   1.261  0.5416 -0.3379 -0.0495
12699W        W32233   2.874   6.820  16.813  0.1358 -0.2433  0.0502
12700W        W32234  16.131   6.724  14.052  0.0670  0.2460 -0.0867
12701W        W32235  11.966   1.004   0.249 -0.1939  0.0223 -0.1482
12702W        W32236  10.065   5.203  12.720  0.3741  0.0762  0.4162
12703W        W32237   5.655   2.137   3.523 -0.0499 -0.1547  0.0259
12704W        W32238   1.735   3.856   1.933  0.0217  0.1819 -0.1692
12705W        W32239   3.157  13.510   0.741  0.0058 -0.1442 -0.0715
12706W        W32240   2.654   8.432   2.012  0.1073 -0.2141  0.1345
12707W        W32241  10.142   9.098  12.682 -0.0522  0.1150  0.1552
12708W        W32242  11.627   4.236  14.771  0.2353  0.2096  0.0198
12709W        W32243   2.056   7.243   2.469 -0.0185  0.2621 -0.0798
12710W        W32244   7.543   3.427   2.061  0.1820 -0.1405  0.0453
12711W        W32245   9.136  12.253   4.304  0.2123  0.2809  0.2295
12712W        W32246  12.096   7.586   0.947 -0.0907 -0.2198  0.1775
12713W        W32247   8.331  17.008  13.038  0.3900  0.0068 -0.1856
12714W        W32248   6.103  10.491   3.364  0.0422  0.0780  0.2392
12715W        W32249   7.803   6.165   4.180 -0.2489 -0.0808  0.2129
12716W        W32250   3.808  15.940  13.378 -0.2665  0.2361  0.1043
12717W        W32251  17.522  13.706  14.669 -0.3846  0.0156  0.3004
12718W        W32252   5.272  13.529  12.321 -0.1148 -0.2721  0.2349
12719W        W32253  15.281  15.270  16.588 -0.1157 -0.0534 -0.0561
12720W        W32254  10.973   7.086   0.092 -0.5642  0.4854 -0.1135
12721W        W32255  10.282  10.441  13.803 -0.2403 -0.1112 -0.5268
12722W        W32256  17.328   1.346   0.590  0.2292  0.1339  0.1592
12723W        W32257   3.358  17.225  13.928 -0.0884  0.1218  0.0377
12724W        W32258  16.365   0.543   3.931  0.2726  0.0416  0.1310
12725W        W32259   9.937   5.973  16.496  0.3726  0.1030 -0.2159
12726W        W32260  16.884  11.146   0.205  0.1939 -0.2040  0.1139
12727W        W32261  14.696   2.889   0.805 -0.1829 -0.0654 -0.3930
12728W        W32262   7.460  13.209  13.291 -0.0922 -0.1624  0.2349
12729W        W32263   3.325   9.774  14.532  0.0304  0.1789  0.0298
12730W        W32264   8.620   6.729   3.105  0.0193 -0.2265 -0.0799
12731W        W32265   3.894   7.652   4.894  0.1659  0.1198 -0.0281
12732W        W32266   8.862  16.656   5.873 -0.1207 -0.0992 -0.5663
12733W        W32267   8.758   9.454  16.536 -0.0545 -0.2234 -0.2976
12734W        W32268  12.652   7.803   2.090  0.1258 -0.0637 -0.0690
12735W        W32269  11.841  13.705  11.687  0.0165 -0.3854 -0.2547
12736W        W32270  11.417  15.146  14.519 -0.0762 -0.0672 -0.1863
12737W        W32271  15.181  17.286   1.297 -0.1616 -0.2416 -0.5886
12738W        W32272  11.146  13.448   1.327  0.1802 -0.3347  0.0385
12739W        W32273   3.719   6.487  12.784  0.1661  0.0659  0.0608
12740W        W32274  17.053  13.446   3.241 -0.1308 -0.0220  0.2365
12741W        W32275   2.159   9.880   0.544  0.1100  0.0408 -0.0826
12742W        W32276   9.815  10.947  15.939  0.0204 -0.1477 -0.0827
12743W        W32277  12.973  11.036  15.742 -0.0419  0.0671 -0.0939
12744W        W32278  14.114  11.207   4.946 -0.0249 -0.0693 -0.2483
12745W        W32279   9.746   9.518  16.839 -0.2221 -0.1269  0.0819
12746W        W32280  17.373   9.043  15.191 -0.1815  0.0739  0.2038
12747W        W32281  14.636  17.331  13.759 -0.1511  0.0170  0.1561
12748W        W32282  17.657   3.948  12.250 -0.2137 -0.3369 -0.3257
12749W        W32283  11.687   7.158  16.647 -0.2320 -0.1634 -0.2901
12750W        W32284   7.630  15.871   2.686  0.2728  0.2576 -0.2990
12751W        W32285   4.911   1.936  14.272  0.0070 -0.1573  0.2086
12752W        W32286   6.450   9.174  12.799 -0.0266 -0.3975  0.0198
12753W        W32287   9.538   9.927  13.929 -0.0720 -0.1353 -0.0317
12754W        W32288  11.507   1.719   1.884  0.2074  0.3054  0.3642
12755W        W32289  12.974  15.483   2.687  0.2430 -0.2575 -0.0115
12756W        W32290   2.136  11.790   4.565  0.1001  0.0662  0.3368
12757W        W32291   4.580   5.872  15.925 -0.2355  0.0484 -0.0016
12758W        W32292   1.660   0.133  13.671 -0.2030  0.0872  0.0699
12759W        W32293   7.269   1.374   3.580  0.2862  0.0864 -0.1351
12760W        W32294   6.878   5.976   0.406  0.3081 -0.0841 -0.2638
12761W        W32295   2.140   2.237   0.809  0.0925 -0.1946 -0.4150
12762W        W32296   1.497  10.618  16.446 -0.0795 -0.1008  0.1401
12763W        W32297   5.992   2.611  15.506  0.0350  0.0514 -0.1246
12764W        W32298  12.844   4.451  16.588  0.0675 -0.2796 -0.0584
12765W        W32299   3.971   4.921   5.037 -0.0438 -0.0181 -0.2754
12766W        W32300   0.811   4.270  15.565 -0.1956  0.1049 -0.5558
12767W        W32301   7.852  10.484  15.059 -0.0956  0.0187 -0.5409
12768W        W32302  11.960   4.520   3.798 -0.2233 -0.0205  0.1764
12769W        W32303  14.431  11.051   1.018 -0.1028  0.2604 -0.3557
12770W        W32304   1.938  10.361   1.711 -0.1752  0.1680  0.1285
12771W        W32305  12.933   7.163  16.383  0.0651  0.0226 -0.0833
12772W        W32306  12.091   5.684   4.660  0.1835  0.2702 -0.1324
12773W        W32307   9.210   0.248  12.907 -0.0293 -0.0994 -0.1695
12774W        W32308  12.157   5.085   3.055 -0.1973 -0.0656 -0.1672
12775W        W32309  12.256   1.659   2.420  0.1586 -0.1092  0.4231
12776W        W32310  14.735  11.709   1.706 -0.0826  0.1309 -0.1708
12777W        W32311   9.930   9.092   0.463  0.1024  0.2596  0.0008
12778W        W32312  15.462  10.151   3.550  0.5416  0.4710 -0.1403
12779W        W32313  14.748   8.289  15.760  0.2321  0.1244  0.2466
12780W        W32314   2.965   9.413  12.387  0.2228 -0.1506 -0.0262
12781W        W32315  12.810  13.291  12.661 -0.0932  0.1471  0.0593
12782W        W32316  16.398  10.051   0.208 -0.4481  0.2218 -0.1706
12783W        W32317  10.905  13.142   5.099  0.3130 -0.0877 -0.0557
12784W        W32318   5.977  13.100  16.970  0.0497  0.3358 -0.2471
12785W        W32319  16.023   0.336  14.616  0.1011  0.1956  0.0859
12786W        W32320   5.042  13.940   1.412  0.2484 -0.1283 -0.0693
12787W        W32321   8.495  14.212  13.850 -0.1153 -0.0333 -0.0778
12788W        W32322  16.694  10.309   1.461 -0.0503  0.1143  0.3555
12789W        W32323   3.575   6.561  15.461 -0.1596  0.0900 -0.0429
12790W        W32324  14.868  16.640   2.429 -0.0786  0.3719 -0.2659
12791W        W32325  15.333  13.713   2.546 -0.0225 -0.1122 -0.2132
12792W        W32326   4.364  10.359   0.395 -0.0558  0.0474  0.0927
12793W        W32327   5.910   8.327   2.351  0.0811  0.0398  0.2191
12794W        W32328  12.563  16.382   3.917  0.3055 -0.2783 -0.3724
12795W        W32329   3.675   4.722   3.645  0.0481  0.0962  0.4830
12796W        W32330   1.733  12.183   2.222 -0.1819  0.1858 -0.2722
12797W        W32331  14.442  11.839   4.591 -0.2412 -0.1663  0.0968
12798W        W32332   1.140   9.516   0.433  0.1122 -0.0291  0.2219
12799W        W32333   8.256   5.826  16.307 -0.0868 -0.0725  0.0059
12800W        W32334   4.990   3.941   0.864 -0.2706  0.1695  0.1263
12801W        W32335   5.500   5.694  15.256  0.0282 -0.0474 -0.1243
12802W        W32336   6.179  13.384  13.981  0.0440 -0.1385 -0.0021
12803W        W32337   1.579   0.380  12.169  0.2292 -0.0658  0.2283
12804W        W32338  15.089   3.878   2.511 -0.5011  0.1566 -0.0188
12805W        W32339  16.361   7.021  14.903  0.3386 -0.3120 -0.3398
12806W        W32340   8.811  13.516  13.382 -0.0600  0.0843 -0.0561
12807W        W32341   0.070   8.645   1.716  0.2633 -0.0112 -0.1189
12808W        W32342   4.550   2.224  12.898  0.0204  0.0878  0.0750
12809W        W32343  14.645   3.180  12.962 -0.3815 -0.0801 -0.2005
12810W        W32344   7.779   2.997   3.832 -0.2198 -0.0083 -0.0870
12811W        W32345  14.804  12.123   0.653  0.2274  0.0066  0.2413
12812W        W32346  16.717   9.475   0.961  0.1384  0.0801  0.1058
12813W        W32347  11.551  15.328   4.299 -0.0108 -0.4558 -0.1207
12814W        W32348   9.295   0.521  15.766  0.2600 -0.0979 -0.1727
12815W        W32349  17.435   8.547   6.013 -0.0789  0.1570 -0.2358
12816W        W32350  17.497  12.254  13.667  0.2466 -0.3013 -0.2448
12817W        W32351   1.717   3.220   5.262 -0.0449  0.0963  0.0246
12818W        W32352  11.859  10.095   1.642  0.1492  0.0137  0.0181
12819W        W32353   6.340   7.561  15.924 -0.1974  0.0983 -0.2349
12820W        W32354  12.650  11.433  13.362  0.1625  0.1404 -0.1596
12821W        W32355  14.782   1.419   4.745 -0.0048  0.0360  0.1797
12822W        W32356   6.634   1.598  14.891  0.0964  0.1547  0.0746
12823W        W32357  12.198   6.182  14.230 -0.0388  0.1845  0.0484
12824W        W32358   2.090  16.554  14.495 -0.1343 -0.1585  0.3274
12825W        W32359   4.600   7.434   2.764  0.3367 -0.0207 -0.1880
12826W        W32360  11.589  10.808   0.312  0.1251  0.2550  0.0783
12827W        W32361   4.240   0.886   3.641 -0.1819 -0.0151  0.0705
12828W        W32362   1.494   9.627  14.178  0.0721  0.0385  0.3991
12829W        W32363  14.487  15.216   2.908 -0.3240  0.2170 -0.1473
12830W        W32364   7.939  17.062   2.384  0.3187  0.1897 -0.1833
12831W        W32365   8.919  13.524   3.478  0.1018 -0.2436  0.2824
12832W        W32366  13.249   7.405   0.100 -0.1546  0.0190  0.1984
12833W        W32367   2.506   8.731  15.597 -0.2386  0.2491 -0.1156
12834W        W32368   2.409   1.192  12.570 -0.1868  0.0806  0.0420
12835W        W32369  15.555  17.284   0.983 -0.1948 -0.0759 -0.0082
12836W        W32370  11.392  14.486   2.685 -0.0041 -0.1768  0.0274
12837W        W32371   2.576  14.413   3.092  0.1057 -0.3774  0.0435
12838W        W32372   2.015   0.491  13.017  0.1898 -0.0421 -0.2112
12839W        W32373  10.748   2.035   4.392  0.2047 -0.3614  0.2565
12840W        W32374   8.422  13.173   1.253 -0.1684  0.0859 -0.0631
12841W        W32375   1.872  14.910  15.947  0.2573 -0.3434 -0.0167
12842W        W32376  12.758  12.685  13.993 -0.1884  0.0849  0.2293
12843W        W32377   4.347   4.940   0.787 -0.0197  0.1012  0.0075
12844W        W32378   5.839   0.036  13.805 -0.0099  0.1272  0.0352
12845W        W32379  15.166   3.652  15.772  0.1242 -0.0747  0.2756
12846W        W32380   9.990  14.136  16.935 -0.0390 -0.0758  0.1398
12847W        W32381  11.213   0.108   2.472  0.0693  0.1058 -0.2483
12848W        W32382  16.751   9.003   1.175  0.0086  0.0530 -0.5481
12849W        W32383  12.861  17.543  15.053  0.2093  0.1346  0.0860
12850W        W32384   0.967  10.214   3.388  0.1386  0.0182  0.0163
12851W        W32385  11.271  14.794  12.371 -0.1044  0.3570 -0.0638
12852W        W32386   2.531  13.872  12.301  0.3730  0.2358 -0.2199
12853W        W32387  15.971   5.816  15.748  0.0936  0.2045  0.0167
12854W        W32388   0.667  14.295  13.207  0.0047  0.0003 -0.1474
12855W        W32389  10.819   5.794   1.130  0.1177 -0.0456  0.2500
12856W        W32390   5.938   6.784  15.624  0.3449 -0.2684 -0.0825
12857W        W32391   6.930   2.869   0.563  0.1790  0.1859  0.0446
12858W        W32392  11.195  16.422  17.045 -0.0973 -0.0520  0.1042
12859W        W32393   3.465   7.654   0.825  0.1844  0.0298  0.0184
12860W        W32394   2.353   7.061  16.813  0.0061  0.2478  0.4676
12861W        W32395  14.123   2.291   0.348  0.2924  0.0653  0.0811
12862W        W32396   7.749  10.838   1.978  0.1511 -0.0774 -0.2033
12863W        W32397   6.051   3.931  15.212  0.3645 -0.1273 -0.2018
12864W        W32398  13.414  10.325  14.945  0.1254 -0.1105  0.0037
12865W        W32399   0.594  16.791  12.267 -0.0303 -0.1354 -0.1903
12866W        W32400  15.793   9.903  14.649 -0.0151  0.1634 -0.0033
12867W        W32401  15.442   9.653   1.240  0.3896  0.3311 -0.1647
12868W        W32402  12.372  11.172   3.312 -0.1932 -0.2183 -0.0270
12869W        W32403   6.517   3.287  16.902  0.1393  0.1749  0.0739
12870W        W32404  11.615   0.496  15.495 -0.1864 -0.3067  0.2226
12871W        W32405  14.954  10.309  16.892  0.1300  0.1263  0.0363
12872W        W32406   0.321  12.041   4.438 -0.3457 -0.0615 -0.0306
12873W        W32407  15.627   0.187   2.683 -0.2138  0.2633 -0.2782
12874W        W32408   2.094   5.981   4.191  0.1298 -0.1205  0.0403
12875W        W32409  11.912  16.017   2.727  0.2536 -0.1338  0.2531
12876W        W32410  13.517   5.566   4.132  0.0726  0.0598 -0.0947
12877W        W32411   0.353   8.261  16.992 -0.0626  0.1285  0.0364
12878W        W32412   1.079  12.324  13.030  0.0029  0.2335 -0.0240
12879W        W32413   2.766   1.893   0.682  0.1509 -0.1049 -0.2973
12880W        W32414  15.475  15.492  13.540 -0.1635 -0.3914  0.3029
12881W        W32415   6.036   9.096   1.430 -0.0350 -0.1599 -0.2385
12882W        W32416   7.543  16.367   3.806 -0.0707 -0.3127 -0.1709
12883W        W32417  17.341   0.889  15.884 -0.1637  0.2872  0.1794
12884W        W32418  13.666   3.551   2.933  0.3253  0.1571  0.2432
12885W        W32419   3.040   8.108  15.378 -0.0882 -0.0413 -0.1317
12886W        W32420   3.604  16.138   2.159 -0.1389 -0.2353 -0.0192
12887W        W32421  16.682  14.269  13.457 -0.0730 -0.1399  0.1946
12888W        W32422   1.991   5.945   4.910 -0.0238 -0.0543 -0.1578
12889W        W32423   1.150   8.221   2.489 -0.1263  0.1660 -0.2277
12890W        W32424   9.320   2.735   4.791  0.0621  0.0004  0.1858
12891W        W32425   1.523   9.083  16.652 -0.2721 -0.2333  0.0571
12892W        W32426   0.148  11.461   3.838 -0.1801 -0.3504 -0.2791
12893W        W32427  15.214  11.568   3.617 -0.0266  0.2865  0.1414
12894W        W32428   4.980   0.910  11.231  0.1358 -0.1395 -0.2266
12895W        W32429  14.261  11.339  15.413  0.1062 -0.2291  0.1058
12896W        W32430   7.425   8.152   5.047 -0.3327  0.1546  0.1803
12897W        W32431   8.826   9.963   1.841 -0.1260 -0.0642  0.0096
12898W        W32432   4.170   8.629   4.892  0.0445  0.0876  0.4144
12899W        W32433   7.178   0.741   4.208  0.0194  0.2156 -0.0971
12900W        W32434   9.258   6.537  12.357  0.0236  0.1764 -0.1539
12901W        W32435   5.695   0.135  13.241  0.0306  0.1718 -0.0734
12902W        W32436   7.441   1.438  13.951  0.0833  0.0448  0.0127
12903W        W32437  10.088   9.025  14.585 -0.0288 -0.0262 -0.0607
12904W        W32438   9.298   1.761   3.977  0.1846 -0.1335 -0.0748
12905W        W32439  15.913   1.528   1.914 -0.0520 -0.0565 -0.1379
12906W        W32440   8.922   3.409  12.773  0.0749  0.0979 -0.3395
12907W        W32441   8.817   5.236   4.531 -0.1884 -0.4523 -0.1387
12908W        W32442  13.291  12.910  16.374 -0.0572  0.0119 -0.1839
12909W        W32443   6.794   7.519   3.079 -0.2837  0.2945  0.0924
12910W        W32444   8.891  12.872   1.179 -0.4413  0.4587  0.1652
12911W        W32445  13.277  11.125   3.880 -0.2946  0.2311  0.2542
12912W        W32446  13.715   9.187   2.496  0.1027  0.1324 -0.3680
12913W        W32447  10.744   0.805   3.690  0.0957 -0.0611 -0.0690
12914W        W32448   8.140   4.262  12.653  0.0967 -0.1544 -0.0213
12915W        W32449   2.367  14.791   2.608  0.2059 -0.0106 -0.0038
12916W        W32450   3.222  10.216  16.337 -0.2100  0.1668 -0.1083
12917W        W32451   4.857   2.924  15.826  0.0968 -0.0832  0.2077
12918W        W32452   0.524  11.016  12.608 -0.2899  0.1773 -0.1580
12919W        W32453   8.331   1.645   1.686 -0.0094  0.0794 -0.1879
12920W        W32454  15.637   7.601  16.100  0.1166 -0.0220 -0.0680
12921W        W32455   9.292   7.415  12.261  0.2187 -0.0059 -0.3377
12922W        W32456   6.702  12.345   1.597 -0.2983  0.1293  0.1714
12923W        W32457   2.576  12.773   4.090 -0.0299 -0.0608  0.2373
12924W        W32458   1.652   2.239  14.527 -0.2426 -0.0558 -0.1263
12925W        W32459   8.311   7.121  12.774  0.1800  0.0055  0.1041
12926W        W32460  16.908   1.837  13.797  0.0291  0.1961  0.0602
12927W        W32461   1.346   7.474  16.852  0.1075 -0.1812  0.2114
12928W        W32462   8.264   1.040  14.288 -0.1711 -0.0869 -0.3780
12929W        W32463   8.977   5.790  16.752  0.0327 -0.1349 -0.0252
12930W        W32464  11.949   6.841   0.773 -0.1257 -0.0164  0.0470
12931W        W32465  16.559   0.066  12.809  0.1486  0.0862  0.2794
12932W        W32466   9.474  13.648  12.506  0.0747  0.1648 -0.0110
12933W        W32467   3.233   9.964   5.298 -0.4106 -0.1714  0.3060
12934W        W32468   7.188  10.781   4.253  0.1958  0.0685 -0.1431
12935W        W32469   1.185   0.177  14.005  0.0170 -0.1826  0.0047
12936W        W32470   1.485   8.796  13.204  0.0271 -0.4061  0.0760
12937W        W32471  16.035   7.249  12.220  0.0888 -0.0884 -0.5290
12938W        W32472   2.919   7.680   4.951  0.1806 -0.2355  0.0488
12939W        W32473   6.081   9.382  14.669  0.2611  0.0112 -0.1330
12940W        W32474   9.833   3.322   1.671 -0.1138  0.3196  0.2595
12941W        W32475   9.936  10.849   4.336 -0.1772  0.0916  0.6282
12942W        W32476  17.653   3.110   2.388 -0.0813  0.4478 -0.1272
12943W        W32477  15.026   2.947   1.220  0.0157 -0.1127  0.1266
12944W        W32478  16.840  16.797   3.812 -0.2520  0.0941 -0.1262
12945W        W32479  11.402   9.974  15.915  0.3106  0.1560  0.0987
12946W        W32480   4.115   5.483   3.077 -0.2283 -0.0391  0.2599
12947W        W32481   1.901  14.940   0.826  0.3742  0.0457 -0.0420
12948W        W32482  12.427   0.578   4.852  0.0580  0.1047  0.0946
12949W        W32483   4.320   1.613  13.214 -0.2984 -0.1119 -0.0212
12950W        W32484  13.721   0.060  16.267 -0.3202  0.0558  0.0171
12951W        W32485   3.270  11.820  15.045  0.3238  0.0550  0.0547
12952W        W32486   7.274  15.167   1.212 -0.2313  0.0014  0.0160
12953W        W32487   8.993  11.342  14.686 -0.3142 -0.3021  0.0444
12954W        W32488   0.819   6.178  11.930  0.1385  0.1305  0.0999
12955W        W32489  13.382  14.560   3.678 -0.0031 -0.1435 -0.1370
12956W        W32490  15.474   1.788  13.402  0.3536  0.0488  0.1244
12957W        W32491   2.548   8.289  15.078  0.0210 -0.0118  0.1111
12958W        W32492   5.418   1.333   3.585  0.1905  0.0672 -0.0700
12959W        W32493   1.055   1.879   0.002 -0.1563  0.3288  0.0774
12960W        W32494  11.603   9.198  12.936 -0.2090  0.0947  0.1135
12961W        W32495  17.658  16.037   0.928 -0.3294  0.0980 -0.4287
12962W        W32496  12.161   3.916   0.647 -0.0131  0.1626 -0.0608
12963W        W32497   9.338   5.632  12.579  0.0692 -0.0613  0.0784
12964W        W32498  17.144   8.547   4.649 -0.1105 -0.0697  0.0053
12965W        W32499  16.997  17.368   5.201 -0.0982  0.2417 -0.0616
12966W        W32500  14.160  13.560   2.812 -0.2994 -0.0423 -0.0027
12967W        W32501  11.296   1.747  16.316  0.2734  0.0478  0.0684
12968W        W32502  12.875  12.756  12.807  0.2033  0.2328  0.1276
12969W        W32503   9.561  12.886  11.870 -0.3326 -0.2710 -0.2727
12970W        W32504  16.757  14.797  14.531  0.1212  0.0159  0.1841
12971W        W32505   1.764   3.489   4.805 -0.0745 -0.1706  0.2609
12972W        W32506   5.039   4.265   3.718 -0.0302  0.2381  0.2425
12973W        W32507   6.320  15.991   0.594  0.0815 -0.3424  0.0668
12974W        W32508  12.044  13.501   5.190 -0.1002  0.0242 -0.3717
12975W        W32509   2.383   3.522  15.114  0.1296  0.1350  0.0493
12976W        W32510  14.111   9.955  12.451 -0.1995 -0.2782  0.1005
12977W        W32511   3.014   2.624   2.356  0.0172  0.0657  0.1705
12978W        W32512   9.437   8.820   1.642 -0.1955  0.2335  0.1144
12979W        W32513  10.236  16.471   4.681 -0.0945 -0.0504  0.0643
12980W        W32514  16.579   7.761  14.171 -0.2261  0.1760 -0.0763
12981W        W32515  13.908  13.998  12.088 -0.0603 -0.1500  0.1079
12982W        W32516  15.523   5.704   1.503 -0.2489  0.1687  0.2207
12983W        W32517   5.648  16.884  12.074 -0.0034 -0.1718 -0.3706
12984W        W32518   5.784   8.065   1.562 -0.0350 -0.0051 -0.1734
12985W        W32519   8.380   0.529  16.563 -0.0032  0.0672 -0.2376
12986W        W32520  10.148   4.040  12.224 -0.2418 -0.2176  0.1945
12987W        W32521  12.530   9.862  15.660 -0.1680  0.2056 -0.2343
12988W        W32522   5.941  16.360  14.149  0.2271 -0.1038  0.2748
12989W        W32523  15.488  13.137   1.843 -0.0777  0.2150 -0.1014
12990W        W32524   2.022   0.956  12.808 -0.2033 -0.0112  0.2133
12991W        W32525  10.667   5.029  16.556  0.0115  0.0570 -0.1589
12992W        W32526  15.181  17.519  15.440  0.0157  0.2093 -0.1803
12993W        W32527   6.786  17.398  14.724 -0.1738  0.0132 -0.1593
12994W        W32528   8.053  16.397  12.034 -0.1095  0.0223  0.2262
12995W        W32529   7.416  16.360  15.467 -0.1806 -0.0300  0.4270
12996W        W32530  10.850  14.849  15.199  0.0533  0.0023 -0.0024
12997W        W32531   6.241  15.251   1.702  0.1696  0.0021 -0.1016
12998W        W32532  17.312  11.390   4.018 -0.1808  0.0704  0.0470
12999W        W32533   7.770   9.645  14.549 -0.0189 -0.0444 -0.0867
13000W        W32534  14.446   2.425  16.410  0.2356 -0.0072 -0.0140
13001W        W32535   7.147   6.307  13.443 -0.1125 -0.1873 -0.0809
13002W        W32536  15.739   3.574   1.683  0.2657 -0.0578 -0.0861
13003W        W32537   2.983  10.358   0.679  0.1288  0.1492 -0.1529
13004W        W32538   9.397  12.452  13.011  0.4745  0.0503  0.2278
13005W        W32539  14.453  13.945   2.681 -0.2234 -0.3511  0.2536
13006W        W32540  12.031  15.598   4.150 -0.0383  0.3213  0.2590
13007W        W32541  11.164   7.771  14.066  0.2620  0.0025 -0.2707
13008W        W32542   3.885  10.216   2.004  0.0466  0.1102 -0.0360
13009W        W32543   9.550   2.862  12.524 -0.0098  0.1939  0.0591
13010W        W32544   9.471  14.009   2.580 -0.2480  0.0713 -0.0192
13011W        W32545   0.689   6.679  13.982  0.2488 -0.0790  0.0837
13012W        W32546  12.631  17.033  16.889  0.0768 -0.1194  0.1865
13013W        W32547  12.388  11.739   1.930 -0.2795  0.1134  0.0385
13014W        W32548   0.902  12.284   0.919 -0.1895  0.0023 -0.0236
13015W        W32549  13.977  17.039   4.584 -0.2225 -0.1140 -0.0072
13016W        W32550  17.231  16.452  12.801  0.3586 -0.2591  0.1117
13017W        W32551  15.738   9.120  15.359  0.2125 -0.2385 -0.4679
13018W        W32552  10.450   8.319  12.295  0.0416  0.4166  0.1174
13019W        W32553  13.998  16.297  16.674 -0.2429 -0.2479  0.0477
13020W        W32554   9.041  14.477  13.786  0.1508  0.1289  0.1566
13021W        W32555   4.356   5.935   4.734 -0.0758 -0.1286 -0.1388
13022W        W32556  14.854   2.876  15.872 -0.0568 -0.0667 -0.1392
13023W        W32557   3.521  10.635  15.613 -0.0325  0.1557 -0.1208
13024W        W32558  16.137   3.797  14.675 -0.3002  0.0817  0.1190
13025W        W32559  16.907  13.627   3.861 -0.1615  0.0285 -0.0440
13026W        W32560  16.171  15.074  14.129  0.0685  0.3088  0.0978
13027W        W32561  14.788   8.529  14.384 -0.0402  0.1386 -0.0972
13028W        W32562   5.961  10.312  13.076  0.2214 -0.0601 -0.1005
13029W        W32563   7.104   4.194   3.162 -0.0103 -0.0394  0.2337
13030W        W32564  16.007   0.657  14.243  0.1613 -0.3818  0.2487
13031W        W32565   8.658   2.455  15.565  0.2247  0.1427 -0.2987
13032W        W32566   7.695  11.389   2.138  0.0834 -0.2576 -0.1041
13033W        W32567   0.733   5.272   4.269  0.1255 -0.1466  0.6893
13034W        W32568  11.155   0.222   4.364  0.0620  0.0062  0.0902
13035W        W32569  13.135  15.898  16.367  0.1293  0.1038  0.0490
13036W        W32570   8.356  17.144   3.081  0.0883  0.0203 -0.0654
13037W        W32571  17.177  15.930  16.087 -0.2351  0.0569  0.1565
13038W        W32572   6.244  13.883  12.441  0.0344 -0.1216 -0.1473
13039W        W32573   4.095   5.801  14.052 -0.0296 -0.0281 -0.1349
13040W        W32574  10.884  10.435  16.656  0.0639  0.0767  0.0971
13041W        W32575  10.086  16.375   5.150 -0.0282  0.0513 -0.1635
13042W        W32576   0.244   9.060   2.036  0.2377  0.2197  0.4303
13043W        W32577  11.770   6.709   3.775  0.0089  0.0283 -0.0510
13044W        W32578   4.933  14.668  13.279  0.1196 -0.5116 -0.3535
13045W        W32579   9.489  11.389   4.358 -0.3411  0.0279 -0.1359
13046W        W32580   0.069  11.596   1.533 -0.0249 -0.1353 -0.1435
13047W        W32581   1.952   8.638   2.115  0.1609  0.0180  0.0463
13048W        W32582   4.833   5.010  15.744 -0.4859  0.0409  0.0039
13049W        W32583  11.240   1.565   0.014  0.0920 -0.0169 -0.1321
13050W        W32584   7.115   5.549   0.034 -0.0616  0.1627  0.3542
13051W        W32585   8.791  16.488   2.158  0.0111  0.1146 -0.1316
13052W        W32586  12.335   7.034   4.924  0.0664 -0.0830  0.2865
13053W        W32587   8.451   5.863   2.484  0.1440  0.1561 -0.0618
13054W        W32588   3.604   6.033  15.504  0.0597  0.0304 -0.0259
13055W        W32589   1.325  11.955  12.035  0.2830 -0.1047  0.2278
13056W        W32590   7.807  12.520   2.983 -0.1579  0.0844  0.0057
13057W        W32591   2.630  16.509  12.691  0.3710  0.0080  0.5990
13058W        W32592   4.709   3.658  12.624  0.2745 -0.5345 -0.4635
13059W        W32593   5.677   3.218  12.654  0.0212  0.1791 -0.0813
13060W        W32594   3.472  16.348  12.906 -0.3681  0.0479 -0.1491
13061W        W32595  16.558  16.376  15.249 -0.1979 -0.0959 -0.0812
13062W        W32596   7.847   9.586   4.778  0.0173 -0.0381  0.0356
13063W        W32597   7.282  15.099   3.092 -0.1737  0.0383  0.3916
13064W        W32598   5.290  17.655   0.623 -0.1345  0.1855  0.0935
13065W        W32599  16.719  13.403   1.870 -0.2040 -0.1795  0.1202
13066W        W32600  11.661   6.734  16.393  0.0904 -0.2961 -0.1178
13067W        W32601   8.869  16.722   0.805 -0.1118  0.2249  0.1645
13068W        W32602  14.749  12.946  16.925 -0.3591  0.0926 -0.0815
13069W        W32603   9.810  15.859   5.260  0.0852  0.0638  0.0847
13070W        W32604  17.086   8.549  15.803  0.0656 -0.3567  0.2643
13071W        W32605   4.210  17.389   0.962 -0.1298  0.0548 -0.4587
13072W        W32606  17.395   4.067   0.390 -0.1208  0.1136  0.0596
13073W        W32607   1.490   4.421  14.871  0.0236  0.1694  0.1129
13074W        W32608  10.014  14.286   0.854 -0.1123 -0.0363 -0.0381
13075W        W32609   1.550   1.239  12.657  0.1895  0.0246  0.0090
13076W        W32610   7.129  13.622   2.593  0.1201  0.1648 -0.2088
13077W        W32611  15.641   2.072  14.918 -0.1061 -0.0645  0.0132
13078W        W32612  16.003   6.021  14.288  0.1546 -0.1959 -0.0606
13079W        W32613   7.450  15.652  16.537 -0.0556 -0.1681 -0.0426
13080W        W32614   1.306  10.758   0.843 -0.3804  0.2294  0.0425
13081W        W32615   6.938   1.051  13.929 -0.1101 -0.3846  0.0442
13082W        W32616  16.943   2.062  15.496 -0.0110  0.0779  0.0795
13083W        W32617   0.151  13.344   2.451 -0.0957 -0.0243  0.3576
13084W        W32618   2.135  10.186  15.911 -0.3367  0.0464 -0.0668
13085W        W32619  14.408  17.644   3.531  0.2218 -0.1284  0.2138
13086W        W32620   6.932  11.482   2.810 -0.1356  0.2335 -0.0798
13087W        W32621  12.955  10.875   2.254 -0.0627 -0.0013 -0.0927
13088W        W32622   8.968   7.522   0.082  0.1697 -0.3848 -0.2145
13089W        W32623  13.281   9.796   0.024 -0.0047  0.0907  0.1260
13090W        W32624  10.622   8.884  12.751  0.0083 -0.1742  0.0932
13091W        W32625   0.002  16.676  12.703  0.0335  0.1433  0.1269
13092W        W32626  14.344  13.880  15.278  0.2162 -0.0186  0.2891
13093W        W32627  11.529  17.487  11.916  0.0834 -0.1138 -0.1720
13094W        W32628   7.720  15.646   0.507  0.0215 -0.0039 -0.0536
13095W        W32629   8.931   2.136   3.783  0.0574  0.1045  0.2250
13096W        W32630   0.764   7.975   2.769 -0.1332  0.0520 -0.0595
13097W        W32631  11.837   4.567  14.373  0.0624 -0.0263 -0.0620
13098W        W32632   5.192   7.805  12.390 -0.2150 -0.0334  0.3496
13099W        W32633   0.763   4.088   5.064 -0.0583  0.0369 -0.0008
13100W        W32634  13.722  11.557   4.807  0.0667  0.0171  0.1976
13101W        W32635   9.146  16.326   0.550 -0.0294  0.0657  0.3390
13102W        W32636   1.485   7.875   1.003  0.2608  0.1254 -0.1387
13103W        W32637  15.232  15.306  13.989  0.0651  0.2669  0.3827
13104W        W32638   8.234   9.141   2.874 -0.1358  0.0826  0.2452
13105W        W32639   5.484   4.775  14.512  0.0732  0.0351  0.0777
13106W        W32640   6.137  16.955  15.624 -0.1240 -0.0709  0.0658
13107W        W32641  10.951   7.807   1.624 -0.2349  0.1997 -0.1061
13108W        W32642   2.586  13.199  15.228  0.1085  0.1321  0.0798
13109W        W32643   2.667   5.356   1.772 -0.0569 -0.1682  0.2650
13110W        W32644   3.930   2.733   1.693  0.0638  0.0353  0.1844
13111W        W32645   4.594  17.658  16.231  0.3315  0.2211  0.4023
13112W        W32646   1.197   2.712  12.567  0.0708 -0.1366  0.0370
13113W        W32647   2.479   5.399   4.368 -0.0051 -0.0476  0.2275
13114W        W32648  17.101  15.164  15.833  0.1390  0.1302 -0.2395
13115W        W32649   7.625  13.215  16.504  0.0305 -0.0115 -0.0735
13116W        W32650  10.728   6.585   3.527 -0.2575  0.2002 -0.1244
13117W        W32651   6.185   6.124   0.929 -0.2024  0.1513  0.2345
13118W        W32652  13.042   3.104  12.717  0.1808  0.0106 -0.1422
13119W        W32653  13.800   7.429  16.978 -0.0705  0.0528 -0.0009
13120W        W32654  12.814  17.568  11.476  0.1318  0.2766  0.1925
13121W        W32655   1.322  11.420  12.238 -0.0984  0.3058 -0.0764
13122W        W32656   7.340   2.123  14.529  0.2001  0.0986  0.1607
13123W        W32657   0.747  13.373  12.704 -0.2487  0.1596  0.2037
13124W        W32658   7.984   4.820  16.285 -0.1274 -0.0656  0.2263
13125W        W32659  10.032   8.467   0.472  0.3080 -0.0383  0.0232
13126W        W32660   8.815  14.377   4.062 -0.1256 -0.0009  0.1953
13127W        W32661  14.038   0.215   4.927 -0.1401  0.0202 -0.1027
13128W        W32662   6.146  12.517  14.280  0.2373  0.0100  0.4399
13129W        W32663  13.386   8.893  16.026  0.3870 -0.2343 -0.0567
13130W        W32664   5.478  12.017  13.085 -0.2171 -0.1424 -0.2869
13131W        W32665   1.749  10.923  13.716  0.2404  0.0424  0.1913
13132W        W32666  13.692  14.443  15.725 -0.1597 -0.4101 -0.2912
13133W        W32667  10.944  15.134   3.059 -0.4664 -0.0887 -0.0987
13134W        W32668   4.591   1.837  11.633  0.1934 -0.0701 -0.0687
13135W        W32669   7.004  15.465  14.489 -0.1303  0.0738 -0.1465
13136W        W32670   2.664  16.535  16.006 -0.1446  0.0155 -0.0650
13137W        W32671   6.715  13.785  15.148 -0.3010  0.0734 -0.0330
13138W        W32672   7.863   9.662  17.015 -0.0711  0.0389 -0.0214
13139W        W32673   0.407  16.066  12.947 -0.2542 -0.1603  0.3840
13140W        W32674  10.394  12.084  13.566  0.1190  0.2116 -0.3218
13141W        W32675   6.750  16.003  16.407  0.2705  0.4863  0.0747
13142W        W32676   8.971   3.734  13.972  0.1336  0.1009  0.1356
13143W        W32677   4.801   2.205   1.684  0.0487  0.2380 -0.3596
13144W        W32678  14.680  14.462   1.698 -0.1979  0.0159 -0.2741
13145W        W32679   2.838  14.451  14.917  0.0710  0.0244  0.0268
13146W        W32680   1.085   7.985  12.751  0.1741  0.0624 -0.1268
13147W        W32681  15.705  14.015   2.477 -0.1397 -0.0599 -0.1105
13148W        W32682   4.304  13.616  14.776  0.4317  0.1395  0.2554
13149W        W32683  14.413  13.448  15.967 -0.0966 -0.0439 -0.1643
13150W        W32684  15.119   5.721  13.982  0.1142  0.2539  0.1280
13151W        W32685  11.345  13.327  14.269 -0.2819  0.1087  0.0307
13152W        W32686   0.562  12.803   1.964 -0.1391  0.2697 -0.0823
13153W        W32687  15.817   4.186  15.154  0.1653 -0.1732 -0.1662
13154W        W32688  13.469   0.540  15.538  0.0609 -0.1111  0.0355
13155W        W32689  14.633   1.479  15.221 -0.2062 -0.1984  0.2602
13156W        W32690  12.281  14.848  14.759  0.1041  0.1363 -0.1596
13157W        W32691   0.683  15.734  16.243  0.0952  0.0287 -0.1227
13158W        W32692  12.618   4.921   2.258  0.0615  0.3188  0.0932
13159W        W32693   0.547   0.268   0.126 -0.1438  0.0083 -0.4406
13160W        W32694   1.833   9.403  15.259  0.1247  0.2151  0.1689
13161W        W32695   4.784  16.300  15.300  0.0169 -0.1058 -0.1633
13162W        W32696  15.868  16.417  13.926  0.4337  0.0432 -0.1113
13163W        W32697   1.179   6.672   2.522 -0.2303  0.1076  0.2415
13164W        W32698   0.123  11.897   2.616  0.0710 -0.1308 -0.3154
13165W        W32699  13.595   3.072   2.662 -0.2330 -0.4372  0.3721
13166W        W32700  15.472  13.437   0.381  0.0407 -0.2136 -0.0289
13167W        W32701   8.078  17.056   1.879  0.1344  0.0472  0.2030
13168W        W32702   3.752   0.254  14.086  0.0649 -0.0626  0.1290
13169W        W32703  11.678   7.645   0.548  0.0604 -0.1529  0.3002
13170W        W32704  11.581  10.167  14.758  0.0478 -0.0633 -0.2485
13171W        W32705   3.699   5.475  14.200  0.0468  0.2182 -0.1607
13172W        W32706   0.351  13.223   0.195  0.0843  0.2890  0.2047
13173W        W32707  10.528  12.332   2.356 -0.2214  0.0332 -0.0074
13174W        W32708  11.414   3.961  12.618 -0.1245  0.0461  0.1332
13175W        W32709  16.791   2.478  12.844  0.1860 -0.0996 -0.1071
13176W        W32710  11.949  13.040  15.971  0.1644 -0.0831  0.0034
13177W        W32711   9.503   9.424   2.900 -0.1999  0.0512  0.1563
13178W        W32712   0.715   5.321  15.001 -0.4276  0.2107 -0.0911
13179W        W32713   7.974  15.976   3.046  0.0034  0.1622  0.2339
13180W        W32714  15.536  12.162   1.462 -0.0909  0.3870  0.2587
13181W        W32715   8.213  14.728   3.459 -0.0113 -0.2622 -0.0993
13182W        W32716  16.522   4.680  15.735 -0.0645 -0.1598 -0.1666
13183W        W32717  16.151   7.673   1.435  0.2913  0.2608  0.0828
13184W        W32718   8.585  14.192   0.961  0.1778  0.1289 -0.0406
13185W        W32719   6.263   7.145   1.832  0.1870  0.1369  0.0247
13186W        W32720  15.616   7.525   1.539  0.1077 -0.0052  0.3795
13187W        W32721   8.573   9.441  13.421  0.0140 -0.1389  0.2149
13188W        W32722  14.105   4.865  13.953  0.1255 -0.3401 -0.1616
13189W        W32723  16.916   6.000   0.100 -0.1664  0.3042 -0.0087
13190W        W32724  13.551   9.402   3.547  0.2683  0.0444  0.2977
13191W        W32725   6.429   6.106   2.869 -0.1090 -0.1638 -0.1536
13192W        W32726  15.368   7.176   2.695 -0.1152  0.2201 -0.1397
13193W        W32727  12.227   5.571   3.224 -0.2551  0.5632 -0.0953
13194W        W32728   4.286   8.148   1.173  0.0790  0.0215 -0.1835
13195W        W32729   3.359   1.975   0.200 -0.3582  0.1919  0.1211
13196W        W32730   1.350   7.663  13.046 -0.1312 -0.1152 -0.2928
13197W        W32731   3.285   2.482   0.089 -0.3252  0.1798 -0.4156
13198W        W32732  17.003   7.072   2.336 -0.0997 -0.1725 -0.1608
13199W        W32733   1.693  13.329   1.410 -0.3367  0.1839 -0.0254
13200W        W32734  13.313  11.550   5.785 -0.1707 -0.3103  0.0730
13201W        W32735  11.641  12.924   3.852  0.0150 -0.2213  0.0000
13202W        W32736   0.587   9.185  13.081  0.1907  0.0737  0.1304
13203W        W32737  12.745  16.079   0.919 -0.1138  0.2245 -0.0494
13204W        W32738  16.320  11.624  12.636  0.1737 -0.0976 -0.0587
13205W        W32739  11.669   0.316  13.535 -0.3422 -0.2374 -0.2935
13206W        W32740  10.622   9.480  13.931  0.0336 -0.0205 -0.0314
13207W        W32741   7.338   0.614   1.751 -0.0249  0.2526 -0.0941
13208W        W32742   0.137   4.742   2.447  0.0309  0.0908  0.1408
13209W        W32743  12.359  14.452  13.888  0.0651  0.0592 -0.0840
13210W        W32744   4.170   6.853   4.154  0.0613 -0.0810 -0.2478
13211W        W32745  14.291   8.606  15.893  0.0351  0.2504  0.1278
13212W        W32746  16.302   5.235  12.491  0.0573 -0.0832 -0.3053
13213W        W32747   8.609  12.255  13.380  0.0750 -0.4519 -0.0802
13214W        W32748  16.960  15.883   0.061 -0.1218 -0.1583 -0.0924
13215W        W32749   0.325   5.887  11.183  0.1217  0.0360 -0.2758
13216W        W32750  11.237  14.408   3.881  0.0363 -0.0266  0.0824
13217W        W32751   1.481  16.250   4.560  0.0620  0.0903  0.0366
13218W        W32752  11.108  16.338   3.742  0.2033  0.1056 -0.0386
13219W        W32753  15.124   4.383   3.484  0.2352  0.1231  0.0139
13220W        W32754  11.922  11.655   4.992  0.0685 -0.0376 -0.0413
13221W        W32755   7.603   7.546   3.676 -0.4614  0.1321 -0.1512
13222W        W32756   6.088   0.923   0.679  0.1765  0.0377  0.1987
13223W        W32757  10.111  12.922   2.568 -0.0688  0.0290 -0.2551
13224W        W32758   6.226   0.729  13.825  0.3953 -0.1083  0.0551
13225W        W32759   8.994  13.953   2.740  0.0334 -0.1057 -0.1000
13226W        W32760  12.145   4.765   2.117  0.1092 -0.2909  0.1475
13227W        W32761   3.300   6.136  13.668  0.0302  0.0580  0.0939
13228W        W32762   1.004   5.792   2.814  0.1285 -0.0007  0.1985
13229W        W32763  15.442   2.285   0.496 -0.1561  0.1494 -0.2044
13230W        W32764  12.186   1.427   5.573  0.1546 -0.0236 -0.1156
13231W        W32765  13.504   5.218  16.340  0.4165 -0.0696  0.0012
13232W        W32766   0.225  16.871   3.198 -0.0749  0.2217  0.2034
13233W        W32767  16.080  11.718  12.202  0.1044 -0.1086 -0.1102
13234W        W32768   5.861   2.561  13.946 -0.2248 -0.0597  0.0387
13235W        W32769  14.695  14.986  12.560  0.0028 -0.1237 -0.0493
13236W        W32770   2.823   1.855   2.408  0.0632 -0.0305 -0.2789
13237W        W32771  17.093   8.414   5.698 -0.2133  0.0780 -0.0115
13238W        W32772   1.750  15.541   4.194  0.1256 -0.3722  0.3152
13239W        W32773   5.905   7.210   2.934  0.1439  0.1062 -0.2273
13240W        W32774   9.398  12.609  16.917 -0.1636 -0.2293 -0.0044
13241W        W32775  17.372  13.881   3.525  0.3176 -0.1421  0.5627
13242W        W32776  15.023  12.029  14.435 -0.1740  0.2369  0.0002
13243W        W32777   5.866   7.091  16.635  0.0620 -0.2048 -0.1093
13244W        W32778  12.463  10.989  13.492 -0.0167  0.1231 -0.1232
13245W        W32779  16.959  13.535   4.420 -0.0862 -0.1461  0.2041
13246W        W32780  14.734   4.768   2.378 -0.1884 -0.0616  0.0157
13247W        W32781  13.724   1.750  13.104 -0.2646 -0.3194 -0.1061
13248W        W32782   6.242   3.423  13.112  0.0291 -0.0595 -0.0993
13249W        W32783  11.506  13.227  15.181 -0.0532 -0.2395 -0.0664
13250W        W32784   1.982   1.717  13.241 -0.3280 -0.1164  0.4817
13251W        W32785   3.491  10.453  12.840  0.1693 -0.1078  0.3232
13252W        W32786   0.343  10.360   2.405 -0.0233 -0.2133  0.0171
13253W        W32787  11.249   7.770   4.032  0.0455 -0.1600 -0.0245
13254W        W32788   8.499   4.729  13.571 -0.1535 -0.1160  0.2297
13255W        W32789  16.728   2.090   1.636 -0.0259  0.0477  0.0502
13256W        W32790   9.821   4.385   3.126 -0.0010 -0.0477  0.0609
13257W        W32791  12.657  14.772  14.267  0.1263 -0.1792  0.2826
13258W        W32792   3.032  13.733   4.590  0.1192  0.1093 -0.0350
13259W        W32793   1.740   7.540   0.750  0.1641 -0.1638  0.1717
13260W        W32794   7.919   8.644  15.589 -0.2697  0.0921  0.0579
13261W        W32795   1.958   9.768  14.300  0.0516 -0.0804 -0.0107
13262W        W32796   8.868   8.282  13.212 -0.0425 -0.1112  0.1059
13263W        W32797   6.130   6.220  14.910 -0.1574  0.4739  0.1035
13264W        W32798  12.530   8.226   0.485 -0.2131  0.0537 -0.1015
13265W        W32799   3.896   0.016  16.932  0.2436  0.0221 -0.1314
13266W        W32800  16.552   0.320  16.775  0.0631  0.2505 -0.1273
13267W        W32801   1.255   9.093   1.273  0.0616  0.0107 -0.1866
13268W        W32802   9.608  11.989  12.033 -0.0054  0.1725  0.2738
13269W        W32803   3.951   6.774  16.564 -0.2845 -0.0837  0.0965
13270W        W32804   2.201  13.290  13.883 -0.1172 -0.0327  0.0663
13271W        W32805   6.690   5.085   3.664  0.0429 -0.2142  0.1427
13272W        W32806  15.560   0.399  13.229 -0.0452 -0.0873  0.1450
13273W        W32807   4.361   4.258  17.031 -0.0798 -0.2466 -0.1964
13274W        W32808   5.138   0.876  12.643  0.1345  0.2164  0.0151
13275W        W32809   4.013   8.157  16.434  0.0212  0.0144  0.6791
13276W        W32810  14.670  13.369   3.082  0.0732 -0.2680 -0.1873
13277W        W32811   6.428  10.572   1.834 -0.0031 -0.0608 -0.0395
13278W        W32812  10.534   2.148  16.101 -0.1303  0.3215  0.0841
13279W        W32813  14.864   2.758  13.979 -0.2547 -0.1926  0.0230
13280W        W32814   5.057   6.979   0.434 -0.1573  0.0812 -0.1694
13281W        W32815  17.443   3.855  15.613 -0.2372  0.0363  0.0412
13282W        W32816   5.543   8.231  15.009  0.1372 -0.2035  0.1338
13283W        W32817   0.080   0.601  14.944 -0.0698  0.0550  0.1515
13284W        W32818   3.318   8.982  13.419 -0.2171 -0.3605  0.2127
13285W        W32819   2.107  13.319   3.735 -0.2528 -0.1422 -0.0700
13286W        W32820   2.389  12.807   0.612 -0.1319  0.1012  0.2359
13287W        W32821   6.430  11.971   1.233 -0.2036 -0.0005 -0.0484
13288W        W32822   3.334   6.339  15.961  0.3624 -0.0178 -0.1780
13289W        W32823   1.383  13.068  15.247 -0.2152 -0.3170 -0.1984
13290W        W32824   8.566  16.285   5.259 -0.0409  0.2607  0.0777
13291W        W32825  15.077  10.674   3.577 -0.0192  0.0457 -0.2207
13292W        W32826   8.021   9.282  14.818 -0.0259  0.1139  0.1685
13293W        W32827   9.783   3.315  12.751 -0.4470  0.0994  0.1547
13294W        W32828   6.224   8.335   1.929 -0.1062  0.0090 -0.1847
13295W        W32829   1.272   0.005  14.594  0.0900  0.2523  0.1725
13296W        W32830  14.469   3.209  13.418 -0.3871 -0.1841 -0.1273
13297W        W32831  11.699   9.986  15.218  0.2135 -0.1922  0.2102
13298W        W32832  14.782  14.966   2.597 -0.2192  0.0641 -0.2334
13299W        W32833  12.939   0.230   0.113 -0.1998  0.1021  0.1144
13300W        W32834  11.576   1.700   2.878 -0.0607  0.2273  0.1813
13301W        W32835  13.577  14.940  13.191 -0.3987  0.1146 -0.0608
13302W        W32836   8.563   5.555  13.890 -0.1530 -0.0299  0.0409
13303W        W32837  12.281  14.628   1.172 -0.0049 -0.3921  0.1673
13304W        W32838  14.420   0.635  16.808 -0.3280  0.0214  0.0686
13305W        W32839   1.706  14.858  12.323  0.2139 -0.0148  0.2167
13306W        W32840  13.833   1.809   0.480  0.1815 -0.2613  0.3836
13307W        W32841   1.044  15.526   2.068  0.1414  0.0306  0.1004
13308W        W32842   6.331   7.074  16.477  0.2025  0.4088  0.0971
13309W        W32843   8.394   6.886   0.319  0.0377 -0.1493 -0.0706
13310W        W32844  14.009  16.325  16.163 -0.3071 -0.3444  0.2472
13311W        W32845  13.742  10.592   2.038  0.2990 -0.1631 -0.2571
13312W        W32846   7.853   1.775   1.655 -0.0792 -0.1893 -0.1942
13313W        W32847   2.660   3.084  15.177  0.0306  0.1188 -0.0342
13314W        W32848  15.006   2.709   4.452 -0.1841  0.1353 -0.0967
13315W        W32849  16.206  10.900  17.058 -0.1316 -0.3030  0.2868
13316W        W32850  16.869   2.455  13.691  0.0678  0.0026  0.1804
13317W        W32851  10.789   3.610  12.718  0.3562  0.2238 -0.2261
13318W        W32852  14.453   5.516  15.243  0.1681 -0.3253  0.0280
13319W        W32853   9.765  13.448   1.082  0.2944  0.1814 -0.1617
13320W        W32854   1.069  11.062  11.953  0.2658  0.1154  0.0192
13321W        W32855   3.125   3.502  17.057 -0.0234 -0.2533 -0.4730
13322W        W32856   2.794  16.881   1.783  0.0669 -0.2720  0.0631
13323W        W32857   0.189   2.005  15.198 -0.1073  0.0877  0.0525
13324W        W32858  17.509   4.465  15.465  0.2457  0.2098 -0.2265
13325W        W32859   6.201   3.463   4.174 -0.0924 -0.1317  0.1453
13326W        W32860   1.932  10.829   4.968  0.2093 -0.0881  0.1272
13327W        W32861   1.782   1.304   3.217  0.1107  0.0689  0.0448
13328W        W32862   3.144   6.105  15.032 -0.1021 -0.3186  0.0829
13329W        W32863  15.220  16.922   2.720 -0.0282 -0.0888  0.0392
13330W        W32864   9.023  10.904   4.911  0.0079 -0.1518  0.2380
13331W        W32865   2.219   3.225  15.995  0.0014 -0.1819 -0.2190
13332W        W32866  10.721   1.786   3.829  0.0551 -0.1868  0.1702
13333W        W32867   5.674   3.563  15.885 -0.2863 -0.4093 -0.2386
13334W        W32868  12.324  11.685   3.286  0.0070 -0.3490  0.2321
13335W        W32869  14.915  13.809   3.400 -0.1643 -0.2837 -0.0273
13336W        W32870  10.118  10.301   3.373 -0.1919  0.2716  0.1375
13337W        W32871  11.122   5.796   2.861  0.1462  0.2987 -0.4834
13338W        W32872  15.352   3.812   1.502 -0.0563  0.0154 -0.1757
13339W        W32873   8.780   8.714   3.561 -0.1513  0.3958 -0.2084
13340W        W32874  11.443   0.618  14.531  0.0958  0.4099  0.0442
13341W        W32875   3.252   7.430   3.821  0.1842  0.0618  0.0082
13342W        W32876   4.724   4.047   6.124  0.0204  0.0222  0.1735
13343W        W32877   4.715   5.056   3.778 -0.0068 -0.2065  0.0854
13344W        W32878   4.544   9.315   1.893  0.2138 -0.2547 -0.0817
13345W        W32879  16.907  15.413  11.995 -0.5938  0.1810  0.0306
13346W        W32880   4.474  14.814  16.350 -0.0267 -0.0547 -0.0675
13347W        W32881   5.363  10.438   2.424 -0.1602 -0.3194  0.1388
13348W        W32882   3.900  10.097  16.958 -0.1916  0.2030  0.2622
13349W        W32883  15.824   5.094   5.195  0.0770 -0.0049 -0.0403
13350W        W32884  12.619   5.815   4.117  0.0264  0.1030 -0.0968
13351W        W32885  14.174  14.089   1.466 -0.2015  0.0485  0.1374
13352W        W32886   3.548   5.661   1.616  0.1566  0.2378 -0.2382
13353W        W32887  12.643  12.784   3.044 -0.1786 -0.1447  0.0699
13354W        W32888   9.371  14.004   4.523  0.4970  0.2962  0.0357
13355W        W32889   7.241   4.191   0.527 -0.0419 -0.1361  0.0070
13356W        W32890   9.398  15.279   3.301  0.4573 -0.0249 -0.2739
13357W        W32891   4.379   6.674   1.248 -0.0019 -0.0568 -0.0654
13358W        W32892  14.775   3.501   0.272 -0.0737 -0.0044 -0.2370
13359W        W32893   8.738  17.205  16.409 -0.2413 -0.3397 -0.1707
13360W        W32894   5.392  16.081   3.821 -0.0445 -0.4807 -0.2805
13361W        W32895  12.020  11.206  16.721  0.1221  0.1377  0.0599
13362W        W32896   3.164  14.645   3.003 -0.1708 -0.3296  0.1485
13363W        W32897  11.540  13.779  16.774 -0.0491 -0.1409  0.0161
13364W        W32898   4.542   5.688   1.283 -0.0477  0.2326 -0.1667
13365W        W32899  16.871   9.318  15.245  0.1275  0.1524 -0.0401
13366W        W32900   5.564   5.374  13.956 -0.0641 -0.4253  0.4181
13367W        W32901   4.479   9.553   4.698  0.1553  0.2882 -0.2050
13368W        W32902  13.385  15.044  14.327  0.1337  0.1746 -0.2486
13369W        W32903   2.050   0.132   2.263 -0.0517 -0.1317  0.2407
13370W        W32904   0.734   5.605   1.589 -0.0377  0.0223 -0.1345
13371W        W32905  16.660   5.326  14.348 -0.2050 -0.0482  0.2216
13372W        W32906   6.481   9.761  14.353  0.1033  0.1249  0.3546
13373W        W32907  17.292  12.051   2.754  0.0297 -0.0187  0.0411
13374W        W32908   0.816   8.818  15.725 -0.1018 -0.1274 -0.0387
13375W        W32909   8.750   6.398   3.791  0.1681  0.2834 -0.1202
13376W        W32910  13.406   6.303  13.293 -0.2357  0.3483 -0.0039
13377W        W32911   5.181  11.107  12.873  0.2228  0.1639 -0.2039
13378W        W32912   9.854   2.748   4.909 -0.2397 -0.0214 -0.2718
13379W        W32913   2.403   4.487   2.868  0.1663  0.1421  0.1226
13380W        W32914   6.433   0.889   1.041 -0.0204 -0.1162  0.1036
13381W        W32915  17.104   7.369   2.819  0.1049 -0.3088 -0.4102
13382W        W32916   8.543   6.064  15.007  0.0030 -0.2331  0.3099
13383W        W32917   4.666   0.423  16.402  0.2677 -0.1126  0.0358
13384W        W32918   3.255   7.182  16.689 -0.1561 -0.1704 -0.0559
13385W        W32919  14.659   9.976   3.403 -0.1087 -0.1717  0.2232
13386W        W32920  16.382  15.120   4.909 -0.5171 -0.0118  0.2325
13387W        W32921   3.145  13.455  13.022  0.0582 -0.2953  0.1079
13388W        W32922  10.987   8.304   3.259  0.2712  0.0959  0.0427
13389W        W32923  10.768  14.428  13.471  0.1063  0.2376  0.0688
13390W        W32924  13.429   2.459  16.781 -0.0721 -0.0006  0.0820
13391W        W32925   3.642   9.928  16.506 -0.2531 -0.0924 -0.0674
13392W        W32926   4.718  11.887  12.613  0.2699 -0.0263 -0.0346
13393W        W32927   2.685  12.395  14.807  0.2419 -0.3266 -0.0522
13394W        W32928  16.395  14.340   2.255  0.2040 -0.2609 -0.1906
13395W        W32929   4.372   3.252   2.306 -0.0706 -0.1735 -0.2387
13396W        W32930  11.224   0.231  16.000 -0.2030 -0.0710 -0.1122
13397W        W32931  16.378  14.162   3.358 -0.3620 -0.0722  0.1648
13398W        W32932   6.305   0.309  13.517 -0.1401  0.0278 -0.0988
13399W        W32933   9.085   2.597   1.864  0.1692  0.1327 -0.1566
13400W        W32934  13.159  11.339  12.508  0.1494 -0.3378  0.1987
13401W        W32935   7.713   0.766  15.374  0.3228  0.2323 -0.1301
13402W        W32936  10.422  12.036   5.600 -0.0601 -0.1781  0.2587
13403W        W32937  12.585  12.340  14.837 -0.0081  0.1492 -0.0004
13404W        W32938  14.737   7.466   2.113  0.0892 -0.0372 -0.0310
13405W        W32939   7.097  10.100   0.162  0.1453 -0.1555 -0.0812
13406W        W32940  11.517   5.849  15.987 -0.2270  0.3145 -0.0518
13407W        W32941   6.146  14.333  16.108  0.0335  0.1117  0.0450
13408W        W32942  14.146   0.933   3.908 -0.0621  0.0962 -0.0901
13409W        W32943  14.898   8.809  13.222  0.0443  0.1308  0.0499
13410W        W32944   1.832  15.061   3.994  0.3985  0.2258  0.1201
13411W        W32945   8.039  13.614   0.286  0.1116  0.0501  0.4817
13412W        W32946   9.169  13.458  14.962 -0.2149 -0.1854  0.0317
13413W        W32947   5.962  11.766  13.722  0.0089 -0.0234 -0.0057
13414W        W32948   4.841  10.129   0.245  0.2030 -0.0499 -0.0629
13415W        W32949   9.777   2.560  14.980 -0.0380 -0.0498  0.0862
13416W        W32950   9.787  14.726  16.080  0.1579  0.1864 -0.0490
13417W        W32951  15.440   5.235  12.740  0.0327  0.1873  0.2954
13418W        W32952  10.384   9.579   3.723 -0.1754  0.1320 -0.1942
13419W        W32953   7.548   7.331   1.318  0.1926 -0.2352 -0.0583
13420W        W32954   2.330  17.549   3.584  0.2264 -0.1661 -0.0486
13421W        W32955   5.884   3.860  12.942  0.0068 -0.1258 -0.0779
13422W        W32956  13.987  12.177  13.961  0.0236  0.0905  0.1109
13423W        W32957   8.808  10.836  15.450 -0.3861  0.3186 -0.0312
13424W        W32958  16.341  11.594   1.544 -0.0204  0.0928  0.1345
13425W        W32959   0.687   8.289  12.916 -0.2264  0.2932  0.0102
13426W        W32960   3.614   9.824   4.901  0.2958 -0.1680 -0.1947
13427W        W32961   0.194  16.272  16.565  0.2594  0.0192  0.0269
13428W        W32962   2.612  17.438  12.879  0.0977  0.0268 -0.1581
13429W        W32963   3.234  11.272   2.452  0.1719  0.1792  0.1356
13430W        W32964  11.026   2.975   3.027 -0.0084  0.1013  0.1208
13431W        W32965   9.078   4.571   2.776 -0.2787 -0.2127  0.0179
13432W        W32966  10.203  17.660   1.688  0.0019 -0.0317  0.1154
13433W        W32967  17.629  11.760  12.457 -0.2787 -0.1686  0.0069
13434W        W32968   7.531   7.241  14.511  0.2439  0.0008 -0.1371
13435W        W32969  10.165   3.071   4.607 -0.0636 -0.0057  0.0013
13436W        W32970   0.969   1.418   1.224 -0.3727 -0.0129  0.3640
13437W        W32971   4.507  14.730  13.723  0.0991 -0.2117  0.1213
13438W        W32972   5.911  16.353   2.920  0.1407  0.0529 -0.4180
13439W        W32973   2.525  14.360  13.429 -0.0600 -0.0175  0.4243
13440W        W32974  13.887   2.650  11.289 -0.0016  0.2843  0.1786
13441W        W32975  10.237   2.646   2.653 -0.1357  0.1796 -0.0325
13442W        W32976  11.724   1.084  15.738  0.2038 -0.0982  0.0300
13443W        W32977   5.541   0.392  13.979  0.0703 -0.0120  0.0208
13444W        W32978   1.892  15.083   4.502  0.1434  0.1910  0.0158
13445W        W32979   8.886  10.181  13.353  0.0778  0.0948  0.2380
13446W        W32980  13.327  16.096  13.990  0.0222 -0.0044 -0.0168
13447W        W32981   5.129  17.179   1.504 -0.0885 -0.2248  0.3435
13448W        W32982   9.030  14.138  16.509 -0.0426  0.0806  0.3545
13449W        W32983   7.276   4.679  12.225 -0.1433 -0.1298  0.0752
13450W        W32984  11.717  14.907   2.406  0.0118 -0.0179  0.0179
13451W        W32985  10.938  13.406   1.968  0.0154 -0.0582 -0.0733
13452W        W32986  12.305  12.390   2.686  0.1386 -0.0119  0.2008
13453W        W32987  11.159   8.064   1.096 -0.0731  0.1376 -0.1056
13454W        W32988   6.251  10.594  13.810 -0.3005 -0.0550  0.1541
13455W        W32989   5.803  10.864   3.163 -0.0202 -0.2469 -0.3641
13456W        W32990   8.714  10.735  13.084  0.1036 -0.1386  0.2145
13457W        W32991   1.541  11.169  15.033 -0.2875 -0.4389 -0.0914
13458W        W32992  13.227  13.783  14.227  0.0049 -0.0928 -0.0576
13459W        W32993   8.366   6.094  14.060 -0.1618  0.4100  0.1219
13460W        W32994  11.524  13.038  16.282  0.1318 -0.1401 -0.2042
13461W        W32995   5.284   4.693  13.348  0.0775  0.5409 -0.2434
13462W        W32996   6.270  11.435  16.513  0.0374  0.0027  0.2133
13463W        W32997  14.087   5.333  14.212  0.3255 -0.1511  0.2876
13464W        W32998   6.717  12.550  15.724  0.2145 -0.1767  0.0484
13465W        W32999   1.084  17.176  15.911 -0.0761 -0.0015 -0.0195
13466W        W33000  13.912  16.571   4.879  0.1033  0.0897 -0.0095
13467W        W33001   6.520  12.056   2.203 -0.1569  0.2616 -0.0620
13468W        W33002   9.265  13.074  14.095  0.1156 -0.1957  0.1268
13469W        W33003   7.171  16.951  14.679 -0.1086 -0.4463  0.0214
13470W        W33004  16.517  11.391   0.648  0.1630 -0.0749  0.0498
13471W        W33005  12.979   7.781   3.240 -0.0921  0.0349 -0.4382
13472W        W33006  16.948   4.407   3.356 -0.0406  0.0236 -0.2271
13473W        W33007   1.118   0.904   5.549 -0.1198 -0.0591 -0.0720
13474W        W33008   5.257   6.338  14.155  0.0825  0.2350 -0.1092
13475W        W33009   0.904  16.350  16.601 -0.1830 -0.1827  0.0679
13476W        W33010  17.445   5.649  14.146  0.0673  0.0850 -0.1195
13477W        W33011   2.854   9.535   0.004 -0.0854 -0.0021 -0.4102
13478W        W33012  13.672  16.736   3.209 -0.1928  0.1965 -0.1418
13479W        W33013   9.526   1.006  15.863  0.1191  0.0624 -0.1095
13480W        W33014  11.368   7.417  13.780  0.0393  0.0818  0.2997
13481W        W33015  14.037   3.184  14.700  0.1440 -0.0647 -0.0115
13482W        W33016   7.272   4.824  14.880 -0.4516  0.2678 -0.0945
13483W        W33017  14.660  13.257   0.320  0.2287 -0.3943  0.1425
13484W        W33018  10.710   7.873  15.413  0.1820 -0.0306  0.1514
13485W        W33019   1.373  17.091  16.312  0.0841 -0.1965 -0.0942
13486W        W33020  12.667  10.099  12.863 -0.1129  0.1680 -0.0735
13487W        W33021   3.358   7.658   1.408 -0.0375  0.1188  0.1670
13488W        W33022  13.218   8.505  14.374 -0.2425 -0.0896  0.0716
13489W        W33023   3.588   2.839   0.671  0.0541  0.0542 -0.0335
13490W        W33024  16.658   5.876   4.951 -0.2169 -0.0926  0.2556
13491W        W33025   5.381  11.211  13.765 -0.0650 -0.1887 -0.0201
13492W        W33026   0.535   7.906  16.682  0.2245  0.2607  0.1834
13493W        W33027  15.767  16.203   2.688  0.2652  0.0190  0.1673
13494W        W33028   8.285  12.785   2.249 -0.0012 -0.2019  0.1763
13495W        W33029   8.341   4.379  16.317 -0.0991  0.1152 -0.1194
13496W        W33030  15.331  13.924  14.059 -0.2604  0.0589  0.1012
13497W        W33031  15.394   1.429  16.647 -0.1408  0.0168 -0.1142
13498W        W33032   0.389  14.989   1.975  0.4329 -0.1253 -0.1123
13499W        W33033   4.514   9.669   3.377  0.0589 -0.5196 -0.2099
13500W        W33034  10.936  13.558  16.110  0.0694  0.0502 -0.4503
13501W        W33035  11.358  12.561  13.544  0.1764  0.1140  0.0419
13502W        W33036   7.311  15.311  12.890 -0.1098  0.1678 -0.0901
13503W        W33037  11.938  15.219   2.767  0.1925  0.2747 -0.2209
13504W        W33038   0.230   8.908  11.988  0.1886 -0.0526  0.0929
13505W        W33039   3.812   8.014  16.963  0.2755  0.0502 -0.0684
13506W        W33040   7.254   9.314  12.165  0.2408  0.2372  0.0972
13507W        W33041   7.418   8.653   1.384 -0.0410  0.0532 -0.2544
13508W        W33042   7.644  17.321   0.240 -0.0296  0.0572  0.1408
13509W        W33043   3.090  13.677   3.477 -0.0753 -0.2766 -0.0967
13510W        W33044   1.891  13.072   0.467 -0.1004  0.0493  0.0537
13511W        W33045  16.941  10.441  15.621  0.0377  0.0239  0.0203
13512W        W33046  15.491   2.890  14.462  0.1128 -0.4444  0.0957
13513W        W33047   5.514  14.115   1.332  0.0303 -0.0092 -0.0401
13514W        W33048   1.494   7.175  13.901 -0.1372  0.0362  0.1971
13515W        W33049  14.199   9.549  12.798  0.2174 -0.0897 -0.0101
13516W        W33050  14.973  15.450  13.349 -0.0393 -0.0626  0.3090
13517W        W33051  11.892  17.329  16.075  0.0133  0.1076 -0.0855
13518W        W33052   0.964  10.405   4.858  0.1928 -0.2801  0.0229
13519W        W33053  13.856   6.277   1.895 -0.1690  0.0161  0.1915
13520W        W33054   2.775  14.328  15.830  0.0489 -0.1140 -0.1729
13521W        W33055  16.447   9.432   1.505  0.0228 -0.0592  0.0067
13522W        W33056  10.657   9.025  16.793  0.0168  0.0963  0.0489
13523W        W33057  15.623   6.287  16.758  0.0363 -0.2613  0.1163
13524W        W33058   6.346  11.944  16.857 -0.2278  0.0269 -0.1325
13525W        W33059   1.350   5.281  13.872 -0.0801 -0.0923 -0.0681
13526W        W33060  12.713  12.273   5.319 -0.1603  0.1990 -0.1875
13527W        W33061   7.428   9.185   0.888 -0.1366  0.1424  0.2796
13528W        W33062   2.327  11.645   3.295  0.1737  0.0073  0.0847
13529W        W33063   5.867  14.214  12.336  0.1617  0.0876  0.0136
13530W        W33064   6.963   1.257  16.642  0.0529 -0.1622  0.2161
13531W        W33065  12.525  17.035  15.148 -0.0969 -0.2005  0.0862
13532W        W33066  11.209  11.759   3.914  0.0817  0.4084 -0.0326
13533W        W33067  16.718   5.110   0.056  0.1379  0.1867  0.4270
13534W        W33068  14.959   5.862   3.407  0.7012 -0.1439 -0.0423
13535W        W33069  17.461  17.584   5.085  0.0249  0.0009  0.3756
13536W        W33070  12.588  10.278   3.195 -0.0231 -0.2002 -0.0334
13537W        W33071   1.683   6.706  12.104  0.0058 -0.1049  0.1428
13538W        W33072  16.962  12.793  16.799  0.0396 -0.1426  0.0562
13539W        W33073  13.158   0.849   2.566  0.3285 -0.1697  0.0737
13540W        W33074   9.111   5.176   4.059 -0.1670  0.3175 -0.2606
13541W        W33075   6.565  11.174   3.794  0.0299  0.2227 -0.0090
13542W        W33076   3.929   7.885   3.475  0.1131  0.0380  0.2088
13543W        W33077  15.516  16.280  12.606 -0.0419  0.0542  0.2534
13544W        W33078  15.386  10.401  11.073  0.0429  0.2130 -0.0435
13545W        W33079   7.940   4.449  16.630  0.0853  0.1094 -0.1433
13546W        W33080   1.775  14.916   3.485 -0.3333  0.1968 -0.0349
13547W        W33081  14.266   7.850   3.007 -0.0462  0.0322 -0.0287
13548W        W33082   2.514  11.302   0.794  0.0356 -0.3014  0.1857
13549W        W33083  12.886  14.998  11.991 -0.3379  0.0672 -0.0498
13550W        W33084   3.774  17.110   0.627 -0.2547  0.0985 -0.4485
13551W        W33085  17.398  17.286   2.612  0.0660 -0.0295  0.0238
13552W        W33086  10.537   6.670   4.339 -0.1288 -0.3191 -0.0463
13553W        W33087   2.332  11.299  15.139 -0.1231  0.1325 -0.3707
13554W        W33088   6.523  11.528   2.030 -0.0153 -0.3310  0.3216
13555W        W33089  17.639   0.179  14.698 -0.3447 -0.1217 -0.2440
13556W        W33090   9.488   9.698  15.545  0.1481  0.2502  0.0223
13557W        W33091   6.532  14.070   3.073  0.1699 -0.0253  0.1992
13558W        W33092  16.524  10.340  13.930 -0.2593  0.1214 -0.3119
13559W        W33093   5.402  13.582   1.129  0.0317  0.0405 -0.0927
13560W        W33094  13.797  12.069  16.478  0.0574 -0.2123 -0.0017
13561W        W33095   2.049  14.080  13.608 -0.1784  0.2003 -0.0962
13562W        W33096  15.417  14.170   1.658  0.0527  0.2665  0.2967
13563W        W33097   1.869   2.284  15.955 -0.0421  0.0922  0.1255
13564W        W33098  12.515   7.134  16.090  0.0347  0.1809  0.1572
13565W        W33099  10.348   0.069  15.996 -0.0790  0.0962  0.2912
13566W        W33100   7.015   3.604   4.330  0.0579  0.1081  0.1258
13567W        W33101   1.845  14.689  15.473 -0.1994 -0.0842 -0.0626
13568W        W33102  10.621  12.121  17.054 -0.1673  0.0256  0.0214
13569W        W33103  16.333   2.096  15.959  0.1094 -0.0489  0.0393
13570W        W33104   3.988  16.639   2.922 -0.3087 -0.1712  0.1202
13571W        W33105   5.751   7.850   4.301  0.2466  0.5771 -0.2799
13572W        W33106  12.785   6.327  16.906 -0.2606  0.0860  0.1470
13573W        W33107  15.260   2.977   2.217 -0.0052 -0.2635  0.0551
13574W        W33108  16.713  12.136  14.533  0.1319 -0.1488  0.1928
13575W        W33109  16.916   6.980   1.427 -0.2114  0.3414  0.0346
13576W        W33110   1.487  17.346   1.740 -0.1677 -0.2826 -0.1544
13577W        W33111  15.899   7.429  15.514 -0.0030 -0.2278  0.1711
13578W        W33112  10.795  13.667   0.740  0.3833  0.0185 -0.0606
13579W        W33113   4.429   9.008   3.630 -0.0934  0.1338  0.2348
13580W        W33114   9.167   0.859  14.539  0.1571 -0.2248 -0.1396
13581W        W33115  15.263  11.857   1.730 -0.0856  0.1028  0.0423
13582W        W33116   0.430   3.344   3.101 -0.1653 -0.1573  0.3974
13583W        W33117   5.835  12.383   4.960  0.0711  0.0642  0.0187
13584W        W33118   1.628   7.392   2.292 -0.1592 -0.1601 -0.0591
13585W        W33119   5.786  15.721   2.270  0.3454  0.0131 -0.0273
13586W        W33120   8.765   9.392  12.050  0.0007  0.2024  0.0340
13587W        W33121   0.499   8.884   1.613  0.2654  0.1737 -0.0502
13588W        W33122   1.846  17.546  16.840 -0.0163 -0.0467  0.1617
13589W        W33123   9.438  12.330   0.648  0.2351 -0.0227  0.2497
13590W        W33124   4.409  11.567   3.787 -0.1057  0.0471 -0.0925
13591W        W33125   0.131   2.094   2.838  0.0946  0.0597  0.1724
13592W        W33126   4.239  10.572  15.152  0.0961 -0.2357  0.1516
13593W        W33127   5.611   7.561   1.595 -0.0547 -0.3119  0.1722
13594W        W33128  12.583   7.401  15.640 -0.2644  0.0154 -0.0387
13595W        W33129   3.439   8.608  12.845  0.1514  0.1073  0.0047
13596W        W33130  12.354  11.468   5.127 -0.1158  0.2569 -0.1500
13597W        W33131  13.104   8.114  11.893  0.0439  0.0579 -0.0380
13598W        W33132   1.157  13.500  16.704  0.0290 -0.1727 -0.1727
13599W        W33133   3.202   7.464  14.787  0.1305  0.1694  0.0453
13600W        W33134  17.651  12.358   0.340  0.1340 -0.1055 -0.2490
13601W        W33135  10.243   4.137  13.223  0.3685  0.0422  0.2326
13602W        W33136   2.124  13.619  13.462 -0.0571 -0.0056  0.0363
13603W        W33137   5.654   5.358  11.845 -0.0159 -0.0288 -0.1859
13604W        W33138   7.004  10.769  15.705  0.0291  0.0339 -0.1176
13605W        W33139   5.259   1.177   4.104 -0.1204  0.0188  0.0261
13606W        W33140   5.081  16.380   0.480  0.0838 -0.1965  0.0714
13607W        W33141   2.929  10.083  14.725 -0.0078  0.2607  0.1968
13608W        W33142  10.992  16.587   0.556  0.2808  0.5711 -0.0789
13609W        W33143   9.631   6.117  16.145  0.0925  0.1090 -0.0862
13610W        W33144   8.408  17.660   1.774 -0.2668  0.3837 -0.0514
13611W        W33145   2.605  15.981   0.550  0.0832  0.1851 -0.2115
13612W        W33146   1.135   4.221   3.028  0.1363 -0.0151 -0.1135
13613W        W33147   8.097  15.021  14.831 -0.0964 -0.1762  0.4260
13614W        W33148   8.271  11.128  14.055 -0.1537 -0.0593  0.2262
13615W        W33149   3.420   7.836  11.232 -0.1566 -0.2102  0.1368
13616W        W33150   4.132  17.210  13.668 -0.0778 -0.0895  0.0772
13617W        W33151   9.549  15.529   2.698  0.2798  0.2867 -0.1572
13618W        W33152   1.873  15.480   2.383 -0.1260  0.3172  0.3779
13619W        W33153  16.103   3.756  15.310  0.1487  0.2798  0.1387
13620W        W33154  12.125  10.439   1.937 -0.2036  0.0088 -0.0154
13621W        W33155  17.235   4.273   4.321  0.1524 -0.2101  0.3968
13622W        W33156   0.817  12.986   3.109  0.1723 -0.1493 -0.1752
13623W        W33157   3.351  15.205  14.915 -0.1181  0.0248  0.0918
13624W        W33158   1.252   3.993   5.036  0.1950  0.2062  0.1792
13625W        W33159  13.840  11.049  16.608  0.1205 -0.1384 -0.1605
13626W        W33160   2.520   0.267  12.532  0.1399  0.0533 -0.0022
13627W        W33161  10.946   5.271  16.904  0.2668 -0.2204  0.3121
13628W        W33162   8.656   2.502  14.902 -0.0930  0.1104 -0.1691
13629W        W33163  10.957   0.560   2.714  0.2125 -0.0055  0.0581
13630W        W33164  15.156  17.375  16.005 -0.0949 -0.1490  0.3591
13631W        W33165  15.791  10.337  15.483 -0.1057 -0.0216  0.1537
13632W        W33166   6.462   7.802   3.500  0.0314 -0.0847  0.1292
13633W        W33167   0.919   2.973  14.498  0.0750  0.1293  0.0448
13634W        W33168   6.659  15.338  16.948  0.2846  0.2741  0.2854
13635W        W33169   9.337   2.915  16.439  0.1125  0.1917  0.0209
13636W        W33170  17.348   0.809   2.928  0.3275 -0.1316  0.2691
13637W        W33171   0.491  10.926   0.377  0.2096 -0.2009 -0.0996
13638W        W33172  14.312  17.241  15.747 -0.3435 -0.0260 -0.0326
13639W        W33173   7.937   6.781   0.554 -0.0081 -0.1915  0.2314
13640W        W33174   2.667  10.294   2.228 -0.1928 -0.1665  0.3127
13641W        W33175   2.885  11.777  14.611 -0.0776 -0.1949 -0.0264
13642W        W33176  12.329   5.343  13.127  0.2651  0.1567 -0.1458
13643W        W33177   1.963   7.511  14.319 -0.2472 -0.0233 -0.0406
13644W        W33178   0.329   1.175   4.025  0.0766  0.1415  0.1090
13645W        W33179   1.500   5.001   1.907  0.1391  0.4116  0.1026
13646W        W33180   4.331   2.612  13.270  0.2193  0.0032 -0.0275
13647W        W33181   4.229   3.313  12.437  0.0298  0.1459 -0.1110
13648W        W33182  11.944   8.904   2.654 -0.0596 -0.0160 -0.1549
13649W        W33183  11.547  15.247   1.732  0.2886  0.1664  0.4611
13650W        W33184  15.582  13.203   3.946 -0.0730  0.2151  0.1084
13651W        W33185   2.855  13.025   0.590  0.2586 -0.1283  0.1356
13652W        W33186   4.829  11.423  15.869  0.1145  0.0323  0.1751
13653W        W33187  13.959  11.925  12.214 -0.0283  0.1392  0.1062
13654W        W33188  11.533   7.502  14.237  0.1628  0.0630 -0.1336
13655W        W33189  16.039  17.531   0.434 -0.3125 -0.0572 -0.0625
13656W        W33190   1.666  15.753  16.533 -0.1492  0.0827  0.0372
13657W        W33191  11.681   1.766   3.926  0.1720  0.1759  0.3360
13658W        W33192   9.427  14.944   4.050  0.0540  0.1329 -0.0921
13659W        W33193   6.835  15.005  16.512 -0.0507  0.2583 -0.1301
13660W        W33194   2.701  13.920  13.640  0.0689 -0.0639 -0.0994
13661W        W33195  17.262  17.588  13.031 -0.0590  0.3082  0.0280
13662W        W33196  16.347   8.082   1.164 -0.1477  0.0435 -0.0269
13663W        W33197   0.751   6.183   0.336 -0.1263 -0.2234 -0.2309
13664W        W33198   9.859  17.523   5.996 -0.1212 -0.2138 -0.4531
13665W        W33199  12.592  11.924  11.283  0.0067 -0.0756  0.0042
13666W        W33200  10.052  13.063   0.885  0.0921  0.0929 -0.0367
13667W        W33201   3.652   7.320   1.618  0.0141 -0.0352 -0.0737
13668W        W33202   9.831   7.600   3.062  0.0469 -0.2311  0.1943
13669W        W33203  13.882   4.936   2.342  0.0390 -0.2009 -0.0318
13670W        W33204  13.362  11.197   4.710  0.1868  0.0241 -0.0174
13671W        W33205   9.782   6.417  15.226 -0.0928 -0.0974 -0.1647
13672W        W33206   7.693  10.029  15.349  0.0936 -0.1501  0.0463
13673W        W33207  16.813   2.720   2.346  0.1041  0.1745 -0.1446
13674W        W33208   2.909   1.800   1.151  0.3782 -0.2506  0.0097
13675W        W33209  14.801  13.589   1.089  0.1581 -0.2506  0.1346
13676W        W33210  14.323  12.817  12.696  0.1999 -0.2772 -0.3173
13677W        W33211   9.287   7.978   0.722  0.0387  0.0112  0.1081
13678W        W33212   1.538  16.222  15.307  0.0988 -0.1039 -0.2188
13679W        W33213  17.382   4.650  16.351 -0.1034 -0.2615 -0.1929
13680W        W33214  11.947  14.969   1.918  0.1087 -0.1811  0.1521
13681W        W33215  15.478  17.348  16.563  0.0419  0.0134  0.0482
13682W        W33216   3.380   5.918   2.528 -0.0031 -0.3365  0.1872
13683W        W33217   9.955   4.443  14.464 -0.1174 -0.0011 -0.2311
13684W        W33218  16.744  13.245   0.268  0.0974 -0.1205  0.1594
13685W        W33219   2.922   0.449  12.836 -0.3821 -0.3241 -0.2298
13686W        W33220  14.915  15.166  14.364 -0.1608  0.4865 -0.1097
13687W        W33221  15.998  13.017  12.672 -0.1016 -0.0477  0.1648
13688W        W33222   3.425   4.469   2.709  0.0031 -0.0667  0.0521
13689W        W33223  13.800   5.114   4.053 -0.1688 -0.1328  0.2508
13690W        W33224   3.548  15.168   1.937  0.0755 -0.1483  0.0524
13691W        W33225   0.010   1.863   4.090 -0.0357  0.0228 -0.2167
13692W        W33226   0.385  10.226  13.657 -0.0945  0.0290  0.1687
13693W        W33227  15.406  10.905  12.685  0.5102 -0.0736 -0.0715
13694W        W33228   0.827   9.912   5.076 -0.0120  0.2620 -0.0584
13695W        W33229  15.040  11.111   5.055 -0.1451  0.0709  0.1093
13696W        W33230   6.472   8.924  16.978 -0.1111  0.2028 -0.0360
13697W        W33231   5.537   2.026   0.267  0.1500  0.2829 -0.2605
13698W        W33232   5.583  11.630  12.133 -0.2400 -0.1123 -0.3674
13699W        W33233   0.449   4.513  16.615  0.2353  0.0579 -0.2886
13700W        W33234  12.897   0.468  12.951  0.0175 -0.2597 -0.0983
13701W        W33235   8.584   3.907   4.328 -0.0035 -0.1999 -0.0523
13702W        W33236  15.923   5.250   1.733 -0.2157 -0.2502  0.2052
13703W        W33237   8.452  15.600   2.420  0.1276 -0.2316 -0.0523
13704W        W33238   7.468   9.709   2.985  0.0327 -0.0402  0.3019
13705W        W33239  13.467   6.924   0.045  0.3551  0.1276 -0.2883
13706W        W33240   5.717  16.719   4.809  0.0814  0.1825 -0.0996
13707W        W33241   3.898   0.254   0.868  0.0591 -0.3461  0.0341
13708W        W33242  13.082   0.779  15.126 -0.3169 -0.0682  0.0450
13709W        W33243  16.789  11.984   2.930 -0.0623  0.2380  0.1256
13710W        W33244   4.636   3.644   4.905 -0.2316  0.1242 -0.3147
13711W        W33245  15.419   1.503   2.590 -0.2334  0.1683  0.1066
13712W        W33246  10.153   3.409   1.250 -0.1709 -0.2881 -0.1649
13713W        W33247   8.944  12.381  12.305  0.2594 -0.2355 -0.1972
13714W        W33248   6.253   4.777  15.221  0.0934  0.1544  0.0760
13715W        W33249   3.084  11.703   3.782  0.1300 -0.0246 -0.0865
13716W        W33250  13.746   9.138  12.560 -0.1074  0.1341  0.0196
13717W        W33251   7.653  16.897  14.790 -0.0861  0.0866  0.2011
13718W        W33252   9.973   5.289   0.917  0.4877  0.0779  0.3076
13719W        W33253  11.553  11.106   4.251 -0.2673  0.3011 -0.2489
13720W        W33254   8.839   2.629   4.555 -0.0876  0.0141  0.2551
13721W        W33255  13.916   0.431  15.730  0.0982 -0.0700 -0.1790
13722W        W33256   4.567   9.063   0.281 -0.1343  0.3298 -0.1519
13723W        W33257  10.666   8.198   0.855 -0.2114  0.2817  0.1729
13724W        W33258  13.075   3.903   4.091  0.2041  0.0920  0.0666
13725W        W33259  12.199  15.438  13.527  0.1991 -0.1301  0.0895
13726W        W33260  10.281  16.384   3.719 -0.1123  0.1851 -0.0248
13727W        W33261   0.703   6.052  15.679 -0.1005  0.2841 -0.0540
13728W        W33262  10.871  17.096  13.823  0.0450  0.0164  0.2168
13729W        W33263  17.234  15.370  12.884 -0.3162  0.0777  0.2802
13730W        W33264   4.693   4.735   2.511  0.1314 -0.0539  0.0823
13731W        W33265   0.599   1.730   1.526  0.0840 -0.5417  0.0786
13732W        W33266  11.064  11.131  14.029 -0.1331 -0.0466  0.2648
13733W        W33267   5.595  17.530   3.712 -0.2240  0.0719 -0.0124
13734W        W33268  17.544   8.981  17.052  0.3985 -0.0160 -0.0367
13735W        W33269  15.033  13.777  12.636 -0.2215 -0.0519  0.1789
13736W        W33270  15.119  16.223  12.301 -0.2315 -0.2596  0.3808
13737W        W33271  11.990  13.486  16.892  0.1586  0.1159 -0.2743
13738W        W33272   7.665  14.028   3.711  0.1999 -0.2247  0.1141
13739W        W33273  11.106   7.791  16.138 -0.3200  0.0352 -0.3730
13740W        W33274   0.891   5.315   2.514 -0.2387 -0.0126 -0.1054
13741W        W33275   7.382   1.660  14.794 -0.0533  0.1417  0.1603
13742W        W33276   1.413   2.456  14.968 -0.0567 -0.1621 -0.1526
13743W        W33277   4.805   5.053  12.935 -0.0030  0.1716 -0.1164
13744W        W33278  11.297  16.308   0.876  0.0646 -0.0012  0.0401
13745W        W33279  14.533   6.787  13.355 -0.2341  0.2496 -0.2410
13746W        W33280   1.317  12.379   0.579 -0.0376 -0.1305 -0.1786
13747W        W33281   5.941   4.821   0.707  0.0650 -0.3770 -0.0285
13748W        W33282   9.970  16.476   3.263 -0.2780 -0.3376 -0.1932
13749W        W33283   7.890  15.268  14.130 -0.2854 -0.1073 -0.0772
13750W        W33284  16.837   1.979  12.658  0.0073  0.3267 -0.1180
13751W        W33285   0.890   3.881   4.585 -0.1756  0.0649  0.0790
13752W        W33286   9.312   7.912  15.973  0.1320 -0.0288  0.0155
13753W        W33287   6.984  13.205  14.486  0.1919  0.0453  0.0234
13754W        W33288   1.065  12.293   5.115 -0.0424  0.0181  0.2562
13755W        W33289  11.785  15.730  14.872 -0.1568  0.1664 -0.0853
13756W        W33290   8.619   2.944   2.155  0.0107  0.0067  0.0069
13757W        W33291   7.717   6.428  12.681 -0.2853  0.3278 -0.2761
13758W        W33292   3.872   5.866   3.275  0.0740  0.1992  0.0534
13759W        W33293  13.263   1.199  13.907  0.5112  0.0748  0.0865
13760W        W33294  15.366  10.150   4.108 -0.1903  0.2170  0.1261
13761W        W33295   9.267  13.149   3.916 -0.0690 -0.3028  0.1932
13762W        W33296   1.501  16.723  15.880 -0.2669 -0.0355  0.2900
13763W        W33297   1.547  13.550  17.055  0.2376  0.2370  0.0999
13764W        W33298   5.161  13.108   4.780 -0.3262 -0.3098  0.1000
13765W        W33299   6.990   4.070   4.288 -0.2128 -0.1954  0.1128
13766W        W33300   2.752  16.811   3.412 -0.1544 -0.0562 -0.0455
13767W        W33301   4.221   6.100  16.169 -0.4048 -0.0273  0.0734
13768W        W33302   5.297  15.111   0.674  0.1996  0.2527 -0.1658
13769W        W33303  16.308  11.567   4.369  0.0177  0.2165  0.1361
13770W        W33304  15.640   0.473   1.424 -0.1705 -0.1479  0.0579
13771W        W33305   1.402   5.831   0.827 -0.0340 -0.1017 -0.1222
13772W        W33306   5.967   2.222  15.834 -0.1888  0.3063 -0.5069
13773W        W33307  10.727  14.016  15.227  0.1366 -0.0356  0.2056
13774W        W33308   0.324  11.325  15.498  0.2113  0.2920 -0.4795
13775W        W33309   2.315   0.115  16.572  0.1139  0.2031  0.3352
13776W        W33310   0.979  12.842   4.156 -0.0187  0.1328 -0.0495
13777W        W33311  15.260   5.223   2.220  0.0681 -0.0883 -0.1490
13778W        W33312   0.808   8.342   4.279  0.0486  0.3164 -0.2405
13779W        W33313   3.509  11.104  14.322  0.0018 -0.0225 -0.0996
13780W        W33314   7.002   2.302  14.130  0.1363 -0.1294  0.1958
13781W        W33315   3.669   2.872   1.250  0.1729 -0.1092  0.0885
13782W        W33316   8.307  14.138   4.751 -0.2056 -0.0450 -0.0499
13783W        W33317  17.518  15.579  15.849 -0.0223  0.0827 -0.0207
13784W        W33318   8.383  13.691  10.891  0.2035 -0.0089 -0.2224
13785W        W33319   0.878  11.734   0.126 -0.0752 -0.1536  0.2481
13786W        W33320   9.686  10.032   4.860  0.3177 -0.1861 -0.2146
13787W        W33321   4.476  17.026   4.959  0.0451  0.0521  0.2126
13788W        W33322   7.372  15.906  12.856  0.0502 -0.2005 -0.0191
13789W        W33323  10.894  13.652   2.434 -0.0279  0.0698  0.0610
13790W        W33324  12.459   6.501   3.222 -0.0214  0.0050  0.1925
13791W        W33325  17.338   3.886   3.221 -0.1559 -0.1204 -0.1119
13792W        W33326   7.333   2.561  13.729  0.2513  0.3395 -0.1426
13793W        W33327   5.249  11.320   1.063 -0.2332  0.0780  0.2652
13794W        W33328   0.598  17.085   0.283 -0.0908 -0.0205 -0.1494
13795W        W33329   3.827   6.345  15.815  0.0357 -0.0083 -0.0648
13796W        W33330   7.044  11.006   5.546 -0.3607  0.2853 -0.0068
13797W        W33331   4.729  14.345   4.766 -0.0648  0.1089 -0.1705
13798W        W33332  16.319  17.097   0.110  0.0185 -0.3670  0.1178
13799W        W33333   2.184   2.863  14.402  0.3592  0.0508 -0.1077
13800W        W33334  12.751  13.976   4.952 -0.3743  0.1459 -0.1097
13801W        W33335  16.594  12.163   2.047 -0.2753  0.4625  0.1355
13802W        W33336   0.593   1.178   0.361  0.2684 -0.3426 -0.0775
13803W        W33337  10.466   2.002   0.373 -0.0084 -0.0916  0.1740
13804W        W33338   1.442   1.477   5.247  0.0692  0.1285 -0.1001
13805W        W33339   5.377   5.076   3.043 -0.2273 -0.2032  0.1464
13806W        W33340   0.143  13.924  15.050 -0.1444 -0.0729 -0.0524
13807W        W33341  16.325  12.973  13.064  0.0470 -0.0907  0.0081
13808W        W33342  13.631   2.577  13.384 -0.0398 -0.2563 -0.1382
13809W        W33343   5.217  10.960   2.416  0.2121  0.1017 -0.5043
13810W        W33344  12.678   2.637  15.936  0.0006 -0.5097  0.1088
13811W        W33345   7.649   1.678   0.964 -0.0379 -0.1192  0.1735
13812W        W33346   3.165   4.858  16.422  0.1901  0.0191 -0.0565
13813W        W33347   3.186  17.540  13.547  0.1373  0.1928 -0.0887
13814W        W33348   5.569   4.209  13.344 -0.0137  0.0347  0.2097
13815W        W33349  17.086   4.157  12.909  0.0369 -0.1936 -0.0470
13816W        W33350   4.833   7.206  12.702 -0.0560  0.0288  0.2438
13817W        W33351  14.827   3.813  14.854  0.1246  0.0434 -0.0911
13818W        W33352  12.399  11.947   1.287  0.0409  0.2275  0.0376
13819W        W33353  11.109   8.015  12.643 -0.2419  0.1511 -0.0687
13820W        W33354  15.888   6.987  15.684 -0.0372  0.4624  0.5691
13821W        W33355  12.702  13.610  14.397 -0.0735  0.1359  0.0989
13822W        W33356  13.958   1.331  16.380 -0.1717 -0.2641 -0.0503
13823W        W33357  15.369   3.957  14.906  0.1241  0.2868 -0.1819
13824W        W33358   3.120  10.784  12.090 -0.0610  0.2076 -0.1318
13825W        W33359  10.789  17.204  16.643 -0.4416  0.3683 -0.2624
13826W        W33360   7.607   8.825   4.924  0.2812  0.0976  0.1160
13827W        W33361  13.880   9.541  14.056 -0.1105  0.1827  0.1171
13828W        W33362   7.241  11.106   1.962  0.0849  0.0921  0.2220
13829W        W33363   5.175   0.195  14.247  0.0933  0.1907 -0.0740
13830W        W33364  10.327  16.328  13.532  0.3232 -0.1636 -0.0828
13831W        W33365  15.711  10.382   0.910 -0.1291  0.4078 -0.0170
13832W        W33366  14.214   7.334   4.152  0.0144 -0.1738 -0.0541
13833W        W33367  11.698   0.969  15.208 -0.3094 -0.3084 -0.2372
13834W        W33368  13.729   4.907   1.839  0.2971  0.2639 -0.1160
13835W        W33369   2.838  17.018   3.970 -0.1799  0.0164 -0.1398
13836W        W33370  10.036  11.378  13.825 -0.2933  0.1250 -0.1263
13837W        W33371   1.015  14.589   1.232 -0.0245  0.0553  0.0134
13838W        W33372  17.339   6.071  14.486  0.4406 -0.1551 -0.3820
13839W        W33373  16.599  11.716  16.602  0.0545 -0.1151 -0.1318
13840W        W33374   3.244  13.663   1.795  0.2249  0.0299  0.1890
13841W        W33375  12.012   5.714   4.143  0.1262 -0.1293  0.0331
13842W        W33376  14.202  14.982   5.691 -0.3032 -0.2839  0.3838
13843W        W33377  16.531  13.685  12.820 -0.0912  0.0123 -0.0888
13844W        W33378   4.192  12.927   1.739 -0.1385 -0.1896 -0.1036
13845W        W33379  16.047   1.878   5.087 -0.3224  0.0152  0.1031
13846W        W33380   4.542   9.954   0.673  0.1932  0.1791 -0.0052
13847W        W33381   8.230   7.578  14.417  0.1594  0.0328  0.1290
13848W        W33382   8.022  12.986   1.494 -0.3780 -0.3564 -0.0285
13849W        W33383   2.889   4.927   1.392 -0.2686  0.2233 -0.0431
13850W        W33384   5.802  12.793   1.619 -0.1981  0.3488 -0.0051
13851W        W33385   6.991  12.649  16.201 -0.0831 -0.0912  0.0809
13852W        W33386   5.039   8.130  16.843 -0.1686  0.1562  0.0152
13853W        W33387   4.641   9.842  15.361  0.2263 -0.1591 -0.0444
13854W        W33388  10.728  11.954   2.830 -0.1697  0.0152 -0.0455
13855W        W33389   2.630  15.603  12.624  0.0108 -0.1585 -0.0034
13856W        W33390   4.342  10.632  14.344 -0.3746  0.0959 -0.3736
13857W        W33391   4.269   9.364  16.547 -0.1683  0.0637  0.0053
13858W        W33392   4.645   6.768   4.359 -0.2143  0.2101  0.2471
13859W        W33393   4.155  13.428  15.700  0.1452  0.0461  0.0941
13860W        W33394   8.399  13.562   2.592  0.0557 -0.2279 -0.0180
13861W        W33395   9.632  12.938  16.462  0.0845 -0.1205  0.4148
13862W        W33396   5.232   1.972   1.446  0.3845 -0.0275 -0.1572
13863W        W33397  13.981  11.950   4.613  0.1645  0.1042 -0.1894
13864W        W33398   1.153   7.683   0.711  0.0562 -0.2286 -0.0471
13865W        W33399   0.491  16.221   0.800 -0.0139 -0.1354 -0.2093
13866W        W33400  10.397   0.972  12.425  0.4287  0.5381 -0.0099
13867W        W33401  17.133   6.020   1.493 -0.2487  0.0612  0.0440
13868W        W33402  14.320   2.954   1.978 -0.0771 -0.1701  0.1180
13869W        W33403   0.981  17.554  15.554  0.0569  0.0038  0.1600
13870W        W33404   5.417   8.177   3.471  0.2004  0.1255 -0.1427
13871W        W33405   2.509   3.222  14.444  0.1585  0.1549  0.2105
13872W        W33406  10.470   2.974   4.159 -0.1406 -0.0420  0.0067
13873W        W33407   9.970  16.748  12.773 -0.2430  0.1063 -0.2014
13874W        W33408   5.170  14.669   3.064 -0.2784  0.2933 -0.0322
13875W        W33409  14.285  16.948  15.357 -0.1518  0.1212  0.0726
13876W        W33410   0.107   5.869   1.019 -0.1760 -0.3710 -0.0975
13877W        W33411   3.172  15.138  16.282  0.2121 -0.1602 -0.1444
13878W        W33412   1.294  11.608  15.630 -0.1002 -0.1059 -0.1762
13879W        W33413   7.912   8.594  14.220  0.0456  0.1667  0.2083
13880W        W33414   3.783  11.436  14.615  0.0461  0.0997  0.0776
13881W        W33415  15.786   2.994  15.031  0.3334  0.0685  0.5427
13882W        W33416  13.366  12.686  14.834 -0.1059  0.0255 -0.2760
13883W        W33417   4.720   0.922   0.706  0.0814 -0.2307 -0.1634
13884W        W33418  11.655  12.542   4.129  0.0682 -0.0695  0.0918
13885W        W33419   2.340   7.357  12.273 -0.2098  0.0039  0.3017
13886W        W33420   9.680   6.662   0.507  0.2329 -0.2020 -0.0026
13887W        W33421   0.164   6.652   3.843 -0.2024 -0.1503  0.0095
13888W        W33422  13.086   5.773   3.165  0.2176  0.1857 -0.1116
13889W        W33423  16.880  15.418   2.426 -0.2547 -0.3045  0.1407
13890W        W33424  13.525  16.198   2.450  0.2534  0.1987 -0.1158
13891W        W33425  13.698   2.732   1.810 -0.0702 -0.0632  0.2283
13892W        W33426   8.885   0.667  11.653  0.1616  0.0010 -0.3295
13893W        W33427   8.755  11.506  12.271  0.2510 -0.1228  0.3838
13894W        W33428   0.237   7.001  14.733  0.1021  0.1978 -0.1231
13895W        W33429   7.604   2.527   2.038  0.0819  0.2222  0.2010
13896W        W33430   8.178  12.818   4.417  0.1355 -0.4669  0.0394
13897W        W33431   2.704  13.667   1.927 -0.1537 -0.0753 -0.1165
13898W        W33432   3.452   6.132   2.966  0.0622 -0.1739  0.0610
13899W        W33433  11.978   0.783   5.009  0.0281  0.0759  0.4508
13900W        W33434  13.144   3.343  13.535 -0.4733 -0.0612 -0.0965
13901W        W33435   5.029   2.458  15.510  0.1400 -0.0446  0.0025
13902W        W33436   4.040   4.521   1.094 -0.0508 -0.0725 -0.1996
13903W        W33437  11.363  12.127  12.623  0.0013 -0.0924 -0.1518
13904W        W33438   8.126   4.520   4.805 -0.2378  0.1221 -0.1740
13905W        W33439  10.852  12.546  12.094 -0.3224  0.4135 -0.1105
13906W        W33440   8.481   8.054  14.400 -0.3129 -0.2276 -0.2042
13907W        W33441   0.791   3.808   3.199 -0.0980 -0.0501 -0.2023
13908W        W33442   4.402   2.298  12.395 -0.0760 -0.0529 -0.1260
13909W        W33443  15.347  13.887   2.104  0.0031 -0.0002  0.0040
13910W        W33444  16.921   7.750  12.533 -0.2734 -0.1651  0.1665
13911W        W33445  16.770  16.865  15.116  0.1970  0.0834 -0.5833
13912W        W33446   9.185  17.362  11.484  0.2134  0.4566  0.0939
13913W        W33447   2.368  16.064   1.774 -0.0178 -0.0830  0.3164
13914W        W33448   1.358   8.771  16.217  0.0743 -0.0380 -0.2976
13915W        W33449   9.533  10.333   4.481  0.3369  0.2621  0.0017
13916W        W33450   8.998  16.922  15.927 -0.0569  0.0298  0.0264
13917W        W33451   5.226   7.950  13.023 -0.1200  0.0303  0.0915
13918W        W33452  17.406   8.842   3.909  0.2468 -0.0661 -0.0620
13919W        W33453   8.846  10.098   1.273 -0.0060 -0.1217  0.2973
13920W        W33454   5.112  12.563   0.834 -0.4006  0.2776  0.1171
13921W        W33455  17.570   7.624   4.732 -0.2722 -0.0393 -0.3025
13922W        W33456   0.224   1.192  13.686 -0.1692  0.2388  0.0933
13923W        W33457  14.055  13.993  13.828 -0.0756 -0.2471 -0.1225
13924W        W33458  17.185   4.556   0.650 -0.1530  0.0148 -0.0252
13925W        W33459  12.756  12.309  14.340 -0.0038  0.0350  0.1225
13926W        W33460   7.005   5.462   4.356  0.2678 -0.0022  0.0968
13927W        W33461   3.329  15.874   1.188 -0.0870  0.3847  0.2561
13928W        W33462   9.216  16.240   4.695  0.2061 -0.1143 -0.2051
13929W        W33463   4.667  15.247   4.571  0.4322  0.1255  0.1251
13930W        W33464   3.873   4.325  15.935  0.1846 -0.0263 -0.1628
13931W        W33465  12.849  14.454   3.172 -0.0052  0.2373  0.0456
13932W        W33466   9.961   2.927   1.176  0.1953  0.2497  0.0975
13933W        W33467   5.450   7.831   0.594  0.2566  0.1786 -0.0771
13934W        W33468  12.069   6.403  13.531  0.3502 -0.0029  0.2414
13935W        W33469  16.320  14.140  15.047 -0.0033 -0.0071  0.0782
13936W        W33470   8.163  15.279   3.718 -0.0903 -0.0034 -0.0059
13937W        W33471  10.860   2.820   3.855 -0.0390 -0.2453  0.3180
13938W        W33472   5.991   7.431  16.301  0.1049 -0.1072 -0.4381
13939W        W33473  16.779   3.191   2.980 -0.2170 -0.0221 -0.2178
13940W        W33474  14.623  13.445  12.703  0.0209 -0.0995 -0.2251
13941W        W33475   7.463   9.773   3.940 -0.1202 -0.0228  0.0342
13942W        W33476   4.896   4.926   1.536  0.2413  0.1708 -0.2483
13943W        W33477   7.435  12.416  14.909 -0.0168 -0.1434  0.3210
13944W        W33478   8.022  14.201   3.443 -0.1402  0.1574  0.2764
13945W        W33479  14.514   2.933  12.431 -0.0487 -0.4184  0.1667
13946W        W33480  12.194   5.171  13.668 -0.1221  0.0608  0.1145
13947W        W33481   6.480   2.943  16.226 -0.2238 -0.0812 -0.2078
13948W        W33482   2.904   5.799  13.620  0.0531 -0.0801  0.0688
13949W        W33483   1.065  16.257  15.055  0.0803  0.3647 -0.0024
13950W        W33484   8.305   6.552  15.678  0.3803 -0.1679  0.1371
13951W        W33485   4.352  16.910  15.398 -0.2019  0.1948  0.0203
13952W        W33486   1.305   1.693   0.931 -0.1925  0.1595 -0.1382
13953W        W33487   1.879   0.761   1.711  0.1981  0.2862 -0.1776
13954W        W33488   7.447  15.065  11.700  0.1804  0.0500 -0.4558
13955W        W33489  13.218   1.804  12.843 -0.2746  0.1563  0.0283
13956W        W33490  15.652   8.440   0.600  0.2193 -0.0102 -0.1436
13957W        W33491   7.683  11.112  15.177  0.1980 -0.2473  0.1156
13958W        W33492  14.548   8.793  12.488  0.1403  0.1663 -0.0419
13959W        W33493   1.097   4.987  14.213 -0.2131 -0.0456  0.1027
13960W        W33494   9.207   8.627   3.880 -0.2279 -0.0787  0.0388
13961W        W33495   5.338  10.985  16.762  0.0009 -0.1346 -0.0671
13962W        W33496  13.843  15.847  15.347 -0.5819  0.0782  0.0468
13963W        W33497   1.214   2.654   2.166  0.3564  0.0974  0.1192
13964W        W33498  17.516  10.457  16.354 -0.2890 -0.0263 -0.0924
13965W        W33499  14.173  14.892  14.014  0.1018 -0.1807  0.2055
13966W        W33500  11.136   8.311   1.556  0.2481 -0.1911  0.0478
13967W        W33501   0.729   6.004  16.923 -0.0502  0.0705  0.1931
13968W        W33502   2.795   5.856   3.708  0.0071  0.1554  0.0026
13969W        W33503  11.173   8.824   3.921  0.1011  0.0229 -0.2164
13970W        W33504  15.223  14.420   2.042 -0.4589 -0.1328  0.1261
13971W        W33505  17.029   7.545  13.347  0.1327 -0.1250  0.1416
13972W        W33506  14.889  12.370  15.911  0.1773 -0.0889  0.0058
13973W        W33507   8.901  11.627   1.766 -0.1283  0.1106  0.1424
13974W        W33508   9.613  13.254  12.857  0.2458  0.0290  0.0693
13975W        W33509   2.821   3.626   2.859 -0.0267  0.0934 -0.0343
13976W        W33510  15.373  13.885  14.728  0.1258  0.0950  0.0328
13977W        W33511   8.688  15.677  15.707  0.1776  0.1064 -0.2633
13978W        W33512   7.080  10.898  16.402  0.1923 -0.2041  0.1998
13979W        W33513   9.372  14.579   1.052  0.0386 -0.2667 -0.3240
13980W        W33514  11.960  13.092   1.587  0.1873 -0.2632 -0.1219
13981W        W33515  10.319  11.227   3.500  0.1795  0.0141 -0.1249
13982W        W33516   6.977   8.380   0.391  0.2223 -0.1589  0.0090
13983W        W33517  15.811   9.181   4.967 -0.0756  0.0894 -0.0187
13984W        W33518   1.675  14.827  14.231  0.1129 -0.0472  0.0238
13985W        W33519   8.598   0.507   0.037  0.1697 -0.3186 -0.0113
13986W        W33520  16.375   0.142   0.791  0.1950  0.0512 -0.0714
13987W        W33521  15.487   2.436   1.499  0.0172  0.1323 -0.1108
13988W        W33522  12.864   1.438  12.838 -0.0552 -0.0610 -0.1631
13989W        W33523  11.551   8.601   2.675 -0.0396 -0.0829  0.1486
13990W        W33524   3.217   9.193  16.220  0.0553 -0.0424 -0.2267
13991W        W33525   5.955   5.828   1.543 -0.0540  0.2223  0.0558
13992W        W33526   9.038   5.406  13.954 -0.0389 -0.0080  0.1018
13993W        W33527   3.905   1.549   0.861  0.1047  0.4168 -0.0075
13994W        W33528   2.681   3.988  16.327  0.1399 -0.1415 -0.1250
13995W        W33529   2.587  15.375  14.583 -0.3183  0.1047 -0.0169
13996W        W33530  16.731  16.351  14.799  0.0267 -0.0294  0.3025
13997W        W33531   1.286   5.965   3.175 -0.2182  0.1666 -0.0883
13998W        W33532   9.579  10.034  16.829 -0.1907 -0.0805 -0.1210
13999W        W33533   9.348   5.158   0.136  0.0095 -0.0438  0.0602
14000W        W33534   9.343   9.009   3.538  0.2843 -0.1341  0.0895
14001W        W33535   6.186   0.850   4.245 -0.0859  0.1262  0.0564
14002W        W33536   1.787   2.750  15.653  0.0862 -0.1945 -0.1055
14003W        W33537  14.910   4.135  16.713 -0.2586 -0.0288  0.1624
14004W        W33538  11.665   8.102   2.763  0.0785 -0.1157  0.2741
14005W        W33539   1.764   1.090  15.649  0.4173  0.1257 -0.1623
14006W        W33540   4.636   6.444   0.910  0.0514  0.4312  0.0879
14007W        W33541   1.071   3.097  14.974 -0.0162  0.1622  0.3131
14008W        W33542   5.403  12.716  13.810 -0.0650  0.0688 -0.0115
14009W        W33543   3.078   2.915   0.870 -0.1191 -0.1668  0.2647
14010W        W33544  12.405   4.001  15.042 -0.1315  0.3225 -0.2805
14011W        W33545   0.719  12.048  14.245 -0.0270  0.1178 -0.1360
14012W        W33546   4.695   8.527   1.452 -0.0560 -0.0130 -0.1365
14013W        W33547  10.961   4.841   2.637  0.0463  0.0314 -0.2899
14014W        W33548  11.161   4.119   2.254 -0.2149  0.1440  0.3427
14015W        W33549  12.988   9.331  13.925  0.0871 -0.0904 -0.3794
14016W        W33550  10.663   7.387  16.818 -0.1259 -0.3903  0.0442
14017W        W33551  10.326   4.419   0.288 -0.0759  0.0738  0.1333
14018W        W33552   1.839   2.296   3.496 -0.2661  0.1364 -0.2388
14019W        W33553  16.230  11.585   2.126 -0.2225  0.0951  0.1028
14020W        W33554   8.083  14.294  14.421 -0.0087 -0.2667 -0.1714
14021W        W33555  14.407  17.202  13.249  0.0199 -0.1548  0.0028
14022W        W33556   5.847   1.246  16.580 -0.1336 -0.0890  0.1399
14023W        W33557  16.323  10.659  14.392  0.0388 -0.0242  0.0260
14024W        W33558  12.417   5.503   4.971  0.2590  0.0164  0.3507
14025W        W33559   0.516   6.502  15.507  0.3752 -0.0488 -0.0691
14026W        W33560   3.737   3.859   2.760 -0.0480 -0.4664 -0.0734
14027W        W33561  17.534   2.883  15.364 -0.1849 -0.1242 -0.0062
14028W        W33562   4.694  12.149   1.489 -0.1369  0.2136 -0.0945
14029W        W33563  15.579  11.460   1.465  0.1053 -0.0089  0.0302
14030W        W33564  10.705   8.993   2.544  0.1791  0.1925 -0.0635
14031W        W33565  16.494  15.687  13.431 -0.0348  0.0604  0.1158
14032W        W33566  17.036   8.579   4.197 -0.0577 -0.3176 -0.3319
14033W        W33567  13.632   6.055  14.142  0.1062 -0.1975  0.0524
14034W        W33568  14.090   6.828  15.181  0.0404  0.3179 -0.2140
14035W        W33569  10.927  10.053   3.471  0.2300 -0.0370  0.0411
14036W        W33570   5.854   9.213   0.829  0.3709 -0.1499 -0.1130
14037W        W33571  15.719  14.825  15.350 -0.0888  0.1420 -0.2261
14038W        W33572   7.457   9.319  13.311  0.2173 -0.0026 -0.1500
14039W        W33573  17.183   7.346  15.250  0.0440  0.0926  0.2201
14040W        W33574   8.365   4.729   3.787  0.1565 -0.1562  0.2983
14041W        W33575   7.120  16.477   1.989  0.1392  0.0985 -0.3736
14042W        W33576  16.778   5.306   3.302 -0.1283 -0.0987  0.2490
14043W        W33577   4.699   5.515  14.806  0.1197 -0.0427  0.1324
14044W        W33578   1.316   5.098   0.973 -0.2217  0.2048  0.1466
14045W        W33579   5.307  14.661  16.256  0.1165  0.0678  0.2587
14046W        W33580  12.233  12.245   1.772  0.2476 -0.1762 -0.0227
14047W        W33581   5.859   8.553  14.466  0.0764  0.0370 -0.1646
14048W        W33582   7.715   0.141  13.079  0.0931  0.2251  0.3332
14049W        W33583   1.651  12.996   3.498 -0.0124  0.3351 -0.2028
14050W        W33584   5.786  13.749  14.802  0.2853 -0.2838 -0.0709
14051W        W33585  16.493   7.310   1.511 -0.1330 -0.3337 -0.0837
14052W        W33586  15.070   7.622  13.751  0.1260  0.3048  0.0967
14053W        W33587   3.263   5.630   1.176 -0.0500 -0.1014  0.1388
14054W        W33588   2.877   4.231   5.309  0.0914 -0.1274 -0.0338
14055W        W33589  12.232   0.950  14.375  0.1865  0.0711  0.0865
14056W        W33590  15.749   8.896  14.661 -0.1420 -0.0037  0.0113
14057W        W33591  14.255  13.259  16.785 -0.3963  0.1774  0.0214
14058W        W33592  10.122  10.228  15.344  0.4347 -0.0177  0.0350
14059W        W33593  12.773   8.644   3.572  0.1189  0.0907  0.1537
14060W        W33594  16.013   1.398  12.568 -0.0642  0.1060 -0.3359
14061W        W33595  12.993  13.683  13.689 -0.4669  0.0445 -0.0407
14062W        W33596   1.007   4.693  14.641 -0.0299  0.1870  0.0183
14063W        W33597  11.113  16.012   1.234 -0.3456  0.1963  0.0302
14064W        W33598   7.063  15.256  12.190 -0.3921  0.2945  0.0615
14065W        W33599  17.647  10.728   4.566  0.1755 -0.1996 -0.0198
14066W        W33600  10.012   2.519   1.457  0.0533  0.1274 -0.0778
14067W        W33601  10.871  14.880  16.792  0.0149 -0.0494  0.1301
14068W        W33602  11.934   6.509  12.071  0.0476 -0.0973  0.0543
14069W        W33603   3.994  17.522   3.169 -0.1527  0.1140 -0.3458
14070W        W33604   5.946  13.578   3.499 -0.1671 -0.0147  0.2963
14071W        W33605   8.979   1.338  17.027 -0.0870 -0.0581  0.3580
14072W        W33606  10.024   3.748   1.630 -0.0274 -0.1245 -0.0060
14073W        W33607   4.398  10.120  13.887  0.1981 -0.2815 -0.2201
14074W        W33608   6.861   8.164   0.829 -0.0616 -0.1300 -0.1246
14075W        W33609   2.104   8.743   3.803  0.1076 -0.4363 -0.0827
14076W        W33610  12.142   9.599  15.440  0.2013 -0.0398 -0.0375
14077W        W33611   3.511   3.364   1.998 -0.3079  0.1317  0.1297
14078W        W33612   9.079  16.288   1.782  0.0986 -0.0075  0.0264
14079W        W33613  16.807  17.358   1.618  0.0289 -0.3198 -0.0556
14080W        W33614   9.922   8.567  16.163 -0.1776  0.1916 -0.0840
14081W        W33615  13.440   8.019   3.127  0.1654 -0.2756  0.1952
14082W        W33616  13.742   0.510   5.207 -0.1789 -0.2052  0.0225
14083W        W33617   7.179   0.134   4.278 -0.0476  0.2171 -0.0412
14084W        W33618   0.109  16.540   4.091  0.1320 -0.0030  0.2131
14085W        W33619   4.227   5.134   2.243  0.1379 -0.3805  0.1123
14086W        W33620  14.555   6.739   3.630 -0.0122  0.0932  0.4441
14087W        W33621   4.864   4.370   5.166 -0.3454 -0.0883 -0.2143
14088W        W33622   5.000  14.432  14.992  0.0386  0.2265  0.1112
14089W        W33623   6.962  17.430  15.584 -0.3504  0.1254  0.0561
14090W        W33624  13.539  11.002   1.469 -0.1139  0.1022  0.0694
14091W        W33625  14.339   7.448  15.228  0.1868  0.3161  0.0052
14092W        W33626  12.821   9.678   0.218  0.3018 -0.0110 -0.0449
14093W        W33627  12.422  16.650   0.069 -0.1786  0.0006  0.0863
14094W        W33628   7.761   9.420  13.671 -0.2157 -0.1777  0.2789
14095W        W33629   1.873   6.658  13.809  0.0416  0.0225  0.1643
14096W        W33630   0.565  10.588  15.135  0.1529  0.2535 -0.3179
14097W        W33631  13.383   9.467  11.944  0.2451 -0.3863  0.0242
14098W        W33632  11.916   7.882  12.097  0.1690 -0.1136 -0.2255
14099W        W33633   4.905   0.157   0.933 -0.0838  0.2656 -0.1067
14100W        W33634  15.920  17.634  13.317 -0.1699  0.1685 -0.1034
14101W        W33635  15.758  17.270  12.597  0.2289  0.3296  0.0114
14102W        W33636   5.664  13.229   1.329 -0.0744 -0.0697  0.2985
14103W        W33637   0.342   6.069  14.697 -0.1019  0.0343  0.1546
14104W        W33638  13.105   2.499  13.386  0.0251 -0.0386 -0.0442
14105W        W33639  11.274   8.783   4.443  0.1856 -0.3000  0.2144
14106W        W33640   7.237  14.322   4.501 -0.0142 -0.3542 -0.1610
14107W        W33641  11.286  16.544  16.527 -0.2531 -0.0311  0.0414
14108W        W33642  17.198  15.353   3.350 -0.0466  0.4719  0.1382
14109W        W33643   0.306   4.608   1.609 -0.0172  0.1477  0.1143
14110W        W33644   6.721   6.348   4.760 -0.2406  0.2136  0.1204
14111W        W33645   5.430   7.024   2.880  0.0170 -0.3777  0.0725
14112W        W33646  14.651  16.381   1.302 -0.1905  0.1375 -0.0988
14113W        W33647   6.783  16.155  14.676  0.2798 -0.0724 -0.1471
14114W        W33648   1.542   1.518  14.675 -0.3582  0.1536  0.0884
14115W        W33649  10.021  15.906  15.610  0.0185 -0.0082 -0.0452
14116W        W33650  15.772   2.982   1.319 -0.0598 -0.0679  0.2434
14117W        W33651   1.561   2.916   4.140 -0.1197  0.0678 -0.1124
14118W        W33652  12.699   7.372   4.789  0.1539  0.3513 -0.0287
14119W        W33653   4.512  15.430   2.110  0.0967 -0.1411 -0.0987
14120W        W33654   9.116  10.987   1.171 -0.2501 -0.1963  0.0624
14121W        W33655   9.420  10.286  16.439 -0.1654  0.2191  0.2870
14122W        W33656   7.775  14.803   2.513 -0.1858 -0.2364 -0.1493
14123W        W33657  16.807   5.127  13.843 -0.4434 -0.1826  0.1752
14124W        W33658  16.767  11.197  14.311 -0.0707 -0.0312  0.0348
14125W        W33659   6.398  15.076   3.178  0.1309 -0.0455  0.0947
14126W        W33660   9.058   2.930  13.353 -0.0035  0.1269  0.0239
14127W        W33661   6.296  15.445   2.207  0.1043 -0.0769  0.0351
14128W        W33662   7.411   2.052  11.544 -0.2184 -0.2075  0.1621
14129W        W33663  16.283   2.531   3.059 -0.0433  0.1508  0.1384
14130W        W33664   1.181   1.282  13.190 -0.1664 -0.0871  0.1727
14131W        W33665   9.585  12.682  14.013  0.2816  0.0522  0.2113
14132W        W33666   9.899   5.834  14.777 -0.0662  0.2692 -0.3083
14133W        W33667  11.575   4.471   4.669 -0.2376 -0.1568 -0.2938
14134W        W33668   5.864  13.881  16.611 -0.0281 -0.1991  0.1456
14135W        W33669   6.589   5.096  15.527  0.2077  0.0996 -0.0634
14136W        W33670  14.004  10.629  13.268  0.0335 -0.0553  0.1393
14137W        W33671   2.292   5.018  14.973 -0.3093  0.0066 -0.0976
14138W        W33672  16.762  11.329   6.060 -0.2260 -0.0324  0.1404
14139W        W33673  11.473   6.991   0.545 -0.1152  0.2997  0.1438
14140W        W33674   9.004  15.647   5.048  0.0816 -0.2078  0.2002
14141W        W33675   4.948   5.735   4.538  0.0253  0.4622  0.2841
14142W        W33676  10.510   3.838  16.950 -0.0552 -0.2170 -0.0887
14143W        W33677   9.495  13.904   3.112 -0.3913  0.1621  0.0174
14144W        W33678  12.982   8.143   1.360  0.0280 -0.1251 -0.1861
14145W        W33679   1.785   9.050   0.419 -0.0484 -0.0951 -0.0581
14146W        W33680   8.741   0.657  16.231  0.2457 -0.1563 -0.2405
14147W        W33681  14.021  16.009   4.793 -0.3789 -0.0636 -0.0205
14148W        W33682   8.544   9.427   2.420  0.1017  0.2109  0.1537
14149W        W33683   0.957   5.059   4.663 -0.0149  0.0704 -0.2573
14150W        W33684   5.543   5.536  13.226 -0.2147 -0.2400 -0.2677
14151W        W33685  14.857   2.943   3.358 -0.0719  0.0895 -0.1654
14152W        W33686  13.895  10.016  13.105  0.1776  0.1206  0.1804
14153W        W33687  14.889   9.070   4.486  0.0655 -0.0171  0.1208
14154W        W33688  10.120  15.527  14.162  0.0290 -0.1116 -0.1900
14155W        W33689   5.792  11.063   0.327 -0.1638  0.3841 -0.1828
14156W        W33690  11.781   1.460   2.365 -0.0091 -0.3527  0.0791
14157W        W33691  12.205   5.932   2.782  0.1769 -0.0920 -0.0688
14158W        W33692   6.113   8.726   3.654 -0.0154 -0.1364  0.1428
14159W        W33693   4.897   6.985   4.686 -0.1342  0.2262 -0.2200
14160W        W33694  13.157   4.380   1.238  0.0539  0.1924 -0.1305
14161W        W33695   9.590   0.851   4.931 -0.1204 -0.1241 -0.1870
14162W        W33696   4.133   2.691   0.449 -0.0053  0.3542 -0.2218
14163W        W33697  14.873   6.404  16.670 -0.0416 -0.0306  0.2374
14164W        W33698   1.601   5.376  17.025  0.1039  0.0519  0.1450
14165W        W33699   4.455  12.515   2.079 -0.2372 -0.0615  0.4415
14166W        W33700  14.732   0.003   0.788  0.0739 -0.1711 -0.1823
14167W        W33701   4.093  13.374   0.484  0.1344  0.1384  0.0298
14168W        W33702   0.765  10.492   4.239 -0.0537  0.0464  0.1213
14169W        W33703  15.517   3.982   2.308 -0.4712  0.0865 -0.0743
14170W        W33704  14.729   1.550   3.713 -0.1950  0.0721  0.1108
14171W        W33705   8.646  11.202   2.368  0.3342 -0.1094  0.2784
14172W        W33706   0.477  11.904   1.507  0.0171  0.0198 -0.1254
14173W        W33707  14.462   1.062   4.883 -0.0511 -0.2685  0.2486
14174W        W33708  13.044  11.048  12.114 -0.0599 -0.3703  0.0083
14175W        W33709  10.690   7.194  14.550 -0.0632  0.1469 -0.4143
14176W        W33710   0.037   3.702  16.440  0.0129 -0.0976 -0.1648
14177W        W33711   8.590   7.886  13.897 -0.3635 -0.2589  0.1738
14178W        W33712   6.594  13.189  14.139 -0.0311 -0.3368 -0.0644
14179W        W33713   3.470  16.479  15.247 -0.0547 -0.2222  0.2294
14180W        W33714   1.833   6.098   2.822 -0.0704  0.2214 -0.0251
14181W        W33715   1.869  12.892  17.027 -0.0390 -0.0111 -0.0404
14182W        W33716  15.169   3.029  14.971 -0.0816 -0.0802  0.0001
14183W        W33717   8.336  14.443  12.201  0.0481  0.0428  0.3215
14184W        W33718   6.129  15.272  14.961 -0.3187 -0.1642 -0.2595
14185W        W33719  16.585   0.837   1.995  0.1569 -0.1754 -0.0218
14186W        W33720  15.858   8.109   1.132  0.2304  0.0372  0.0166
14187W        W33721  14.723  17.404   2.883  0.0240 -0.0118  0.1567
14188W        W33722   7.527   5.517   2.418 -0.2420 -0.0784  0.0000
14189W        W33723   6.896  15.477  16.559  0.1048  0.1633  0.0550
14190W        W33724   0.089  17.158   4.250 -0.3779 -0.0686  0.0463
14191W        W33725   6.752   8.666   0.762 -0.2512  0.0637 -0.0478
14192W        W33726   6.803   5.263  16.825  0.0894  0.2745 -0.0834
14193W        W33727   7.157   3.354   2.411  0.0958  0.0353 -0.1285
14194W        W33728   5.558   4.383  14.187  0.0013 -0.0995  0.0808
14195W        W33729   2.904  14.663   0.837  0.0144  0.0790  0.2290
14196W        W33730   2.400   3.244   1.783  0.3501 -0.1070 -0.4746
14197W        W33731   2.008   8.353  13.798 -0.4103 -0.2019 -0.2756
14198W        W33732   8.550  15.590   3.614  0.1139  0.4879  0.0519
14199W        W33733  11.593   6.085  14.216  0.0435 -0.0944 -0.0662
14200W        W33734  10.960   9.999  16.883  0.1202  0.2465 -0.0220
14201W        W33735   8.542  10.785  14.413 -0.1934 -0.3937 -0.1179
14202W        W33736   4.621  13.940   1.104 -0.0369  0.2063  0.2091
14203W        W33737   0.132   0.824  15.904  0.2450  0.0205  0.2964
14204W        W33738   3.914   4.866   6.024 -0.1798 -0.2412 -0.0523
14205W        W33739   3.825   8.854   4.573 -0.2176  0.1168 -0.3162
14206W        W33740   3.134   1.670  14.090  0.2946 -0.0566  0.3358
14207W        W33741  17.112   4.993  16.840 -0.3816  0.2405 -0.3236
14208W        W33742  16.235  14.043  12.634  0.0929 -0.3967 -0.0305
14209W        W33743   8.901  13.224   4.813 -0.2428 -0.1010 -0.1563
14210W        W33744   4.883   6.697   2.154  0.2096 -0.0871  0.2133
14211W        W33745   5.205  14.515  12.311  0.1204  0.2556  0.0089
14212W        W33746  12.955   0.821   1.723  0.4126 -0.4714  0.0337
14213W        W33747  13.166   0.102  13.082 -0.0314  0.4228  0.0885
14214W        W33748   9.262  13.507   0.012  0.1332  0.1583 -0.5085
14215W        W33749  17.065  16.597  14.008  0.0595 -0.1655  0.2278
14216W        W33750  12.498  10.843   5.117 -0.1232 -0.1927  0.0085
14217W        W33751  15.888   2.819  15.503 -0.0228 -0.1198 -0.1944
14218W        W33752  16.460  10.509   2.529 -0.1111  0.1378  0.0422
14219W        W33753  14.444  17.186  12.768 -0.1095 -0.0999 -0.1835
14220W        W33754   9.567   7.765  13.795 -0.2765  0.0780  0.1492
14221W        W33755  16.360   0.486  12.504 -0.0279 -0.0284  0.0939
14222W        W33756  10.948  14.696   2.811 -0.0711  0.1179  0.1399
14223W        W33757  17.218  11.929  13.336 -0.1243 -0.1148  0.2336
14224W        W33758  16.957   5.769  14.360  0.2158 -0.2544 -0.0395
14225W        W33759   5.291  13.085  15.431  0.0455 -0.2141  0.2927
14226W        W33760   2.864   9.271  16.558  0.0425 -0.0766 -0.0544
14227W        W33761  11.258  15.639  12.049  0.0114  0.1541  0.1269
14228W        W33762   5.413   7.587   3.665  0.0537 -0.1374  0.0978
14229W        W33763  11.317  16.374   2.783 -0.0855 -0.1270  0.0464
14230W        W33764  15.606   8.389  15.927  0.2482  0.1345 -0.0603
14231W        W33765   6.750  11.273   0.668 -0.0882 -0.2287 -0.2038
14232W        W33766   3.744   9.262  13.031 -0.2658 -0.0968 -0.2992
14233W        W33767  14.588   7.450  16.277 -0.1411 -0.1006 -0.0493
14234W        W33768  16.652   8.197   2.052 -0.3498  0.2654  0.0151
14235W        W33769  15.977   7.646  16.494 -0.1770  0.1384 -0.0608
14236W        W33770   9.292   3.861  12.199  0.2221 -0.3185  0.1487
14237W        W33771   6.027   1.935   0.984  0.4480 -0.1794  0.1202
14238W        W33772   4.857  13.269   2.244 -0.0139  0.2283  0.2494
14239W        W33773  14.495  11.719  12.121  0.0347  0.3185  0.1800
14240W        W33774   6.769   9.433   2.015 -0.1442 -0.1692 -0.0154
14241W        W33775   9.675   3.690  13.959  0.0970  0.1211 -0.0806
14242W        W33776  10.189  15.886   3.740  0.1647  0.0235 -0.0476
14243W        W33777   5.754   4.147  13.777 -0.1182  0.1817 -0.1728
14244W        W33778  11.387  10.269   1.586 -0.0999 -0.1257 -0.0682
14245W        W33779  17.442   8.292   1.570  0.0573  0.0072  0.0508
14246W        W33780   8.385  13.140  14.796  0.2203 -0.2050 -0.0694
14247W        W33781   2.017   9.938  16.539 -0.2405  0.1451 -0.1448
14248W        W33782   1.793   4.262  15.199  0.0555  0.4219  0.3514
14249W        W33783  14.404   4.391   1.720 -0.1420  0.0130 -0.2593
14250W        W33784  11.282   2.047  12.781 -0.4440  0.2523 -0.3080
14251W        W33785   5.075  13.755   0.592 -0.1377  0.1561 -0.2088
14252W        W33786  15.420   3.548  12.441  0.0932 -0.0794 -0.0737
14253W        W33787  14.607   9.717   5.789  0.1149 -0.2519  0.1959
14254W        W33788   4.043   4.962   3.834  0.0391 -0.0561 -0.0787
14255W        W33789  14.779   5.261   2.497  0.1450  0.0629 -0.2411
14256W        W33790  17.282  13.961  15.070 -0.1418  0.2054 -0.2409
14257W        W33791   2.521   5.879  13.326 -0.0650  0.2026 -0.0291
14258W        W33792   5.281  10.462  14.222  0.1264 -0.1311  0.2002
14259W        W33793   0.050  10.498   1.029 -0.1168  0.3475  0.1069
14260W        W33794  15.882   2.256   0.325  0.1985 -0.1670  0.0053
14261W        W33795  10.244   6.514   1.214 -0.3477  0.1655  0.0114
14262W        W33796   1.861   1.552   3.622 -0.0289 -0.1390  0.0909
14263W        W33797   3.370   3.398  14.135 -0.2192 -0.2520  0.3480
14264W        W33798   8.284   2.581   0.342 -0.0113  0.2176 -0.1293
14265W        W33799   7.967  15.228   1.455 -0.0022 -0.2284 -0.0408
14266W        W33800  17.351   1.662   1.638  0.1672 -0.2406  0.3121
14267W        W33801   7.362   5.647  15.231 -0.0431  0.2141 -0.2534
14268W        W33802  13.913   6.693  14.629 -0.2143  0.0338 -0.3210
14269W        W33803   7.903   9.491  12.772 -0.5290  0.3554 -0.2954
14270W        W33804   3.862   1.465  11.519 -0.0132  0.1631 -0.0817
14271W        W33805  15.361  14.522   5.273  0.1880 -0.0188 -0.0541
14272W        W33806  16.863   2.873  15.840 -0.1241 -0.0581  0.1108
14273W        W33807  12.915   5.160  13.167  0.1699 -0.1073  0.1140
14274W        W33808   0.703  13.587  13.818 -0.0179 -0.1637 -0.2814
14275W        W33809   8.048   2.372   2.684  0.2005  0.0127 -0.3230
14276W        W33810  12.308  14.989  13.943 -0.1245  0.0659 -0.0795
14277W        W33811   1.117  13.145   0.042  0.1632  0.0379 -0.0304
14278W        W33812   5.503   0.997   4.617 -0.1058 -0.0570  0.1740
14279W        W33813   9.504   7.521  14.479  0.1127  0.0886  0.1523
14280W        W33814  15.388   0.710   0.993 -0.1819 -0.3476 -0.1974
14281W        W33815   4.234   7.094   2.770 -0.0615  0.0139  0.1333
14282W        W33816   7.039   2.139   1.668 -0.2931 -0.2030 -0.2957
14283W        W33817   3.522  17.417  15.283 -0.2557 -0.0651  0.3287
14284W        W33818   7.196  13.388  16.931  0.0727 -0.0853 -0.2164
14285W        W33819  14.106   2.437   2.104 -0.1166 -0.3788  0.1420
14286W        W33820   8.084   4.955  16.778 -0.2281  0.0074  0.1985
14287W        W33821  17.269   5.009  15.924  0.2532  0.2574  0.0024
14288W        W33822  16.598  13.808   4.815  0.3212 -0.0561 -0.1152
14289W        W33823  17.005   5.576  13.872 -0.3987  0.3240  0.1959
14290W        W33824   0.853   1.908   1.915 -0.0492  0.1054 -0.1699
14291W        W33825  12.065   1.361   0.725 -0.2064 -0.3354 -0.1393
14292W        W33826   2.634  10.466  14.012  0.6536  0.0115  0.1153
14293W        W33827  11.758  16.799  14.803 -0.4528 -0.2098 -0.1033
14294W        W33828  16.704   6.681   4.560  0.2502 -0.1593 -0.4253
14295W        W33829  14.931  10.894  13.023 -0.2255 -0.0797 -0.0947
14296W        W33830   6.692  10.996  13.965 -0.0371 -0.3065  0.1538
14297W        W33831   4.583  16.040  14.343 -0.0060 -0.0208 -0.0056
14298W        W33832   6.549   0.574  15.468  0.1608 -0.1991  0.1829
14299W        W33833   2.122   5.266  13.840 -0.2490 -0.3171  0.0238
14300W        W33834  11.337   5.239   3.554  0.0326 -0.2170  0.0463
14301W        W33835  12.865   4.331   0.761  0.0988 -0.1905  0.1188
14302W        W33836   6.966  13.791  13.032 -0.0845 -0.1843 -0.1136
14303W        W33837  14.938   9.361   2.667 -0.1798  0.0292 -0.0952
14304W        W33838   4.088   9.294   3.284 -0.1920 -0.1046  0.0069
14305W        W33839  12.818   4.977  12.110  0.0760 -0.1244  0.0276
14306W        W33840   5.640   9.530  13.022  0.0106 -0.1376  0.0611
14307W        W33841  14.556   3.170   4.789  0.1155 -0.1338  0.0292
14308W        W33842   7.487  17.565  15.705 -0.1487  0.3005 -0.0423
14309W        W33843   5.191   7.625   4.129 -0.1728 -0.1043  0.1079
14310W        W33844   9.511   1.649  14.961 -0.3830 -0.0215  0.0814
14311W        W33845   5.668   4.448   0.815  0.0133  0.1750 -0.0677
14312W        W33846   7.005   5.729   2.516 -0.1692  0.0368  0.0834
14313W        W33847   1.983  17.157   1.084  0.0119  0.1854  0.4406
14314W        W33848   5.357   5.144   1.572  0.1466 -0.0215 -0.1784
14315W        W33849   3.180   8.275  12.450 -0.1717  0.3664  0.0731
14316W        W33850  17.626  16.993  15.730  0.0073 -0.3339  0.0635
14317W        W33851   2.407   9.411  14.514  0.0390 -0.2348  0.0826
14318W        W33852  15.731   7.953  15.774  0.0579  0.0232 -0.1538
14319W        W33853   3.694   2.261  13.201 -0.1497  0.0979  0.4738
14320W        W33854  16.597   8.581  14.077 -0.0344  0.0557 -0.2124
14321W        W33855   5.417   3.699   0.970  0.3719 -0.1309 -0.0725
14322W        W33856   4.150   6.605  13.530  0.0487 -0.0531  0.2300
14323W        W33857  14.341   7.589  15.816 -0.0417 -0.0917 -0.1718
14324W        W33858   0.465   9.795  13.869  0.0587 -0.1852  0.4838
14325W        W33859  12.922  17.326   3.003  0.0600 -0.3088 -0.0354
14326W        W33860   3.749   5.671  13.238  0.0214 -0.1743 -0.0874
14327W        W33861   8.516   8.224  12.864  0.0331  0.1114 -0.0084
14328W        W33862  12.460   0.426   2.950 -0.1132 -0.2010  0.1052
14329W        W33863  10.359  17.260  12.815 -0.1028 -0.0296  0.1698
14330W        W33864   9.926   3.189  16.836 -0.0335 -0.0155  0.4290
14331W        W33865   7.253   2.911   1.629  0.3634 -0.1773 -0.1978
14332W        W33866  10.510  17.144   1.980  0.0889  0.0763 -0.1549
14333W        W33867   8.079   6.677  12.208 -0.0974  0.0259 -0.0386
14334W        W33868   8.337   3.128   2.577 -0.0014  0.1255  0.0471
14335W        W33869  11.096  16.085   4.302  0.3079  0.0895  0.0719
14336W        W33870   4.421  12.546   0.071  0.0475 -0.2282  0.1141
14337W        W33871   5.741   4.834   1.183 -0.0420 -0.0034  0.3073
14338W        W33872   5.591  17.433  15.444  0.1844 -0.2229 -0.1758
14339W        W33873  15.587   9.203  17.038  0.4467  0.1438  0.1501
14340W        W33874  15.346  13.011   3.545  0.1836 -0.1715 -0.0144
14341W        W33875   6.080  17.428  14.389  0.0083  0.0650  0.1215
14342W        W33876   8.129   1.686   2.150  0.1593  0.0727  0.0861
14343W        W33877  14.964  12.320  13.130  0.1666 -0.1019 -0.1398
14344W        W33878   5.864   5.571  16.114 -0.2450 -0.1075  0.4182
14345W        W33879  15.188   7.211   0.949  0.1034 -0.0372 -0.0291
14346W        W33880   7.588   7.170  15.108  0.0638 -0.2946  0.1245
14347W        W33881  15.680  10.691   2.379 -0.1610 -0.0931  0.2400
14348W        W33882  16.616  11.560  15.914  0.1733 -0.3946 -0.0189
14349W        W33883   7.855   9.083   2.030  0.1101 -0.0779 -0.0871
14350W        W33884  14.958  13.881   0.374 -0.0144 -0.1455 -0.1522
14351W        W33885   5.843  13.769   0.430  0.0761  0.0704  0.2514
14352W        W33886   7.172  16.115  16.589 -0.3660  0.3596  0.1225
14353W        W33887   9.889  14.462   1.343 -0.0776 -0.2207 -0.3090
14354W        W33888   1.579  13.215   2.082 -0.4184  0.0276  0.1080
14355W        W33889   9.176   8.483  13.726  0.3065  0.0359  0.1446
14356W        W33890   7.302  15.193  14.094  0.2770  0.0604 -0.1965
14357W        W33891   5.767   4.730   2.152 -0.0058 -0.2586  0.0428
14358W        W33892   5.445   5.910  12.841  0.2179 -0.0164 -0.0113
14359W        W33893   3.099   6.465   3.604  0.1743 -0.0138 -0.1242
14360W        W33894   7.222   1.695  12.514 -0.1993 -0.0275  0.0070
14361W        W33895  17.286  14.655   3.817 -0.2383 -0.1552 -0.0954
14362W        W33896   3.289   7.279   3.070  0.0767 -0.2144  0.1825
14363W        W33897  17.339  16.009   4.592  0.0367  0.0748 -0.1300
14364W        W33898  14.003   6.205   4.665 -0.1741 -0.0386 -0.1185
14365W        W33899  13.939   9.040  15.857 -0.1400 -0.2187  0.1507
14366W        W33900   2.491   7.773   3.502  0.1286  0.1401  0.0421
14367W        W33901  12.906  13.500   4.909 -0.0907 -0.1178 -0.1137
14368W        W33902  10.659  15.347  16.017  0.1075  0.0284 -0.1591
14369W        W33903   4.425  13.100  14.725  0.2146 -0.1189 -0.0251
14370W        W33904  13.144  16.247  13.575 -0.2973 -0.0192 -0.1502
14371W        W33905  16.129  17.483  12.868  0.0882  0.0127 -0.2656
14372W        W33906  16.315   6.985  15.384 -0.0053  0.0331  0.2304
14373W        W33907   6.469   5.957  14.137 -0.2479  0.0073 -0.1932
14374W        W33908   6.556  15.732  12.888  0.1822  0.1394  0.1283
14375W        W33909   9.942   9.775  15.792 -0.0667  0.0107  0.0704
14376W        W33910   2.876   9.509  14.661  0.0622  0.3463 -0.0981
14377W        W33911   0.550   0.705   2.160 -0.2231 -0.2675 -0.0640
14378W        W33912  16.318   1.789   2.046  0.1964 -0.3830  0.2121
14379W        W33913   4.681   4.787  13.915 -0.3806 -0.3694 -0.1401
14380W        W33914  13.964  17.102   1.705  0.2087 -0.1521 -0.1715
14381W        W33915  14.823  12.072   4.266  0.2576  0.0034  0.1519
14382W        W33916   8.684  17.640  14.696  0.0873 -0.0663 -0.1194
14383W        W33917  11.520  10.912   4.824  0.1230  0.1000 -0.1056
14384W        W33918  15.798  14.302  15.119 -0.2668 -0.3080  0.1946
14385W        W33919   5.968   6.449   3.536 -0.0340 -0.2134 -0.0043
14386W        W33920  11.049   1.446   3.965 -0.0375  0.2442 -0.2446
14387W        W33921   2.125   3.606  15.551  0.0449  0.0886  0.1930
14388W        W33922   9.375   8.847  16.028 -0.0253 -0.0781  0.0304
14389W        W33923   8.058  13.796  13.948 -0.0054  0.0643  0.3217
14390W        W33924   9.259   8.456   2.145 -0.0375  0.1221 -0.0104
14391W        W33925   3.783  15.228  14.001  0.0572  0.4149  0.2005
14392W        W33926   0.569   3.993   2.803  0.2717  0.2995 -0.2279
14393W        W33927  12.969  10.108   0.937  0.2372  0.4541 -0.0487
14394W        W33928  14.773   0.120   4.590  0.2642 -0.1349  0.0426
14395W        W33929  14.067  15.356  13.866 -0.3148  0.3533  0.1532
14396W        W33930   3.136   5.525   3.570  0.0641 -0.1066 -0.1327
14397W        W33931  13.433  16.911   1.862 -0.0594  0.1850  0.3131
14398W        W33932  13.620  13.637   0.360  0.1255 -0.3085  0.3960
14399W        W33933   4.121  16.370  13.011  0.0896  0.2482  0.0646
14400W        W33934  12.552   5.956   3.134  0.1198 -0.0013  0.0174
14401W        W33935  12.200   9.632   0.771  0.0528 -0.0174 -0.0012
14402W        W33936  16.037  10.452  16.917  0.0311  0.1771 -0.1403
14403W        W33937   8.957   4.958   1.965  0.1119  0.0746 -0.0687
14404W        W33938  12.685  12.717   2.555  0.0520 -0.2709 -0.0074
14405W        W33939  13.852  11.797  12.932 -0.0362 -0.0620 -0.2083
14406W        W33940   3.714   7.629   3.899 -0.1313  0.0505  0.1565
14407W        W33941  17.450   3.647  15.110  0.0525 -0.2681 -0.1240
14408W        W33942   8.225   6.127   0.586 -0.2936  0.0267 -0.0735
14409W        W33943   5.885  10.207   4.940  0.0246 -0.0183  0.1799
14410W        W33944   4.051   0.535   3.205 -0.0080 -0.0739  0.4159
14411W        W33945   5.614   3.535   1.391  0.0395 -0.0251 -0.1900
14412W        W33946  16.331   5.920   2.678  0.1330  0.0321 -0.0551
14413W        W33947   7.066  11.199  16.805  0.0129  0.1253 -0.2108
14414W        W33948   8.955  10.688   2.457 -0.1266 -0.1414  0.1739
14415W        W33949  15.809  10.742  12.340  0.1597  0.1140  0.3238
14416W        W33950  17.492   8.865  14.698  0.0868  0.2170 -0.0999
14417W        W33951   1.882  17.453  13.966 -0.0227 -0.0035  0.2599
14418W        W33952   8.646  17.625  17.066 -0.0429 -0.1964 -0.0338
14419W        W33953   6.149  14.302  13.775  0.0723  0.0262 -0.0717
14420W        W33954   5.562  11.783   2.064 -0.0464  0.0353 -0.2141
14421W        W33955   3.505   3.104  12.917  0.0364 -0.1984 -0.0294
14422W        W33956   6.968   4.204   3.795  0.0186 -0.2617  0.1236
14423W        W33957   5.377  14.889   1.099  0.0635  0.1403  0.3339
14424W        W33958  17.028   3.863   3.687 -0.0524 -0.1285 -0.2692
14425W        W33959   6.337   3.958  13.778 -0.2388  0.0316 -0.2197
14426W        W33960  16.943   8.607   0.820 -0.2279 -0.3001 -0.0612
14427W        W33961   4.168  17.314   4.336  0.3369 -0.3621  0.2329
14428W        W33962  10.053  14.227  15.834  0.1333 -0.0441  0.0279
14429W        W33963   2.477  15.580  13.109 -0.0191  0.3305 -0.0649
14430W        W33964  13.525   6.655   1.833 -0.1501  0.2333  0.0543
14431W        W33965  16.055   1.395   1.467 -0.1456 -0.1265  0.1012
14432W        W33966   5.050   2.923  13.857 -0.4173 -0.3211  0.0635
14433W        W33967   9.290  16.709   2.036  0.1993 -0.0382 -0.0770
14434W        W33968  13.443   9.366  16.874  0.0475  0.0956  0.1562
14435W        W33969   1.255  15.759  14.979 -0.1779  0.1362 -0.1419
14436W        W33970   5.923   4.524  14.527 -0.0014  0.0300 -0.0482
14437W        W33971   7.091  16.389   4.601 -0.4536  0.1379 -0.1700
14438W        W33972   1.630  14.436   0.752  0.2807  0.0605  0.3160
14439W        W33973  14.798   8.139  16.893  0.1364  0.0090  0.2456
14440W        W33974  16.491   2.424   2.618  0.0740 -0.0142  0.3544
14441W        W33975  13.150   5.280   2.251 -0.3914 -0.0495 -0.1855
14442W        W33976   0.463   8.345   5.061 -0.0577  0.3128 -0.0620
14443W        W33977   8.989  16.090  16.575  0.1313 -0.1799  0.1293
14444W        W33978   6.712   3.895   3.458  0.0987 -0.0956 -0.1884
14445W        W33979   3.999   1.740   2.417  0.1424  0.2417  0.0164
14446W        W33980   8.840   1.903   5.354  0.3617  0.0160  0.4109
14447W        W33981   1.140  12.245   3.438 -0.0594 -0.3533  0.1815
14448W        W33982  11.294   9.755   3.344 -0.2388  0.3315  0.0263
14449W        W33983  17.316   2.284  12.880  0.2712 -0.1175  0.0322
14450W        W33984  12.225   4.318   2.130 -0.2834 -0.0029 -0.1107
14451W        W33985  15.273  10.083   0.970 -0.2238 -0.1477 -0.0348
14452W        W33986   5.794   3.664   0.593 -0.2312 -0.0460  0.1266
14453W        W33987  16.833   1.419  12.567 -0.3719  0.0390  0.6328
14454W        W33988  14.867  16.630  16.484 -0.0162 -0.1237  0.1529
14455W        W33989   3.998   9.404  15.893  0.0111 -0.3361 -0.0525
14456W        W33990  13.372  11.095  15.470  0.0751  0.0932  0.2204
14457W        W33991   7.078   7.510   3.678  0.1379 -0.0457 -0.0168
14458W        W33992  13.531   5.827  13.378  0.0610  0.1023 -0.1108
14459W        W33993  13.112   9.871   4.356  0.1393  0.0333  0.3389
14460W        W33994   8.639   9.145  12.448 -0.2712 -0.1764  0.0499
14461W        W33995  13.333   5.072   4.150 -0.1793 -0.1169  0.2634
14462W        W33996   2.981   7.748  13.844 -0.1753  0.1679  0.0277
14463W        W33997   4.227  10.683  16.073 -0.2790  0.0917 -0.2096
14464W        W33998   9.967  15.636  12.381 -0.1994  0.0896  0.0555
14465W        W33999  16.272   4.911   5.233 -0.2544 -0.0588 -0.2551
14466W        W34000  11.879  12.536   0.946  0.3165 -0.3521  0.0252
14467W        W34001  10.181   2.226  16.502 -0.0259 -0.1367  0.0490
14468W        W34002  11.190   2.519   4.110  0.0612 -0.0845 -0.0275
14469W        W34003   8.586  11.504   1.318 -0.0079  0.0526  0.0262
14470W        W34004   3.572   6.579  11.690  0.2531  0.2780 -0.1616
14471W        W34005  16.397  15.499  14.812  0.5633 -0.2444 -0.0377
14472W        W34006   4.545   0.562   3.328  0.2906  0.3746 -0.2073
14473W        W34007   3.412   1.774  15.903 -0.2031 -0.1760  0.0862
14474W        W34008  10.667   3.507   2.827  0.0730 -0.3024 -0.1273
14475W        W34009   7.994  16.357   2.606 -0.1531 -0.2494  0.0175
14476W        W34010   4.392  17.163   2.584  0.0741  0.1316 -0.0974
14477W        W34011   9.178  15.695  15.353 -0.0623 -0.1195 -0.2158
14478W        W34012   9.848   8.791   3.788  0.1203  0.1061 -0.0461
14479W        W34013   6.883  14.235  13.805  0.2390  0.0288  0.4461
14480W        W34014   2.550  15.150   4.544 -0.1631 -0.1624  0.0358
14481W        W34015   5.176   5.223   4.624 -0.0258 -0.0106 -0.2805
14482W        W34016   8.179   9.800   4.420  0.0242  0.2595  0.0515
14483W        W34017  15.294  13.560   4.158 -0.1296  0.0226  0.1101
14484W        W34018   6.284   1.107  16.787  0.0251 -0.0124 -0.0681
14485W        W34019  14.573  12.693   5.036 -0.2874  0.1031 -0.0015
14486W        W34020  13.937   5.653  13.813 -0.2552  0.2107  0.0366
14487W        W34021  12.506   3.534   0.680 -0.0930 -0.0299 -0.0839
14488W        W34022   1.386   0.947  15.944 -0.2363 -0.3349 -0.1833
14489W        W34023  11.515  12.630  14.951  0.3146  0.0724 -0.1006
14490W        W34024  16.460  12.826   3.866 -0.1274  0.1229 -0.0673
14491W        W34025  11.923  17.000   2.769 -0.1382 -0.2234  0.2560
14492W        W34026   8.396   9.873   2.139 -0.0737 -0.4848 -0.1039
14493W        W34027  11.359   6.795   4.695  0.0478  0.0015  0.0597
14494W        W34028  11.544   6.048   4.351 -0.3345  0.1207 -0.2589
14495W        W34029  15.090   5.403  15.807  0.2935  0.3766 -0.1154
14496W        W34030  10.518   8.411  14.905  0.1044  0.0676 -0.0236
14497W        W34031   3.361   3.077   2.571  0.0596 -0.1006  0.1117
14498W        W34032  11.438  13.057   4.827 -0.2821  0.3172  0.1315
14499W        W34033   9.128  17.648  13.754  0.2761  0.0472 -0.0337
14500W        W34034   9.889   1.847  16.731  0.0176  0.1635 -0.0397
14501W        W34035   0.154   2.746   0.876 -0.0778 -0.1915  0.0513
14502W        W34036   1.456  16.804   4.351 -0.1437 -0.1407  0.2256
14503W        W34037   5.638   7.556  13.792 -0.0790  0.1561  0.3012
14504W        W34038  13.700  10.201   2.353 -0.0353  0.1836  0.0847
14505W        W34039   4.486   1.492   2.113  0.2503  0.2994  0.1563
14506W        W34040   7.877   5.175  13.997 -0.1914  0.0281 -0.0086
14507W        W34041   4.392   4.655   3.735 -0.1169  0.1289 -0.1321
14508W        W34042   2.467   9.912  16.243 -0.1749 -0.1909  0.0026
14509W        W34043  14.327  12.960   0.140  0.1044 -0.0359  0.2806
14510W        W34044  15.845  13.366  14.432 -0.1009  0.1371 -0.2355
14511W        W34045  11.548  11.897   1.292 -0.1091  0.0798  0.1445
14512W        W34046  11.196  12.712   3.972  0.1397 -0.1538  0.1907
14513W        W34047  14.047   3.217  13.892  0.1039 -0.0716  0.1411
14514W        W34048   9.464   1.920  16.364 -0.0681  0.2112 -0.0803
14515W        W34049   2.364  17.235  11.016 -0.3538  0.0205  0.1037
14516W        W34050   4.349   1.453  12.335  0.1562 -0.2972  0.2874
14517W        W34051   0.369  15.853   4.443  0.1254 -0.0492  0.1157
14518W        W34052   1.082  13.142   2.687 -0.1150  0.1327  0.1585
14519W        W34053   7.738   7.528  12.246 -0.0701  0.2404  0.3067
14520W        W34054   5.148   5.477  13.539 -0.1599  0.0013 -0.2551
14521W        W34055   8.786   8.346   3.885 -0.1300  0.1314  0.0006
14522W        W34056   5.757   9.637   0.507 -0.2221  0.0017  0.2298
14523W        W34057  12.555  13.508   0.371 -0.0221  0.1914  0.0493
14524W        W34058  13.692  13.906  14.793  0.1057  0.3633  0.1611
14525W        W34059   8.378   4.374   0.964 -0.0691  0.1989 -0.0038
14526W        W34060   5.783  10.037  16.665  0.0510  0.1122  0.1336
14527W        W34061   9.182   7.821   5.147 -0.0478  0.0107 -0.0341
14528W        W34062   9.236  14.182  12.015  0.0743  0.1249  0.0792
14529W        W34063   8.122  10.999  14.867  0.1518 -0.2666  0.1342
14530W        W34064  17.416  10.759   0.245 -0.1296  0.0776  0.1144
14531W        W34065   9.316   1.376   1.551  0.1204 -0.1688  0.0974
14532W        W34066   9.746   8.637  13.884 -0.1632 -0.1282 -0.2697
14533W        W34067   5.971  13.590  16.952 -0.2929  0.0892 -0.1249
14534W        W34068   1.431  12.032   4.138 -0.0455 -0.0353  0.1255
14535W        W34069  17.411  14.196   4.450  0.2261  0.2400 -0.2153
14536W        W34070   5.106   2.463  14.175 -0.0410 -0.0152 -0.3916
14537W        W34071  17.536   7.026   2.511 -0.0355 -0.0418 -0.0261
14538W        W34072   1.565  10.295   2.116 -0.2968 -0.0158  0.2482
14539W        W34073  15.379  11.801  16.501 -0.0523  0.1325 -0.1228
14540W        W34074   0.136  17.493  12.125  0.1239 -0.3064 -0.0040
14541W        W34075   2.502   7.073   2.622  0.1694  0.0183  0.3487
14542W        W34076  11.868   6.255   4.002 -0.4095 -0.0325  0.3173
14543W        W34077  13.621  13.226   1.981 -0.1544 -0.0956  0.1300
14544W        W34078   4.791   0.071   3.178 -0.0352 -0.0236  0.3176
14545W        W34079  16.551  13.173  14.889  0.0254  0.1187  0.0938
14546W        W34080  16.200  17.310   4.295  0.0146  0.0835  0.3533
14547W        W34081  14.467   4.383  15.879 -0.1019  0.1213  0.3024
14548W        W34082   5.256   3.944  13.886  0.1104 -0.1191  0.4100
14549W        W34083   2.065   7.657  15.448 -0.1574 -0.1071 -0.1374
14550W        W34084  14.926   8.490  12.298 -0.0234 -0.2091 -0.1467
14551W        W34085  11.483  11.630   4.339 -0.1446 -0.0875  0.1117
14552W        W34086  17.263   1.706   4.733  0.1713  0.2945 -0.1019
14553W        W34087  15.415   2.633  12.856  0.2260 -0.1998  0.3875
14554W        W34088  13.000  14.821  15.961 -0.0822 -0.1081  0.0835
14555W        W34089  13.063   1.507   1.936 -0.0658 -0.4760  0.0407
14556W        W34090   6.000   0.078   1.746 -0.0061  0.3066 -0.1233
14557W        W34091  17.610   8.592   4.847 -0.0949  0.0912  0.0965
14558W        W34092   3.437   2.963   1.658  0.2562 -0.0873 -0.0397
14559W        W34093   3.653   0.587  15.103  0.1426  0.1199 -0.1449
14560W        W34094  14.250   9.924   1.739 -0.0698 -0.2135  0.3782
14561W        W34095   4.117   4.209   3.634 -0.2598 -0.3021  0.2011
14562W        W34096   3.724   6.707   4.398  0.1036 -0.0488  0.4275
14563W        W34097   8.797   1.053   5.710  0.1721  0.2049  0.1145
14564W        W34098  11.402   6.451  16.758  0.4820  0.1572  0.0356
14565W        W34099   0.331  12.722  16.401 -0.1668  0.2100  0.1383
14566W        W34100   9.576  11.357  13.664  0.1088 -0.0604 -0.2952
14567W        W34101   4.237  16.367  13.463 -0.0855 -0.0655 -0.1051
14568W        W34102  16.548  10.453   4.556  0.0373 -0.2240  0.2138
14569W        W34103   1.788  13.776  14.105 -0.0113 -0.1475  0.2719
14570W        W34104   3.282   7.995   0.029 -0.0059 -0.0334 -0.1261
14571W        W34105   8.325   9.537   3.334 -0.0232  0.3897  0.1175
14572W        W34106   1.751  16.188  13.369 -0.2790 -0.0934 -0.1302
14573W        W34107   4.000   5.890   1.544  0.1313 -0.2524  0.0134
14574W        W34108  16.502  12.779  15.220 -0.1127  0.0705  0.2232
14575W        W34109  12.244  12.866   4.760  0.2186 -0.2619 -0.2073
14576W        W34110   1.132   2.942   2.934  0.1494 -0.1419  0.0122
14577W        W34111   8.903   7.721  15.704 -0.0269 -0.1866 -0.7166
14578W        W34112   9.067  15.891   0.972  0.0143 -0.0058  0.0009
14579W        W34113  17.120   4.921   3.222 -0.0102  0.0156  0.1408
14580W        W34114   5.839   0.189  12.349 -0.0409 -0.0132  0.2065
14581W        W34115   1.547   2.344  15.542 -0.1884  0.1339 -0.2158
14582W        W34116  14.054   7.700   1.084  0.0650 -0.2940  0.0703
14583W        W34117  15.280   8.739  16.837 -0.0842 -0.1745 -0.3661
14584W        W34118  11.349  15.348   3.741 -0.0174 -0.1090  0.1624
14585W        W34119  10.907  12.425   3.662 -0.0104  0.1239 -0.2579
14586W        W34120  13.590   3.111  15.622 -0.2972  0.0279  0.0891
14587W        W34121   0.935   1.732  15.222 -0.1260 -0.2340 -0.2438
14588W        W34122  14.175   2.234  15.525 -0.2181  0.0664  0.0477
14589W        W34123   8.173   7.473   2.997  0.0603 -0.0550 -0.2093
14590W        W34124   7.227   9.547   2.550  0.3373  0.1629  0.1850
14591W        W34125   6.156   3.461   2.372 -0.1586  0.0273 -0.0865
14592W        W34126  12.780   4.813   5.100 -0.1122 -0.0143 -0.1847
14593W        W34127  10.803  14.019   0.383  0.1769  0.3417 -0.1929
14594W        W34128  14.039   7.849  15.061  0.0604 -0.0426  0.0837
14595W        W34129  17.667   6.405  13.058  0.1754 -0.0648  0.3491
14596W        W34130   5.202   0.014  15.275 -0.2138 -0.1471 -0.1098
14597W        W34131   3.255   3.060   0.279  0.1206 -0.3128 -0.3289
14598W        W34132   9.927  14.420  13.451 -0.0112 -0.2335 -0.0817
14599W        W34133   8.841  17.380   4.858  0.1437  0.2076  0.0541
14600W        W34134  11.036   3.292  13.172  0.2755 -0.0840  0.0218
14601W        W34135  16.740  13.116   4.232 -0.0898  0.3500 -0.0025
14602W        W34136   7.661  13.716  14.896 -0.0441  0.0381 -0.0561
14603W        W34137  16.625   6.734  15.610 -0.3315 -0.3044 -0.0999
14604W        W34138   6.573  11.481  11.320  0.0436 -0.1579  0.0967
14605W        W34139  10.246   0.844   3.587  0.3840  0.0348  0.2412
14606W        W34140  14.224   8.788  16.661 -0.3029 -0.2022  0.1285
14607W        W34141   9.419   2.101  13.116 -0.1724  0.0704  0.0490
14608W        W34142  12.279  13.885   5.679 -0.0122  0.1076  0.0994
14609W        W34143   0.996  11.464   4.037  0.0621 -0.0351  0.2087
14610W        W34144   0.406   5.166  13.488  0.0804 -0.0898 -0.0667
14611W        W34145  13.551   7.343  15.449 -0.2304 -0.0741  0.0365
14612W        W34146   2.814   8.711   4.551  0.0368  0.0742  0.2410
14613W        W34147  13.391   7.787   4.121 -0.0812  0.2685 -0.0640
14614W        W34148  13.426  16.531   4.658 -0.0353 -0.3780  0.1356
14615W        W34149  14.670   7.135  12.303 -0.0205 -0.0744 -0.1713
14616W        W34150   7.215   5.580   1.437  0.0204 -0.2276  0.0963
14617W        W34151   5.862   0.586  15.010  0.1318 -0.1322  0.2583
14618W        W34152   6.768   2.505  16.212 -0.1766  0.0150  0.2430
14619W        W34153   4.880   4.759   0.983  0.2052  0.3811 -0.0199
14620W        W34154   7.064  13.461   0.849  0.0296  0.2883 -0.2929
14621W        W34155  17.463  10.415  13.681  0.0030 -0.0171  0.1213
14622W        W34156   4.352   5.300  16.466 -0.0091  0.2716  0.0795
14623W        W34157  11.836   3.257  16.775 -0.0006  0.0877  0.0325
14624W        W34158   0.667   6.214   4.520  0.0520  0.1576 -0.1613
14625W        W34159  13.413  17.201   3.264 -0.2301  0.2713  0.2747
14626W        W34160   1.981  13.871   3.833 -0.2517  0.2459  0.1758
14627W        W34161   9.877   5.439   1.395  0.2276  0.0071 -0.2941
14628W        W34162   5.767   8.797  15.667  0.0599 -0.0705 -0.1813
14629W        W34163   7.526   6.486  15.150  0.2180  0.0763 -0.0079
14630W        W34164  11.614   7.162   3.511 -0.0926  0.1406 -0.2923
14631W        W34165  12.708  11.365   1.948 -0.0486 -0.0880  0.3379
14632W        W34166  13.405   1.378   3.494  0.1252 -0.0487  0.0578
14633W        W34167   0.926  17.000   4.525 -0.2629  0.0047  0.0906
14634W        W34168   8.597  17.423  12.683  0.0700  0.0032  0.0110
14635W        W34169   6.951  17.119  15.101 -0.0402 -0.1052 -0.3833
14636W        W34170   4.978   7.645   0.420  0.1701 -0.0339  0.0375
14637W        W34171  13.315  11.231  16.219  0.0042  0.0126 -0.2496
14638W        W34172  11.135   5.619   1.524 -0.4687  0.1365 -0.0226
14639W        W34173   9.508   2.493   0.308  0.0172  0.0223 -0.2010
14640W        W34174  16.688   9.216   3.747  0.0642 -0.1061 -0.2491
14641W        W34175  15.843  12.380   1.865 -0.0134  0.1968  0.2519
14642W        W34176   5.614  16.467  13.664  0.1187  0.1337  0.3054
14643W        W34177  17.631   3.502   4.559 -0.1134 -0.0783  0.1595
14644W        W34178   7.867   3.501  16.365 -0.0186 -0.0939 -0.1538
14645W        W34179  17.203  13.655  12.559  0.0450 -0.1008  0.0637
14646W        W34180  17.539  17.489  16.158  0.0419 -0.1608 -0.1665
14647W        W34181   5.205  11.016   3.866  0.1610  0.0413 -0.2561
14648W        W34182  13.191   9.747   1.599  0.0927 -0.2281 -0.4145
14649W        W34183   3.295   5.994   0.785  0.1347  0.1868 -0.0696
14650W        W34184  14.027  15.001  13.475 -0.0716  0.1666 -0.2001
14651W        W34185   6.348  17.587  13.847 -0.0627 -0.2290 -0.0301
14652W        W34186  10.933   1.020   1.310  0.0127  0.2160 -0.0815
14653W        W34187   0.372  13.876   2.810 -0.0454 -0.0947 -0.0125
14654W        W34188  17.111   1.820  14.732 -0.1240 -0.0579  0.1168
14655W        W34189   4.513   2.841   2.616  0.1721 -0.0982 -0.1228
14656W        W34190  12.201   5.071  16.414 -0.3699 -0.1420 -0.1163
14657W        W34191  13.557   6.353   0.837 -0.1941 -0.1962 -0.0181
14658W        W34192   1.378  17.426  13.746  0.0189 -0.0112  0.2395
14659W        W34193   5.242  13.171  14.953  0.1035 -0.1715 -0.1066
14660W        W34194   0.572   4.143  12.324  0.2541 -0.1169 -0.1165
14661W        W34195   4.164  14.065   1.386  0.0694  0.0917  0.2772
14662W        W34196   6.910  17.527   1.608 -0.2998 -0.0312 -0.1440
14663W        W34197  15.471   6.327   5.049  0.0885 -0.0335  0.1376
14664W        W34198  12.543  12.336  15.354 -0.2041  0.0697  0.0835
14665W        W34199   9.081   3.978   4.465 -0.0832  0.0603  0.1417
14666W        W34200  15.823  13.936   1.880 -0.0380 -0.2900 -0.1185
14667W        W34201   1.482   3.506   2.259 -0.0794 -0.3449  0.0639
14668W        W34202   4.377   3.318   3.951  0.1597 -0.1128  0.1441
14669W        W34203   7.456  15.699  14.730  0.0260 -0.0108  0.1067
14670W        W34204   9.265   5.540   3.684 -0.3161  0.0099  0.2044
14671W        W34205   5.441   0.865  13.756 -0.0926 -0.0156 -0.2658
14672W        W34206   2.339   1.912  15.605  0.1973  0.0961  0.0219
14673W        W34207   0.253   7.219   1.062 -0.2476 -0.3347  0.0392
14674W        W34208   8.376   3.482  15.649  0.2229  0.5552  0.3423
14675W        W34209  13.296   6.786   1.000 -0.0899 -0.2633 -0.0279
14676W        W34210   4.035   2.523   0.902  0.1648  0.1997  0.1717
14677W        W34211   4.768   2.023   0.579  0.1645  0.3958 -0.0330
14678W        W34212   9.624   5.729   3.079  0.0434 -0.1820 -0.0616
14679W        W34213   0.441   9.662   4.758  0.0399  0.1549 -0.0976
14680W        W34214   0.428  10.182   4.991  0.3128 -0.0045  0.2588
14681W        W34215  15.751  12.036  13.671  0.1221  0.2657  0.1902
14682W        W34216  12.742  10.302   2.112 -0.1471 -0.0740  0.1756
14683W        W34217  17.257  16.749   1.186  0.2258 -0.1305  0.3302
14684W        W34218  17.592   3.331  14.768 -0.3129  0.0481 -0.0135
14685W        W34219   3.458   0.666   3.913  0.0496  0.0147  0.2054
14686W        W34220   0.633   9.538  14.344  0.2260 -0.0333  0.1469
14687W        W34221   6.113  10.954  16.396  0.3334 -0.0744  0.0548
14688W        W34222  12.659   1.522   4.807 -0.0388  0.0619 -0.1234
14689W        W34223  12.343   1.011  16.476  0.1889 -0.3979 -0.0685
14690W        W34224  14.944  17.581   3.299 -0.1205 -0.2517 -0.2633
14691W        W34225  14.487  16.261  16.489 -0.0645  0.2796  0.0643
14692W        W34226   8.852   3.792  16.317  0.1426 -0.2298  0.3840
14693W        W34227   9.069  11.523   3.087 -0.1215 -0.2429  0.0049
14694W        W34228  14.208  16.746  12.752 -0.1116 -0.2437  0.1106
14695W        W34229   6.775   7.196   2.636 -0.0756 -0.0829  0.1853
14696W        W34230   4.874   0.114  15.780  0.0151 -0.1710  0.0219
14697W        W34231   3.670   1.637  12.363 -0.4087  0.1425 -0.0395
14698W        W34232  12.257   7.717  15.292  0.0186  0.2052  0.0628
14699W        W34233  10.281   0.981  16.428 -0.0026  0.0240 -0.1254
14700W        W34234  14.540  10.444  14.660 -0.2397  0.0069 -0.1162
14701W        W34235  14.183   5.821  15.566  0.1222  0.0728  0.0192
14702W        W34236   6.998  15.956   1.907 -0.0290  0.1929  0.0140
14703W        W34237  14.358   8.154   0.227  0.0314  0.2622  0.0373
14704W        W34238  11.270  10.432  17.054  0.2851  0.0707 -0.1455
14705W        W34239   3.071  12.459   3.215  0.2603 -0.0996  0.2071
14706W        W34240   7.033   8.526  15.228 -0.0310  0.1226 -0.2615
14707W        W34241  16.044   5.487   4.895  0.0906 -0.0994  0.1521
14708W        W34242   4.638  10.545  13.483 -0.2162  0.5995  0.0904
14709W        W34243  15.680   5.201   1.246  0.1046 -0.4108 -0.4385
14710W        W34244  11.491   3.263   2.267 -0.1324  0.0642 -0.2375
14711W        W34245  10.658   4.554   3.998 -0.0681  0.0077  0.0356
14712W        W34246   8.664  13.684   2.993  0.2498 -0.1471  0.0466
14713W        W34247   9.372  15.439  13.878  0.0224 -0.0633  0.0047
14714W        W34248  11.463   9.112  12.400 -0.2260 -0.0449  0.1759
14715W        W34249  12.751  15.080  16.251  0.0305  0.1689  0.1421
14716W        W34250  17.112   3.396   1.060  0.1866 -0.4147  0.1256
14717W        W34251  11.347   9.939  16.440  0.3515 -0.0093 -0.1036
14718W        W34252   8.960  14.453   0.775  0.0105 -0.1154 -0.2263
14719W        W34253  12.140  13.809   0.432  0.3014  0.0247  0.1594
14720W        W34254  17.664  13.047   3.777 -0.3298  0.0237 -0.0091
14721W        W34255  16.936   4.887   0.986 -0.2391 -0.2562  0.1054
14722W        W34256   2.957  12.054   4.183 -0.1314 -0.1005 -0.1567
14723W        W34257  17.585  11.833  16.053  0.3333 -0.1673 -0.1104
14724W        W34258  17.572   4.370  14.401  0.0415 -0.0617 -0.3551
14725W        W34259   9.425  14.457   3.240 -0.1755 -0.1457 -0.1494
14726W        W34260  11.051   6.910  15.295 -0.0996 -0.0008 -0.2789
14727W        W34261  14.588  15.195  14.869  0.0244 -0.0643 -0.2342
14728W        W34262   9.504  15.457   5.268 -0.1082 -0.0201  0.2066
14729W        W34263  13.210  13.256  13.584 -0.1821  0.1184  0.3853
14730W        W34264  13.292   8.356  12.783 -0.2483  0.2046  0.1114
14731W        W34265  17.108  17.309  16.350  0.0561 -0.0908  0.0527
14732W        W34266   1.400   3.950   4.310  0.1648  0.1439  0.0762
14733W        W34267  16.154  17.438   4.758  0.1607  0.1198 -0.1010
14734W        W34268   1.602   8.955  12.735 -0.1188  0.1339 -0.0169
14735W        W34269  17.099   2.669  13.250  0.0233  0.0220 -0.2656
14736W        W34270   0.063   5.352  13.792  0.0685  0.0245 -0.2274
14737W        W34271   9.029   8.507   4.463 -0.0768 -0.1990  0.0712
14738W        W34272   3.585  15.602  16.670 -0.2083 -0.0058  0.0218
14739W        W34273   9.515   1.482   0.012 -0.1534  0.1080  0.2077
14740W        W34274  13.899  10.212   3.970 -0.2210 -0.2129 -0.2407
14741W        W34275   2.802  12.923   2.887  0.2714 -0.5157  0.0098
14742W        W34276   2.439   4.421   3.337 -0.0928 -0.2187  0.0695
14743W        W34277   8.701   2.135  16.807  0.2348 -0.1785 -0.2370
14744W        W34278   8.736  14.459  16.785 -0.2861  0.2440  0.1757
14745W        W34279  14.983   9.393  12.076 -0.2469  0.0717 -0.0777
14746W        W34280  10.006   2.560   0.372  0.0213  0.0613 -0.0619
14747W        W34281   4.565   9.169   3.103 -0.0663  0.0714  0.0141
14748W        W34282  14.898  13.609  14.075  0.1074  0.5094  0.1465
14749W        W34283   2.278   5.532   2.067  0.0037 -0.1789 -0.0251
14750W        W34284  16.318   4.220  15.793  0.2197 -0.0311  0.1389
14751W        W34285  16.228  13.632  15.152 -0.0791  0.0678  0.2244
14752W        W34286   3.049   7.253   0.530 -0.0447  0.0547  0.1694
14753W        W34287   6.933  12.182   0.844 -0.0874  0.1779 -0.1351
14754W        W34288   0.881   9.986  15.630 -0.1047  0.0234  0.0857
14755W        W34289  11.297   5.540   5.370  0.1246  0.2252 -0.3327
14756W        W34290  14.436  10.630  12.362  0.1258 -0.0292  0.0143
14757W        W34291   2.403  11.636  14.792 -0.1580 -0.5140 -0.0707
14758W        W34292  14.181   3.870  16.949 -0.1245  0.0102 -0.1303
14759W        W34293   8.520  14.743   0.791 -0.0515  0.0255 -0.0248
14760W        W34294  16.356   4.301   5.630 -0.3232 -0.1010  0.3635
14761W        W34295  13.217   1.497   3.061 -0.0362  0.0168 -0.0271
14762W        W34296  14.328  10.474  13.775  0.2791  0.0239  0.0026
14763W        W34297  12.955  15.757  14.984  0.1889 -0.3172 -0.0037
14764W        W34298   6.336   6.519   3.191  0.1087 -0.3217 -0.1907
14765W        W34299   7.931   0.654   3.202  0.0535 -0.0348 -0.0642
14766W        W34300  14.899  10.047  13.148  0.2904 -0.0391 -0.2192
14767W        W34301  14.871  10.967  15.066 -0.1372  0.0512  0.1775
14768W        W34302  10.533   0.792  11.939 -0.1159  0.0197 -0.1726
14769W        W34303   1.596   3.984   3.432 -0.0980  0.0333  0.2851
14770W        W34304  14.737  12.254  14.786  0.0965  0.3686 -0.2616
14771W        W34305  12.692  13.146   5.401 -0.1220 -0.0185 -0.1290
14772W        W34306  13.401  15.748  14.363  0.0626  0.0435  0.0763
14773W        W34307  13.400   9.726   1.111 -0.2766 -0.0103  0.0172
14774W        W34308  17.662  14.611   4.367  0.1931 -0.0917  0.0733
14775W        W34309   9.570   0.925   2.282 -0.1841  0.1197 -0.0983
14776W        W34310  17.482  14.080   2.099  0.4255 -0.0900 -0.0072
14777W        W34311   8.752  10.631   1.290  0.2814 -0.1110 -0.0113
14778W        W34312   8.956  15.388  11.974  0.3140 -0.2556  0.2373
14779W        W34313   8.677   7.217   0.986 -0.1353 -0.0319 -0.1056
14780W        W34314  17.451  12.812  11.763 -0.1374 -0.3335  0.0479
14781W        W34315   0.159   3.826  15.989 -0.0171 -0.0351  0.1065
14782W        W34316  15.014   5.548   4.878  0.0859  0.1502  0.0643
14783W        W34317  10.351  12.756  12.952 -0.0800  0.0293  0.1602
14784W        W34318  13.241  17.421  15.472  0.0615  0.0492 -0.1699
14785W        W34319  10.026   8.664   3.240 -0.2252 -0.1221  0.2435
14786W        W34320  10.985  15.739  16.222 -0.1868  0.1467 -0.1493
14787W        W34321   9.690   6.723  14.783 -0.1002  0.1606 -0.1297
14788W        W34322   8.106   2.692   1.855  0.4977  0.2415  0.3124
14789W        W34323   2.955  13.388  14.457  0.0212 -0.2546 -0.0272
14790W        W34324   0.446   8.114   5.504 -0.2220  0.3581 -0.1209
14791W        W34325   7.266   7.868   2.377  0.1884 -0.2146  0.2743
14792W        W34326   0.411  14.826  15.702  0.0370  0.1310  0.0982
14793W        W34327  15.013   2.343  15.648 -0.0015  0.0798  0.3429
14794W        W34328  17.445   6.923  12.900  0.0438  0.1623 -0.0905
14795W        W34329  11.711   3.914   2.990  0.0196 -0.1006 -0.1660
14796W        W34330   4.746   4.424   2.121 -0.0591  0.1883  0.2125
14797W        W34331  16.569  15.623  12.933 -0.0860 -0.1247  0.0779
14798W        W34332   5.119   4.252   3.243 -0.3610 -0.1605  0.1395
14799W        W34333   1.639   1.072   2.228 -0.2395 -0.2620  0.2038
14800W        W34334   6.206   3.418  16.334  0.1309 -0.2974 -0.1905
14801W        W34335  11.887   8.396  12.194  0.3326  0.1917 -0.0860
14802W        W34336   1.850  10.510   3.724 -0.4155  0.0036 -0.0477
14803W        W34337  12.284   8.528   0.812  0.3002  0.1614 -0.0306
14804W        W34338  16.628  13.262   2.311  0.0704  0.0999 -0.1371
14805W        W34339   4.871  14.415  11.970  0.0948  0.1077  0.0161
14806W        W34340   1.857  16.021  16.988 -0.2055  0.0276  0.1015
14807W        W34341   9.946  16.058  14.023 -0.0383  0.0459 -0.2546
14808W        W34342   2.719   3.149  12.413 -0.2608  0.5210 -0.3683
14809W        W34343   2.595   7.830  16.520  0.1916  0.1262  0.0758
14810W        W34344   9.654   8.025  15.575 -0.0558  0.1468  0.0962
14811W        W34345   8.905   5.930  14.008 -0.0069  0.0345  0.2069
14812W        W34346  14.425   2.826   3.621  0.1775  0.2294 -0.0693
14813W        W34347  16.547   7.832   4.504 -0.0097 -0.1010  0.1043
14814W        W34348   0.577   4.915  16.338 -0.0518 -0.1969  0.0803
14815W        W34349   1.212  15.821   0.436 -0.4579 -0.0256  0.1493
14816W        W34350   3.447   0.174   4.239 -0.0786  0.1627  0.1563
14817W        W34351  16.415   3.870   1.361  0.3053  0.2359 -0.0481
14818W        W34352  12.926   9.720  15.370 -0.0392 -0.1928  0.0863
14819W        W34353  14.485   0.334  14.270 -0.0893  0.1946  0.2705
14820W        W34354  13.232   3.419  15.487 -0.0148  0.1583 -0.2159
14821W        W34355   1.501  17.128   1.308  0.0976 -0.0154 -0.1852
14822W        W34356  15.015  10.236   3.173 -0.2159 -0.0801 -0.0789
14823W        W34357   7.099   1.405  12.980 -0.2129  0.2329  0.0821
14824W        W34358  14.653   6.658  15.831  0.0613  0.0851 -0.0371
14825W        W34359  12.940   7.088  14.930 -0.0997 -0.2186 -0.0294
14826W        W34360  10.318   7.617   2.927  0.1172  0.3440 -0.0895
14827W        W34361   3.470   0.363  13.626  0.0853 -0.2162  0.1310
14828W        W34362   9.937  16.276  16.518  0.0801  0.1130  0.2144
14829W        W34363  14.970  10.200   3.754 -0.0652  0.3277 -0.1019
14830W        W34364   5.757   8.961   3.212  0.2128  0.0506 -0.0814
14831W        W34365   1.356   9.311   1.746  0.1184 -0.1423 -0.1163
14832W        W34366   3.867  16.987   6.098  0.0794 -0.4074  0.1009
14833W        W34367   1.179  12.495  11.812  0.2530  0.1734 -0.0819
14834W        W34368  12.376  15.061  15.314  0.2228 -0.1312  0.2531
14835W        W34369   9.444   7.482  15.062 -0.1751 -0.0965 -0.3383
14836W        W34370   0.447   4.866   0.896 -0.4076  0.1985 -0.0916
14837W        W34371   2.608  16.451  16.539 -0.0916  0.0340  0.1101
14838W        W34372   9.426   2.883  16.929  0.0006 -0.0927  0.1929
14839W        W34373  11.057   7.644  14.546  0.0823 -0.3316  0.2307
14840W        W34374  11.225  15.936   2.461 -0.0688 -0.2564  0.1337
14841W        W34375  10.141   8.555   2.008 -0.2072  0.1143  0.0314
14842W        W34376   9.162  15.003   0.385 -0.0500  0.1465  0.1781
14843W        W34377  16.609   3.305  15.296  0.3109 -0.0193 -0.3721
14844W        W34378  10.982   2.273  15.795 -0.4244 -0.2274 -0.0879
14845W        W34379  10.577   9.647  14.420 -0.2124  0.2612 -0.0832
14846W        W34380   7.872  17.088   3.809  0.0289 -0.0814  0.0497
14847W        W34381  11.535  17.249   3.685 -0.2891 -0.2206 -0.1993
14848W        W34382  16.243  11.644  16.322 -0.2823  0.0581 -0.0631
14849W        W34383   9.732   5.210  14.700  0.2637  0.0011  0.1005
14850W        W34384   8.042   2.308   0.036 -0.1456  0.0796 -0.0003
14851W        W34385  13.595   0.469  13.362  0.2098  0.2244  0.2386
14852W        W34386  11.507  11.400   6.164  0.0022 -0.0339  0.0702
14853W        W34387  12.479   4.880  13.401  0.1449  0.0065  0.0699
14854W        W34388   2.343   3.272   2.328  0.0000 -0.0721  0.0327
14855W        W34389  13.428   9.816   2.485  0.0825  0.1107  0.2067
14856W        W34390  16.679  10.169  13.018  0.1359 -0.2545 -0.3296
14857W        W34391   8.018  17.375  15.289 -0.0489  0.0801  0.1548
14858W        W34392   7.791   2.261  15.871 -0.0918  0.3335  0.4117
14859W        W34393   5.852  14.820   0.922  0.0712 -0.1274 -0.0145
14860W        W34394  12.573   2.616   2.395  0.1034  0.0027  0.0004
14861W        W34395  12.534   4.448  14.576 -0.0945  0.3296  0.0444
14862W        W34396  14.475  16.949   4.762 -0.4271  0.0186  0.1381
14863W        W34397  16.829   6.406   4.972  0.1282  0.0089 -0.2926
14864W        W34398   0.363  11.169   4.607  0.2964  0.1944  0.1029
14865W        W34399   6.382   3.768  14.525  0.3993  0.1646  0.0777
14866W        W34400   7.554   0.126  14.881  0.1797 -0.0802  0.0074
14867W        W34401  11.558   4.435   5.271  0.1445  0.2728  0.0096
14868W        W34402  15.638   1.523   3.674  0.0147  0.0931  0.3033
14869W        W34403  16.239   1.226   4.985  0.2012 -0.1787  0.0244
14870W        W34404   0.354  12.966   3.347  0.0706 -0.1063 -0.0551
14871W        W34405   9.984   4.711  13.075 -0.1808 -0.0363 -0.2001
14872W        W34406  17.458  16.777  13.195 -0.5146 -0.1422  0.1654
14873W        W34407   5.558   1.456  14.657  0.0948 -0.0496 -0.2219
14874W        W34408   6.975   1.249  14.947 -0.1817 -0.0319  0.1546
14875W        W34409   9.138  11.382   0.083 -0.1886  0.1745 -0.0763
14876W        W34410   1.725   4.969  13.818  0.0485  0.0595  0.2581
14877W        W34411  10.233  15.290  12.193 -0.2199 -0.0698  0.2117
14878W        W34412  11.285   8.682  12.474  0.0215  0.2839 -0.0208
14879W        W34413  15.723  11.898  15.673 -0.1977  0.0395 -0.0817
14880W        W34414   2.196   3.470   5.202  0.2091 -0.0453  0.1601
14881W        W34415   8.960  10.787   0.772 -0.1263  0.0464 -0.0586
14882W        W34416   0.610  14.817  14.069  0.1817 -0.0968  0.1170
14883W        W34417   8.023   3.387   4.778 -0.0937 -0.0119 -0.0186
14884W        W34418  12.861  14.854  13.261 -0.2171  0.0024  0.2725
14885W        W34419   7.128   7.058   1.150  0.0403  0.1501  0.2368
14886W        W34420  17.094   1.237  16.095  0.0597  0.0444  0.0942
14887W        W34421   0.456   5.397   4.630  0.1364 -0.1477 -0.0298
14888W        W34422   3.673   1.603  16.330  0.0571 -0.2540 -0.0892
14889W        W34423  11.331   0.718   4.923 -0.0167  0.1695 -0.2693
14890W        W34424  15.256  17.585   4.785 -0.1482  0.0206 -0.3298
14891W        W34425   2.444  12.036   4.189  0.0336  0.0866  0.0220
14892W        W34426   3.270   0.039   0.522 -0.2320 -0.3529 -0.0794
14893W        W34427   5.524   1.822  14.986 -0.3046 -0.2816 -0.2819
14894W        W34428  11.387   3.025  12.481  0.2522  0.0616  0.0784
14895W        W34429   3.442   0.184   1.283  0.3798 -0.1808  0.0284
14896W        W34430   8.482  11.078   3.948 -0.0752  0.2208 -0.0570
14897W        W34431  10.900  10.228   2.696 -0.3845 -0.0349  0.0901
14898W        W34432   1.563   3.747  16.935  0.1548  0.0689  0.3513
14899W        W34433   6.576   7.508  16.701 -0.0582 -0.0303 -0.1409
14900W        W34434   7.391   1.705   2.752 -0.0057 -0.0221 -0.1401
14901W        W34435  15.760   3.902  16.233  0.0179 -0.1510 -0.1444
14902W        W34436   8.363  11.128  16.681 -0.2100  0.0466  0.2213
14903W        W34437  16.777  14.288  15.805  0.3363  0.0453  0.2541
14904W        W34438  17.308   3.473   2.461  0.1667  0.1403  0.1506
14905W        W34439  14.489   2.178   0.874  0.1377 -0.1477  0.0038
14906W        W34440   0.191   8.154   0.892  0.1236  0.0259  0.0366
14907W        W34441  17.137  12.931  14.980  0.0368 -0.1231  0.0225
14908W        W34442   5.687  17.585   2.163  0.3054  0.1744  0.1917
14909W        W34443   8.513  11.271  14.566  0.0342 -0.3329 -0.2124
14910W        W34444   7.223   9.146   4.771  0.0742 -0.2225 -0.0932
14911W        W34445   6.395   4.608  12.268 -0.1724  0.1589 -0.3584
14912W        W34446  11.216  10.818  13.452  0.2380  0.0247 -0.1525
14913W        W34447   2.528   4.070  14.145 -0.0304  0.2502  0.2942
14914W        W34448   1.023   9.127  12.801  0.0374 -0.2217  0.0921
14915W        W34449   9.909  14.952   3.989 -0.3857 -0.1568  0.0317
14916W        W34450  15.723   8.540   1.829 -0.2712 -0.0995 -0.1050
14917W        W34451   4.096   8.694  14.741  0.1697  0.0548 -0.2329
14918W        W34452  12.850  15.586   3.646  0.1894 -0.2147  0.0056
14919W        W34453   1.367  12.001  14.285 -0.3284 -0.1232 -0.2664
14920W        W34454   1.901   7.217  15.653 -0.0170  0.4060  0.0033
14921W        W34455   7.161   9.953   4.439  0.1026 -0.0087 -0.0044
14922W        W34456  17.144  11.429  16.330 -0.2039  0.1307 -0.0948
14923W        W34457  10.384   4.356   1.236  0.2051 -0.1120  0.2160
14924W        W34458   6.142   4.916  14.314 -0.1206 -0.2312  0.0593
14925W        W34459   9.439  17.060   2.459  0.1782  0.2930 -0.0940
14926W        W34460  14.307   9.423   3.826  0.1197 -0.0005  0.1230
14927W        W34461   7.078   6.051  14.136  0.2221  0.2889 -0.0687
14928W        W34462   0.833   5.910  14.327 -0.0475  0.3380 -0.1161
14929W        W34463  15.484   1.008   3.728  0.2499  0.0040  0.0923
14930W        W34464   3.922   4.018  12.826 -0.1267 -0.1115 -0.0343
14931W        W34465   9.379   0.330   4.214 -0.2075 -0.0134 -0.1450
14932W        W34466  17.608   6.256  16.289 -0.1781 -0.0596  0.1888
14933W        W34467   8.146   1.338  15.716  0.0071 -0.1356 -0.1783
14934W        W34468   0.581  15.186   2.821  0.0632  0.0366  0.0940
14935W        W34469  12.513  16.199   2.583 -0.0487  0.0975 -0.2160
14936W        W34470   1.236  13.586  13.930  0.1190 -0.1270 -0.2504
14937W        W34471   7.316  11.969  17.051 -0.0416 -0.0374  0.0903
14938W        W34472  13.450   7.776   2.657  0.1154  0.1916 -0.0389
14939W        W34473  15.354   8.147   0.983 -0.1924  0.0050  0.0205
14940W        W34474  13.978  10.368  12.758  0.0132  0.1108  0.1554
14941W        W34475   2.681   6.969  15.892 -0.2241 -0.0467 -0.2069
14942W        W34476   6.910  10.204  16.682  0.0427  0.1942  0.2605
14943W        W34477  17.438   1.222   2.043 -0.1841  0.0398 -0.1072
14944W        W34478  13.168  17.497   2.053 -0.2594 -0.0039 -0.1223
14945W        W34479  14.911  16.188   2.312  0.2033 -0.0083 -0.0339
14946W        W34480   3.077  17.047  13.566  0.2346  0.0223  0.0297
14947W        W34481  10.481   3.197  12.953  0.0957  0.3346 -0.1303
14948W        W34482   3.195  14.206   1.407 -0.2388 -0.0345  0.1338
14949W        W34483  14.213   9.926  13.794 -0.2874 -0.0819 -0.1434
14950W        W34484   8.305  10.189   1.679 -0.2526 -0.0001  0.0555
14951W        W34485   2.241  11.150   3.207  0.1190  0.0174  0.1279
14952W        W34486   7.975   2.806  16.993  0.0933  0.0883 -0.1900
14953W        W34487   6.970  10.695  14.231  0.1527  0.3016  0.0882
14954W        W34488   1.040  10.195  14.414  0.0627 -0.2947  0.2324
14955W        W34489  15.128   1.332   4.431 -0.2173 -0.2687  0.0349
14956W        W34490   8.552   5.727   5.158  0.3048  0.2934  0.1014
14957W        W34491  14.744   4.445   2.755 -0.0787 -0.1393 -0.1819
14958W        W34492  15.150   0.956  12.628 -0.2893 -0.3728 -0.1369
14959W        W34493   4.110  14.834   3.970 -0.1613  0.0245  0.2200
14960W        W34494  13.008  13.334  14.071  0.0366  0.0782 -0.0342
14961W        W34495  14.987   7.015  15.476 -0.0155 -0.5175  0.3539
14962W        W34496  16.241  16.122   0.386 -0.2041 -0.0812  0.0030
14963W        W34497   1.838   9.187   1.211 -0.0027 -0.1705  0.0559
14964W        W34498  12.679  12.045   3.668 -0.2090  0.0276  0.1673
14965W        W34499   8.778   0.889   1.866  0.1225 -0.3439 -0.0176
14966W        W34500  14.302   5.287   0.625  0.0831  0.1411  0.1328
14967W        W34501  16.374   2.574  14.313  0.0614  0.0239 -0.0255
14968W        W34502   2.945  16.147   3.967 -0.0095 -0.1080 -0.3534
14969W        W34503   7.231  12.311   1.194  0.0772  0.0673  0.1075
14970W        W34504   6.864   8.062   3.747  0.1587  0.0316  0.0845
14971W        W34505  13.213  12.649  13.755 -0.0250 -0.1826  0.1848
14972W        W34506   8.292   9.648  15.258  0.0132  0.1367  0.0002
14973W        W34507  14.263   2.152  13.842  0.2319 -0.2629 -0.0191
14974W        W34508  14.567  17.208   1.129  0.1715  0.0777 -0.2094
14975W        W34509   3.717   6.403  13.627  0.5925  0.2270 -0.1244
14976W        W34510  11.559   0.286  12.662 -0.2325 -0.1568 -0.1396
14977W        W34511   0.419   5.967   1.693 -0.0740  0.0134 -0.1750
14978W        W34512  12.763  13.103   0.821 -0.4542  0.0120 -0.2745
14979W        W34513   2.279  13.017  13.447  0.1683  0.0560  0.1704
14980W        W34514   6.470   2.027   4.959 -0.0232  0.0445  0.2138
14981W        W34515  16.414  13.335  16.432 -0.0209 -0.1251 -0.0083
14982W        W34516   7.535  16.793   3.508  0.0589 -0.1187  0.0122
14983W        W34517   0.532  16.298   4.212  0.2528 -0.0924 -0.0913
14984W        W34518  14.988   7.948   1.317  0.3832 -0.0329  0.1114
14985W        W34519   0.187   4.901   2.013 -0.0665  0.0726  0.1522
14986W        W34520   8.611   0.021  16.545  0.1736 -0.0887 -0.2858
14987W        W34521   7.442  10.242   3.040  0.0514 -0.1555 -0.1647
14988W        W34522   9.606   9.625  14.313 -0.1013  0.0331 -0.2155
14989W        W34523  11.267  10.113  13.844  0.2404 -0.1260 -0.0906
14990W        W34524  11.645  10.343   4.837  0.2978 -0.0295  0.0193
14991W        W34525  14.460   4.852  16.400 -0.2948  0.1029  0.0936
14992W        W34526  12.857   9.153   4.931 -0.1192  0.0440 -0.3670
14993W        W34527   9.761   5.632   4.881  0.0625  0.0916 -0.0039
14994W        W34528   4.734   4.474  15.634  0.3341  0.0814 -0.1974
14995W        W34529  17.115  16.827   2.602 -0.0156 -0.0649  0.2433
14996W        W34530   0.742   0.073   1.726  0.0335 -0.2476 -0.0020
14997W        W34531  17.617   1.471  13.978 -0.0166 -0.0091  0.2318
14998W        W34532  16.253   4.622   4.337  0.0011 -0.0010  0.1805
14999W        W34533  16.300   0.770   5.961 -0.0606 -0.2418  0.1364
15000W        W34534   4.621  16.716  14.392  0.0203  0.2333 -0.3488
15001W        W34535   0.100  11.117  13.857  0.0214 -0.0949  0.2423
15002W        W34536   6.446   8.508  16.291  0.3220  0.1035  0.0518
15003W        W34537  16.426   0.312  15.491  0.0528  0.1181  0.1533
15004W        W34538  12.908   8.294   0.898 -0.2386  0.0037 -0.1075
15005W        W34539   3.694   1.359   1.325 -0.1146  0.2264  0.2343
15006W        W34540   6.986   9.607  13.494  0.1298  0.2029 -0.2585
15007W        W34541   6.179   7.910   4.050  0.0550 -0.4388 -0.0395
15008W        W34542   7.894  13.510   3.752  0.3077 -0.0994 -0.0597
15009W        W34543  11.286   5.048   1.761  0.1990  0.2180  0.1723
15010W        W34544   1.114   0.722   3.800 -0.1458 -0.0106 -0.4698
15011W        W34545   8.151  15.895   0.683 -0.1422  0.1223 -0.0749
15012W        W34546   5.172  17.657   3.486 -0.1125 -0.1810 -0.1923
15013W        W34547  12.880  16.925  16.239  0.0505 -0.1128 -0.0865
15014W        W34548   1.462  10.277   3.501  0.3711  0.0759 -0.0406
15015W        W34549   1.269   1.456  12.309 -0.0590  0.2041 -0.0029
15016W        W34550  11.735   2.490   1.055  0.1962  0.2706 -0.1557
15017W        W34551  17.216   2.655   0.165  0.4283 -0.2745  0.2902
15018W        W34552   4.462  11.897   0.843  0.0246  0.1984  0.1559
15019W        W34553  15.713   4.226   6.341  0.1246  0.2225 -0.1576
15020W        W34554  16.292  15.157   1.523 -0.1660 -0.0687  0.0845
15021W        W34555   7.141   5.141  12.424 -0.0174  0.1877 -0.1821
15022W        W34556   8.833   2.579   3.974  0.0132  0.3134  0.1259
15023W        W34557  17.583  16.990  16.215 -0.0125  0.2773  0.0079
15024W        W34558   4.450   3.862  13.102  0.4337 -0.1621 -0.1004
15025W        W34559  13.577  10.869  14.187  0.2321  0.2400  0.0319
15026W        W34560   9.226  13.915   0.362  0.4440  0.1103  0.1814
15027W        W34561   5.327   0.107  12.408 -0.1352 -0.1861  0.4530
15028W        W34562   1.342  11.469   0.231 -0.1171  0.3040  0.2081
15029W        W34563  16.856   8.477  12.346  0.0929 -0.1133 -0.0733
15030W        W34564   7.304  10.780   2.287  0.1040 -0.0762 -0.3705
15031W        W34565   1.620   3.787  15.520  0.1771 -0.0980  0.3152
15032W        W34566   7.637  15.356   2.624 -0.2707  0.0638 -0.0654
15033W        W34567   3.995  14.892  13.672 -0.0057 -0.2863 -0.0479
15034W        W34568  11.090  12.164   4.702  0.0501 -0.2035  0.0097
15035W        W34569   2.993   8.509  13.681 -0.2193  0.1182  0.0075
15036W        W34570   7.435   2.357   0.941 -0.2919 -0.0210  0.2119
15037W        W34571   9.803   3.413   4.353 -0.0210 -0.1255 -0.2650
15038W        W34572   5.123   1.512   2.803  0.2494  0.0993  0.0903
15039W        W34573  14.535  16.139  14.318 -0.0793 -0.0289  0.1882
15040W        W34574  13.460   5.220   0.894 -0.2475 -0.0896  0.2266
15041W        W34575  10.336   0.487  15.706 -0.3382 -0.0101  0.2523
15042W        W34576   2.683   2.122  12.855 -0.2166  0.0113  0.2158
15043W        W34577   3.608  16.122  14.461  0.1483  0.2249  0.0072
15044W        W34578  16.073   4.569  16.922  0.3185 -0.2475  0.0964
15045W        W34579   4.364   0.440   3.944 -0.5342 -0.0290  0.0935
15046W        W34580   5.102  10.661  14.839  0.0739  0.3065 -0.1122
15047W        W34581  11.543  15.488  14.058  0.1122 -0.3615 -0.2423
15048W        W34582  10.581   2.211  12.150 -0.0125 -0.0582 -0.0399
15049W        W34583  14.425  16.367   2.445 -0.1780 -0.1013  0.0478
15050W        W34584   3.550   5.090  15.750  0.1323 -0.1135 -0.1424
15051W        W34585   9.368  13.769  13.403 -0.1060  0.0063 -0.0823
15052W        W34586   8.200  15.001   2.719  0.1459  0.3899 -0.0832
15053W        W34587   9.015   9.667   1.341  0.0399 -0.0061  0.4192
15054W        W34588   0.755   3.465  14.418  0.2407 -0.1110  0.1169
15055W        W34589   8.120  13.169  16.245  0.0929 -0.0207  0.1770
15056W        W34590  14.327   4.610  15.471 -0.4328 -0.0247 -0.0774
15057W        W34591   4.596   4.500   0.600  0.0330 -0.1103  0.0804
15058W        W34592   1.285   3.700  13.553 -0.1158  0.0251  0.2574
15059W        W34593   0.859   8.059  13.350  0.0183  0.3483  0.0575
15060W        W34594   0.719   4.471   3.731 -0.2702  0.1027  0.2424
15061W        W34595  15.070  13.364   0.611  0.3193  0.1679 -0.0363
15062W        W34596  13.285   2.643  15.729  0.0327  0.0475  0.0636
15063W        W34597  17.611   0.586  14.454 -0.1288  0.1923  0.1365
15064W        W34598   7.028   2.060   1.031  0.1744 -0.0680 -0.3914
15065W        W34599   5.996   5.758  15.135  0.0522  0.0907 -0.0959
15066W        W34600  10.281   3.192  14.933  0.3299 -0.0141 -0.0767
15067W        W34601   3.666   3.150   4.718 -0.4511  0.0666 -0.0355
15068W        W34602   8.165  14.435   2.983  0.1058  0.1412  0.1367
15069W        W34603   6.717  14.793   0.655  0.0214  0.3237  0.1160
15070W        W34604   9.995  14.390  12.500 -0.1265 -0.1434  0.1542
15071W        W34605   3.241   7.641  15.306 -0.1148 -0.2716  0.1958
15072W        W34606  16.887  12.297  14.990 -0.2282  0.0127  0.0753
15073W        W34607  17.654   4.347   1.918 -0.0456 -0.0064 -0.2533
15074W        W34608   5.004   4.445  12.447 -0.0282  0.4968  0.0122
15075W        W34609   3.669   4.830   2.407 -0.0675 -0.0445  0.3389
15076W        W34610  16.669  16.001  13.927  0.3206 -0.0951 -0.2931
15077W        W34611   9.187   0.529   3.065 -0.0406  0.0813  0.1416
15078W        W34612  17.618  10.157   0.054  0.1427  0.2245  0.0807
15079W        W34613  15.975  15.330   3.804  0.2152 -0.0284  0.0735
15080W        W34614   1.356   6.218  16.419 -0.1139  0.2959 -0.0369
15081W        W34615   1.273  14.657  12.498 -0.1120  0.2057 -0.1514
15082W        W34616   1.155   9.157  16.029 -0.0902  0.1052  0.1502
15083W        W34617   4.052   7.842  12.994  0.2156 -0.2893  0.0685
15084W        W34618   4.354   1.215   0.772  0.0182 -0.0340 -0.1047
15085W        W34619  10.233  14.693  11.436 -0.3051  0.0529 -0.2106
15086W        W34620   9.127   3.871  15.254  0.3017 -0.1542 -0.2660
15087W        W34621   0.626  11.842   0.728 -0.0729  0.1440  0.2007
15088W        W34622   5.248   9.693   0.176 -0.0195 -0.0277  0.0090
15089W        W34623   7.447   5.137   2.082 -0.2966 -0.0465  0.0924
15090W        W34624   9.558   1.479   2.190  0.2485 -0.0003 -0.2978
15091W        W34625   6.419   5.426   4.515 -0.0904  0.1542  0.0029
15092W        W34626  10.230  16.551   0.223  0.3343  0.0266 -0.1507
15093W        W34627  14.184   9.192  14.301 -0.0745 -0.2345  0.0759
15094W        W34628  13.017  17.151   4.160 -0.0088 -0.3532 -0.0202
15095W        W34629   6.785  10.542  14.753  0.0180 -0.1837  0.1572
15096W        W34630   1.651  10.055  15.976  0.1780  0.1498 -0.1168
15097W        W34631   8.252   8.681   2.762 -0.3914  0.0704  0.4171
15098W        W34632  16.440   3.676   2.209 -0.0609  0.1399  0.0460
15099W        W34633   3.938   2.448  13.587 -0.1536  0.0539  0.2360
15100W        W34634   4.472   0.591  15.477  0.0664  0.0466 -0.2093
15101W        W34635  11.516   6.402  14.957 -0.1392  0.2574 -0.0685
15102W        W34636   5.717   6.906   0.013  0.2913  0.0198  0.0919
15103W        W34637  10.032   8.765   0.913  0.1329  0.4294  0.0023
15104W        W34638   1.129  14.650   0.620 -0.1996  0.0554  0.1762
15105W        W34639  17.565  12.983  14.050 -0.0629 -0.1019  0.0326
15106W        W34640  10.062  15.551   0.419  0.1281  0.2746  0.2931
15107W        W34641  14.435  12.900   0.595  0.3039  0.3284 -0.1412
15108W        W34642   6.799   4.958  12.173  0.2294  0.0716 -0.0835
15109W        W34643  16.676  16.094  12.964  0.0347 -0.0840 -0.0984
15110W        W34644  15.667   1.018   0.742  0.0265 -0.2691 -0.0979
15111W        W34645   5.721  12.684  11.324 -0.3530  0.1286  0.0656
15112W        W34646  16.063  14.860   2.298  0.2757 -0.3439 -0.0542
15113W        W34647   7.650   5.305   1.566 -0.2456 -0.0075 -0.1110
15114W        W34648  14.895   6.233   2.535  0.0329  0.0215 -0.0988
15115W        W34649  11.567  10.942  15.862 -0.2215  0.1902 -0.0952
15116W        W34650  16.470   9.465  14.191  0.1475  0.1284  0.1083
15117W        W34651  10.966  16.715  14.184 -0.1006 -0.2228 -0.1377
15118W        W34652  13.499   1.005  15.352  0.0034  0.3928  0.1410
15119W        W34653   4.112  16.243  14.631  0.0093  0.1074  0.0475
15120W        W34654  15.001  13.516   2.039 -0.2241 -0.0244 -0.1601
15121W        W34655  11.481  12.155   4.322 -0.2159  0.2433  0.1022
15122W        W34656   5.771  12.126  14.062  0.0264 -0.1059 -0.0954
15123W        W34657  14.385  14.018  16.319 -0.0460 -0.0618 -0.3986
15124W        W34658   9.946  10.278   0.140 -0.3315 -0.1296 -0.0564
15125W        W34659   2.918   2.278   1.057 -0.0264  0.0597 -0.1447
15126W        W34660  11.874  14.822   1.370 -0.0376  0.0522 -0.2462
15127W        W34661   5.838   8.372   4.295 -0.0502  0.2455  0.0488
15128W        W34662   5.177   3.420   0.618 -0.2093 -0.0181  0.0030
15129W        W34663   2.480  14.150  12.700  0.1725  0.0710 -0.0659
15130W        W34664  10.754   4.213   3.055 -0.1646  0.0146 -0.0421
15131W        W34665   5.523  16.433  12.864  0.2653  0.0760 -0.0800
15132W        W34666  10.324  13.221  16.722 -0.2041  0.2663 -0.0817
15133W        W34667  16.993   8.464  13.754  0.1570 -0.2293 -0.1050
15134W        W34668   1.076   1.143   4.605 -0.1856  0.3965  0.0332
15135W        W34669  10.787   5.147   1.834 -0.0451 -0.0715 -0.2718
15136W        W34670  13.239  16.259   1.105 -0.0740  0.0503  0.0149
15137W        W34671   6.630   1.118  16.245  0.1314 -0.0587  0.0188
15138W        W34672   5.207   0.580   0.571  0.0593  0.0717  0.2327
15139W        W34673   3.085   4.008   4.893 -0.1947 -0.1525 -0.4428
15140W        W34674   2.886  14.940   4.852  0.0393 -0.1993 -0.0653
15141W        W34675  15.932  14.877   4.670 -0.1282  0.2603  0.3830
15142W        W34676   5.487  14.623   0.530 -0.2077  0.1585  0.3312
15143W        W34677   1.042  10.637   3.165 -0.0247 -0.2523  0.2611
15144W        W34678   3.855  16.948  15.264 -0.0107  0.0747  0.0269
15145W        W34679   6.515   8.616   0.300  0.4369 -0.3423 -0.1534
15146W        W34680  15.682   2.061  13.739  0.0060 -0.1454 -0.1164
15147W        W34681  14.106  14.869  16.599 -0.2317 -0.4003  0.0159
15148W        W34682   9.072   7.255  14.292  0.1209  0.2199 -0.2980
15149W        W34683   6.856  11.404  14.261  0.3522  0.1013 -0.1096
15150W        W34684   5.808   8.619   4.853 -0.2204  0.2121  0.1323
15151W        W34685  10.001  14.442  16.488  0.1749 -0.1651  0.0813
15152W        W34686   2.200   6.259  12.756  0.1310  0.0871  0.1268
15153W        W34687   3.011  14.257   4.644 -0.0613 -0.0533  0.1099
15154W        W34688   0.697  16.759   4.007  0.1181  0.0485 -0.1818
15155W        W34689   9.478   4.787  13.070 -0.2054 -0.3718 -0.1076
15156W        W34690   1.307   4.261  15.536 -0.3141  0.3539  0.0715
15157W        W34691  15.729   7.352  12.916 -0.0764  0.1907  0.0366
15158W        W34692  14.618  17.656  13.380 -0.1016  0.0853  0.4436
15159W        W34693  13.745   8.997  14.240 -0.0927  0.3265 -0.2280
15160W        W34694   2.617  16.976  13.527  0.2429 -0.1063 -0.0203
15161W        W34695  17.001   6.464  16.853  0.1244  0.2025  0.1718
15162W        W34696  17.668   9.543   1.457  0.2412 -0.0157 -0.3660
15163W        W34697   3.586  17.639  13.221  0.2990 -0.2426 -0.1845
15164W        W34698  17.576   9.646  15.862 -0.0869 -0.1924 -0.0311
15165W        W34699   4.336  15.759  16.201 -0.0227 -0.0369  0.4394
15166W        W34700   8.138   4.587   1.494 -0.0396 -0.2971 -0.0876
15167W        W34701  10.002  13.122  12.052 -0.0918 -0.0470 -0.0070
15168W        W34702  11.329  16.106  16.298  0.0617  0.0867 -0.0264
15169W        W34703  13.584  17.047  17.025  0.0255  0.2470  0.3654
15170W        W34704   1.798   9.987   2.763  0.1830 -0.0581  0.0053
15171W        W34705  10.606  15.804  14.768 -0.2203  0.4954 -0.1326
15172W        W34706  15.131  13.295  12.702  0.0666 -0.0361  0.1742
15173W        W34707  12.246  10.640   4.239 -0.1480 -0.3523 -0.2735
15174W        W34708   6.708   4.927   1.494 -0.3480  0.0760  0.0024
15175W        W34709  17.591   4.614   4.042 -0.0778 -0.2317 -0.0774
15176W        W34710   9.683   0.817  13.990  0.2629  0.1967  0.0967
15177W        W34711   6.436   6.303   4.164  0.2131  0.0259  0.0206
15178W        W34712   2.678   7.983   0.598 -0.1005  0.0347 -0.0277
15179W        W34713   7.307   7.189   2.829 -0.1521  0.1813  0.0052
15180W        W34714   0.880  16.148  16.011  0.2796  0.1059  0.1041
15181W        W34715  14.609   1.764  14.754 -0.0392 -0.1701 -0.2093
15182W        W34716   5.350  16.065   1.476  0.0268 -0.1533 -0.0023
15183W        W34717  14.600   3.384   2.690 -0.3018  0.1379 -0.1836
15184W        W34718   2.303   8.049  13.396 -0.1163  0.0954  0.0385
15185W        W34719  13.672   7.529   3.305  0.2142  0.1603  0.0054
15186W        W34720  15.794  13.814  13.885  0.0370  0.3395  0.0200
15187W        W34721   7.621   5.331   3.738 -0.1018  0.3206 -0.0699
15188W        W34722  14.416   6.160  12.653  0.1995  0.2334 -0.1304
15189W        W34723  10.300   4.926  14.634  0.3941 -0.1952 -0.0016
15190W        W34724  10.670   5.482   3.046  0.0853  0.2528  0.0123
15191W        W34725  10.489  11.558  15.197 -0.1928  0.3554  0.2345
15192W        W34726   0.456   1.666   5.157 -0.0297  0.1921  0.0168
15193W        W34727   7.789   4.277  13.706  0.0585 -0.0433  0.0331
15194W        W34728   6.892  14.602   4.758  0.1910 -0.1827 -0.1372
15195W        W34729  13.697  13.543   2.878  0.0973 -0.2633 -0.2643
15196W        W34730  14.663   7.095  12.942  0.2823  0.2765  0.1455
15197W        W34731   6.525  15.319   2.676  0.1894  0.2397  0.0433
15198W        W34732  13.392   4.067   3.687 -0.1272  0.0275 -0.2798
15199W        W34733   4.234  14.430   1.939  0.2475 -0.0821  0.0319
15200W        W34734  15.618   4.440   2.174  0.2750 -0.0801 -0.0613
15201W        W34735  14.531   3.970  12.677 -0.1977 -0.0779  0.0092
15202W        W34736   5.930   8.240  16.623  0.2192  0.1830  0.0281
15203W        W34737   5.570   5.406   2.730 -0.1106  0.0485 -0.3414
15204W        W34738   6.654  15.863  15.908  0.0198 -0.0061  0.1461
15205W        W34739   4.308  12.070   1.814 -0.1813  0.3982  0.0044
15206W        W34740  12.381  15.025  12.488 -0.0935 -0.0699  0.0904
15207W        W34741   0.498   3.550  16.221  0.1903  0.1996 -0.0722
15208W        W34742  12.214   2.031  16.604 -0.0330  0.1263  0.0241
15209W        W34743   0.139   1.679   3.164 -0.0186 -0.1723  0.0109
15210W        W34744   0.304  10.508  15.589 -0.0030  0.2300  0.3578
15211W        W34745  14.041   9.497  15.825  0.2482 -0.1402 -0.0437
15212W        W34746  12.877  16.212   1.486 -0.1772 -0.0543  0.0939
15213W        W34747   2.242   1.644   5.349 -0.0145  0.2036 -0.0939
15214W        W34748   3.781   2.478   4.007 -0.0426 -0.0153 -0.1023
15215W        W34749  12.232  15.607   2.797 -0.2912  0.2888  0.1612
15216W        W34750   9.162  14.420   0.139  0.1460 -0.2246 -0.0687
15217W        W34751   1.252  17.483   4.834 -0.3194 -0.0300 -0.0211
15218W        W34752   5.372   8.025   3.906 -0.3204 -0.1515 -0.1270
15219W        W34753   5.642   9.147   0.337  0.0443 -0.0978  0.3477
15220W        W34754   3.615   8.549   4.183  0.1708  0.0297  0.0621
15221W        W34755  10.190   3.453   3.040 -0.2117  0.0290  0.0844
15222W        W34756   0.713   8.764   0.437  0.0115  0.1390  0.1284
15223W        W34757  11.404   2.443   1.420 -0.0155  0.0727 -0.1569
15224W        W34758   4.660   9.457  16.836  0.0909  0.1742  0.3888
15225W        W34759   5.569  15.507   0.347 -0.2900  0.2467 -0.0404
15226W        W34760   0.889  13.994   2.992  0.1019 -0.2894  0.1743
15227W        W34761   8.132  11.853  15.204 -0.3939 -0.0710  0.1986
15228W        W34762   5.086   0.167   1.390  0.0723  0.1221  0.0652
15229W        W34763  16.616   2.570   0.380 -0.0801 -0.0067 -0.2893
15230W        W34764   8.444   2.201   2.380  0.0732 -0.0960 -0.0375
15231W        W34765   0.776   8.728   3.393 -0.0097 -0.3544 -0.0693
15232W        W34766  13.370  12.900   3.684 -0.1539  0.1349  0.0100
15233W        W34767   8.498   0.384   0.982 -0.0702  0.0235  0.0449
15234W        W34768  12.566  10.872   2.958 -0.1378 -0.0363 -0.1920
15235W        W34769  11.808  11.637   2.355  0.0279 -0.0655 -0.1663
15236W        W34770   8.804   8.116   0.956  0.1329 -0.2005  0.0332
15237W        W34771   2.602   8.761   0.618 -0.2216 -0.2050 -0.0799
15238W        W34772   4.544   9.838  15.925  0.1060 -0.0157 -0.3603
15239W        W34773   0.690  10.758  16.433  0.0181 -0.2689 -0.0999
15240W        W34774   1.947   9.175  14.392 -0.0042 -0.1338  0.0589
15241W        W34775   0.498   3.000   0.187  0.1981  0.0117 -0.1803
15242W        W34776   1.772   6.038  14.285  0.1220  0.2887  0.0767
15243W        W34777   0.454  13.714   1.240  0.1666 -0.2865 -0.0255
15244W        W34778   5.934  12.669   4.557 -0.1210 -0.1545 -0.2629
15245W        W34779   7.150  10.446  15.081  0.0602 -0.2228  0.1802
15246W        W34780   5.454   3.022   4.962 -0.0823 -0.0839 -0.1255
15247W        W34781   0.762  12.690   3.568 -0.0627  0.0082 -0.0286
15248W        W34782   6.666   9.175   3.517 -0.1322 -0.3905 -0.0095
15249W        W34783   3.508  13.521   4.555 -0.1436  0.3915  0.1166
15250W        W34784   8.033  10.732   4.714  0.0261  0.1264 -0.0990
15251W        W34785  15.292   2.693   0.186 -0.2147 -0.0285 -0.1742
15252W        W34786   6.268  15.672  15.226 -0.1146  0.2731  0.0231
15253W        W34787   6.203   7.358   5.010  0.0139 -0.0476  0.1725
15254W        W34788  16.873   0.381  13.608  0.0609 -0.1561  0.4196
15255W        W34789  12.685   8.559  15.285  0.1438  0.2305 -0.0509
15256W        W34790   0.321   7.506   3.379 -0.1732  0.1240  0.0924
15257W        W34791   6.926  13.136   4.923 -0.2479  0.1068  0.0354
15258W        W34792   7.039   5.374  13.602 -0.1491  0.0502  0.1853
15259W        W34793  17.407   3.050  12.346 -0.0928  0.1428  0.2210
15260W        W34794   0.783   6.753   4.226  0.2440  0.1540 -0.3950
15261W        W34795  11.774   3.376   1.124 -0.2473  0.0146 -0.0460
15262W        W34796   8.596  12.735  15.532  0.1126  0.1864  0.2129
15263W        W34797  12.844   1.813  14.638  0.0465 -0.1650  0.4327
15264W        W34798   3.792  10.734  16.483  0.0906  0.0713  0.2047
15265W        W34799  10.107   9.047   1.715  0.4606 -0.0315  0.2102
15266W        W34800  12.959   8.036  13.201 -0.2377 -0.0108  0.1103
15267W        W34801  12.352  15.464  15.627  0.1500  0.0230  0.0680
15268W        W34802   0.246   3.511  13.505 -0.0654  0.0352 -0.0664
15269W        W34803   3.875  12.327   3.303 -0.0316 -0.3213  0.2055
15270W        W34804  16.609  14.064  13.984 -0.2894 -0.0952 -0.1658
15271W        W34805   9.869  11.092   2.283  0.0501  0.4631 -0.0329
15272W        W34806  13.973  12.880   0.827 -0.1792  0.0079  0.0122
15273W        W34807   9.417   2.168  14.921  0.0883  0.1066 -0.1096
15274W        W34808  15.274  11.949  13.949 -0.0174 -0.3021 -0.0062
15275W        W34809   5.069   7.352  12.278  0.1313  0.3297  0.1320
15276W        W34810   3.682   8.462  12.353  0.1558 -0.1993  0.1958
15277W        W34811  17.557  14.332  15.230  0.0014  0.0054 -0.2137
15278W        W34812   8.420   8.584   0.370 -0.0284 -0.0598  0.3888
15279W        W34813   5.304   3.035   2.204  0.2934  0.0573 -0.1939
15280W        W34814   5.060   3.901   5.006 -0.1015  0.0426  0.0186
15281W        W34815   7.220  13.041   1.174 -0.0601  0.0159 -0.0842
15282W        W34816  16.191  10.765  15.442  0.0617  0.0663 -0.0157
15283W        W34817  10.633   1.836  12.529  0.2070  0.0274  0.0253
15284W        W34818   8.020  15.078  15.378  0.2929 -0.2911  0.1616
15285W        W34819  11.721  16.645   4.483  0.0584 -0.1006  0.1367
15286W        W34820  17.251   4.947   0.269  0.2598 -0.0402 -0.1759
15287W        W34821  11.711  11.823   0.028  0.0249 -0.1320  0.5534
15288W        W34822  11.757  11.789  15.107  0.1717 -0.0373 -0.0002
15289W        W34823   3.539   2.930  13.720 -0.1875  0.2592 -0.3294
15290W        W34824   6.661   4.832   0.085 -0.1685 -0.0363  0.1039
15291W        W34825   3.090   4.756  16.936  0.0812  0.1559 -0.0055
15292W        W34826   4.756  15.507   1.118  0.4522 -0.0521  0.1795
15293W        W34827   3.557  13.810   0.704 -0.1836 -0.3917  0.2126
15294W        W34828   0.450  10.058  15.266  0.2002  0.0081 -0.2912
15295W        W34829  16.055  14.471  15.482 -0.2061  0.2284 -0.3028
15296W        W34830  10.875   4.086   4.771 -0.1969  0.0161 -0.0982
15297W        W34831  10.054  12.704  15.228  0.1056  0.1061  0.0450
15298W        W34832   9.662   1.847   4.874  0.0399 -0.2292 -0.1957
15299W        W34833   2.701   3.563   1.493 -0.1932  0.0498  0.0420
15300W        W34834  11.398   8.008  13.538 -0.1862  0.2988 -0.1825
15301W        W34835  11.105   0.950   0.802 -0.0641 -0.0147 -0.0797
15302W        W34836  11.191   4.472  10.919  0.1906 -0.3000  0.1422
15303W        W34837   0.927   5.964  16.371  0.2579  0.0918 -0.4154
15304W        W34838  12.673  15.177   2.439 -0.1966 -0.0419  0.1382
15305W        W34839  11.092   9.193  15.557 -0.0949  0.1387  0.0399
15306W        W34840  14.069  10.705   3.457  0.2758  0.0497  0.1667
15307W        W34841  17.489   2.239   0.717 -0.1552  0.4901 -0.1777
15308W        W34842   3.169  10.383   4.486 -0.0506  0.0816  0.0914
15309W        W34843   6.955   9.632  14.279 -0.1709 -0.2559 -0.1120
15310W        W34844   4.601  14.433  14.624  0.1325 -0.0506 -0.2708
15311W        W34845  13.312   1.189   1.568  0.1012  0.1824  0.4152
15312W        W34846   6.812   8.676  16.664 -0.3158  0.4054  0.0242
15313W        W34847  13.380  10.402   0.195 -0.1519 -0.0043  0.1724
15314W        W34848  16.957   7.869   2.791 -0.0521  0.1882 -0.1586
15315W        W34849   1.947   8.654   1.205  0.0293  0.1158  0.0778
15316W        W34850   6.364   6.912   1.009 -0.0609 -0.0142 -0.1190
15317W        W34851  12.278   6.269   0.118  0.0288  0.3003  0.2676
15318W        W34852  17.666   3.543  13.103  0.1185 -0.1134 -0.2394
15319W        W34853  11.455  14.307  12.304  0.0061 -0.0237  0.2022
15320W        W34854   0.896  17.445   2.333 -0.2850 -0.3156 -0.1064
15321W        W34855   1.178  17.302  13.285 -0.1203  0.0996  0.0415
15322W        W34856   2.516  10.856   3.559 -0.0873 -0.0265  0.0992
15323W        W34857  13.915   0.939  13.339  0.2651 -0.1225  0.1588
15324W        W34858  17.274   9.458  13.521  0.2128 -0.1027 -0.1755
15325W        W34859  17.366   5.158  15.427 -0.1191  0.1498 -0.1665
15326W        W34860   6.737  10.993   5.100 -0.2445  0.1568  0.0203
15327W        W34861   7.359  11.419   2.539 -0.0268  0.2479 -0.2758
15328W        W34862  11.140  15.671   1.629 -0.0424 -0.1503  0.0988
15329W        W34863  17.162   6.783   0.989  0.1464  0.0344 -0.2256
15330W        W34864  10.241   3.869   2.101  0.1036 -0.0481 -0.2727
15331W        W34865  12.651   5.137   0.196 -0.1318 -0.0498  0.0923
15332W        W34866  15.522   1.594  15.078  0.2660 -0.4651  0.1068
15333W        W34867  14.618  11.398  15.057 -0.0791 -0.1791  0.0033
15334W        W34868   4.455   2.119   4.701 -0.0461 -0.0286 -0.3237
15335W        W34869   6.048   2.045  16.725 -0.0788  0.0056 -0.0758
15336W        W34870  14.117  13.113  16.226  0.3062 -0.4244  0.0718
15337W        W34871   9.394  17.243   1.942  0.0932 -0.1014 -0.1567
15338W        W34872   6.109   2.683  12.224 -0.1427 -0.2446  0.0423
15339W        W34873   5.329   7.326   0.722 -0.1654 -0.0943 -0.1431
15340W        W34874   5.552  16.695   2.526 -0.1726  0.3802  0.2927
15341W        W34875   6.739   1.500  13.754 -0.1767 -0.2785  0.0830
15342W        W34876  12.765  17.462   5.334 -0.1493  0.0709  0.3719
15343W        W34877  12.626   3.043  15.085  0.3037 -0.2949  0.3460
15344W        W34878   9.090  13.558  15.898  0.0076 -0.0316  0.1360
15345W        W34879  16.497   8.907   0.781  0.1951 -0.0005 -0.0005
15346W        W34880  12.256   1.873  16.088 -0.1774  0.1052  0.3913
15347W        W34881  17.633   1.291  16.061  0.1113  0.0685  0.0085
15348W        W34882   9.953  14.247  15.105  0.0697  0.0193  0.2039
15349W        W34883  14.014  15.956  15.782  0.1290 -0.3122  0.0548
15350W        W34884  10.987  14.913   5.477  0.3773 -0.1380 -0.1077
15351W        W34885   0.838   7.580   4.720  0.0601 -0.2130 -0.4416
15352W        W34886   0.256   0.518  13.490  0.1946  0.2446 -0.1973
15353W        W34887   1.485  13.013   5.705  0.1720  0.1053  0.2611
15354W        W34888   7.909  13.140  13.962  0.0321  0.2033 -0.0157
15355W        W34889   9.489   7.095   0.351  0.1202 -0.1718 -0.5646
15356W        W34890   6.386  14.815   4.886 -0.2393 -0.2148 -0.0125
15357W        W34891  16.830  13.155  15.348 -0.0161  0.1889 -0.0847
15358W        W34892  12.536   8.352  15.813  0.3701 -0.1048 -0.0957
15359W        W34893  13.619  16.425  14.237  0.1657 -0.0726  0.1806
15360W        W34894  17.186  15.998   5.130 -0.1056 -0.1408  0.0618
15361W        W34895   6.551   6.653  16.248  0.1586 -0.1538  0.2042
15362W        W34896   7.530   1.981   0.139 -0.2049 -0.0614 -0.2476
15363W        W34897   2.538   5.904   4.778 -0.0690  0.0506 -0.0058
15364W        W34898  15.192   7.380  16.721 -0.2658 -0.2898 -0.0796
15365W        W34899  14.383   9.675   0.655  0.3294  0.1929 -0.1220
15366W        W34900   1.944   1.488   2.296  0.1127 -0.0557  0.2547
15367W        W34901   5.060   1.791  12.913 -0.2023  0.2115 -0.2842
15368W        W34902   9.106  15.233   3.775  0.0291 -0.1729  0.3420
15369W        W34903  13.062   7.157   1.611 -0.0434 -0.3188  0.0005
15370W        W34904   0.014  11.612   4.330  0.1356  0.0904 -0.2336
15371W        W34905   9.698  14.935   1.340  0.1124 -0.1948 -0.2359
15372W        W34906  17.452   7.125  11.939 -0.0577  0.1162 -0.0585
15373W        W34907   1.629   8.780  17.052 -0.1806 -0.0544  0.0727
15374W        W34908  15.476  13.917   0.285 -0.0807 -0.1774 -0.0591
15375W        W34909   7.236  13.589  14.396  0.3905 -0.1937  0.0085
15376W        W34910   8.251   9.781  16.322  0.0044 -0.0021  0.2327
15377W        W34911  16.281   0.896  13.014  0.1139  0.0993  0.2828
15378W        W34912  11.171   9.484  16.772 -0.1871 -0.0852  0.3919
15379W        W34913   7.487  15.095   1.667 -0.0177  0.0803 -0.1552
15380W        W34914  13.976  10.348   0.825  0.2207  0.2988 -0.0470
15381W        W34915  17.255  10.638   3.868  0.2666  0.0679  0.2326
15382W        W34916   1.282  10.835  14.734 -0.0241 -0.0135 -0.2945
15383W        W34917   2.438   5.944  16.566 -0.0186 -0.0119  0.0680
15384W        W34918   1.862   9.925   1.874  0.1698 -0.0839 -0.0375
15385W        W34919  15.561  10.734  13.677 -0.3891  0.1542  0.1730
15386W        W34920   3.399  10.912   3.745  0.2444  0.0714 -0.1156
15387W        W34921   0.342   5.186   0.015  0.0404  0.0407  0.2351
15388W        W34922   1.968  10.137  12.111 -0.0258  0.2588 -0.0434
15389W        W34923   3.009   6.057   1.196 -0.1168 -0.3754 -0.4343
15390W        W34924  13.066  12.495  16.601  0.2252 -0.2186  0.0250
15391W        W34925  13.859   5.632  16.599 -0.0162 -0.1857 -0.0283
15392W        W34926  10.500   1.789  13.453 -0.1563  0.1534 -0.2625
15393W        W34927   2.326  15.188   0.972 -0.2882  0.0538  0.0848
15394W        W34928  10.732  17.183   4.762  0.0043 -0.0044 -0.1174
15395W        W34929  13.824  14.197  12.562  0.2002 -0.2649 -0.0176
15396W        W34930  16.156   3.770   4.780 -0.2895  0.1483  0.2613
15397W        W34931  11.666  14.595  13.222  0.1112 -0.1779 -0.4532
15398W        W34932  10.595   4.332  12.259  0.2539 -0.1674 -0.0915
15399W        W34933   9.238  13.296  13.454  0.1566  0.0979 -0.0700
15400W        W34934  14.394   4.618   3.554 -0.0216  0.1057  0.1023
15401W        W34935  16.664  10.383  14.839  0.3167 -0.1479 -0.1667
15402W        W34936   7.004   4.635   0.363 -0.1663 -0.2502  0.2466
15403W        W34937   4.239   1.093  14.426 -0.0626 -0.1509 -0.0848
15404W        W34938   0.996   6.124   4.161  0.2149  0.0919 -0.2571
15405W        W34939  12.449   6.327   3.999 -0.2643  0.2307  0.3092
15406W        W34940   7.916  16.005   4.515  0.1117  0.1239 -0.0085
15407W        W34941   0.354   2.951  15.612  0.0243  0.3278  0.0036
15408W        W34942   3.638  15.776  15.705  0.0472  0.1553 -0.1844
15409W        W34943  12.483   4.920  12.875  0.1421  0.1851 -0.1622
15410W        W34944   6.277   2.498  16.357  0.0116 -0.2628 -0.0874
15411W        W34945   2.149  13.278   1.738 -0.2217  0.0054 -0.1713
15412W        W34946  16.359   1.640  16.292 -0.1712 -0.0754  0.0240
15413W        W34947  16.578   8.006   2.511  0.1659  0.0421 -0.0502
15414W        W34948   6.776   6.953  16.828 -0.0240  0.0720  0.2130
15415W        W34949   5.164   4.791   4.909  0.2510  0.1214 -0.0332
15416W        W34950  13.828  15.418   2.314 -0.1668 -0.0997  0.0396
15417W        W34951   4.849   5.005   2.985 -0.1359 -0.1935  0.0312
15418W        W34952   5.904   5.466  12.749  0.0654  0.2207  0.3049
15419W        W34953   2.784   7.995  17.050 -0.2679 -0.1084  0.0819
15420W        W34954   5.695   5.066  13.420 -0.1686 -0.1247  0.1324
15421W        W34955   9.717   5.201  13.108 -0.2462 -0.0428  0.0263
15422W        W34956   3.047  16.858  12.259  0.0119 -0.0765  0.0268
15423W        W34957  11.208   6.906  14.516  0.0923 -0.1236 -0.2092
15424W        W34958   2.190  11.448  16.401  0.1639 -0.1223  0.1886
15425W        W34959   4.808   6.083  14.360  0.0558  0.0297 -0.0938
15426W        W34960   4.574  14.211  16.256  0.0024  0.3089  0.1724
15427W        W34961   4.105   7.011   2.234  0.1764  0.5152 -0.2517
15428W        W34962   6.966  10.417  12.824  0.5028 -0.4017  0.3382
15429W        W34963  13.345  15.424  13.876 -0.1089  0.5373 -0.3623
15430W        W34964  16.223  12.835  13.675  0.2493  0.0724  0.3758
15431W        W34965  15.203   3.216  16.006 -0.0444 -0.3376  0.3363
15432W        W34966  13.321   9.287  15.151 -0.0068  0.0022 -0.0525
15433W        W34967   2.430   6.309   1.185 -0.0999 -0.0474 -0.0594
15434W        W34968  15.382   9.579  15.096 -0.1968  0.1084 -0.1072
15435W        W34969  15.900   8.416  14.565 -0.1039  0.0838 -0.2587
15436W        W34970  12.252  10.100   4.155 -0.3390 -0.2524 -0.2509
15437W        W34971  12.861  11.313   4.778 -0.0087 -0.0865 -0.2534
15438W        W34972  10.016   6.544   4.314 -0.3656  0.0923 -0.2723
15439W        W34973   9.935   2.444   5.328 -0.1812  0.0077  0.0074
15440W        W34974   8.563  16.033  16.002 -0.2895  0.5500 -0.1200
15441W        W34975   2.667  10.417   3.331 -0.2096  0.1626  0.2638
15442W        W34976   7.474   4.919   4.048 -0.0628  0.0326 -0.0448
15443W        W34977   2.167  13.078   1.257  0.0591  0.0281 -0.0998
15444W        W34978   8.966  15.090  16.105  0.0312  0.0439  0.1309
15445W        W34979  13.973  17.393  13.500  0.0148 -0.0206  0.3120
15446W        W34980   1.605  12.659  16.710  0.1971  0.2061  0.2299
15447W        W34981   9.803   7.192  14.830  0.1177 -0.1965  0.0801
15448W        W34982   4.830   1.464   4.266  0.3237 -0.0910 -0.3522
15449W        W34983   4.829  11.049   1.946 -0.2844  0.1387  0.4354
15450W        W34984  10.018  15.431   4.021 -0.2136  0.1277 -0.1727
15451W        W34985   6.558   0.443   1.244  0.1528  0.0944  0.2918
15452W        W34986  11.099  13.605   5.325  0.0090  0.2387 -0.0890
15453W        W34987  13.221   0.855   4.703  0.2397  0.2232  0.2853
15454W        W34988   3.335  10.977  15.244  0.2737  0.1195 -0.2991
15455W        W34989   2.171  15.255  14.872  0.0440 -0.1643 -0.2485
15456W        W34990   4.171  11.248   1.910 -0.2262  0.1471 -0.2459
15457W        W34991  13.998  17.079   2.193 -0.1507  0.0620  0.2638
15458W        W34992   4.523   9.073  14.790 -0.1216 -0.3796 -0.1558
15459W        W34993  14.958  14.723   3.448  0.1722  0.2078  0.0645
15460W        W34994   1.463  13.548  14.918  0.2789 -0.1746 -0.1800
15461W        W34995  16.242  13.426   2.034  0.2160  0.0862 -0.2609
15462W        W34996  12.183   9.770  14.147  0.1006  0.2697 -0.1281
15463W        W34997   3.877  12.160  16.171 -0.5888  0.2030  0.0616
15464W        W34998   5.502  15.865   1.908 -0.1264 -0.3038  0.1679
15465W        W34999   8.544  11.847  14.057  0.0996  0.0361  0.2984
15466W        W35000   7.214   2.093  16.649  0.0827 -0.2488  0.2009
15467W        W35001   3.705   6.160  14.104 -0.0165  0.0784  0.0980
15468W        W35002   7.204  11.933   3.626  0.1751 -0.0436  0.4694
15469W        W35003   6.890   0.410   3.935 -0.0506  0.0821 -0.0054
15470W        W35004   3.977   1.192  15.689  0.1014 -0.0074  0.1093
15471W        W35005  10.044  13.230   5.433 -0.0204  0.2213 -0.5232
15472W        W35006   0.042  10.303  14.524  0.0984  0.0879 -0.0291
15473W        W35007  10.631  10.107  15.351  0.2567  0.0876 -0.0614
15474W        W35008   9.127   9.075   0.547  0.1018 -0.1314  0.2122
15475W        W35009  13.592   0.490  16.535 -0.0617 -0.1312 -0.2134
15476W        W35010   4.362   3.364  15.152 -0.2277 -0.3175 -0.0087
15477W        W35011   6.176  12.021  14.437  0.4732 -0.1156  0.0986
15478W        W35012  12.561  16.673  16.499 -0.0142 -0.0885  0.3477
15479W        W35013   4.572   8.777  14.384 -0.0201 -0.1489  0.1765
15480W        W35014  10.623  11.820   4.762  0.1780 -0.1338  0.2384
15481W        W35015   0.864  17.339   1.058  0.0602 -0.4817 -0.4167
15482W        W35016   6.258   9.442   0.414 -0.1737 -0.0198  0.0826
15483W        W35017   4.646   0.435   0.575  0.0243  0.0005 -0.3404
15484W        W35018   2.171   9.676   4.509  0.2734 -0.0268 -0.0739
15485W        W35019  14.581  16.265  13.511  0.0240  0.2006  0.0504
15486W        W35020  17.025  17.173  16.812  0.0429 -0.1464  0.1284
15487W        W35021  12.504   5.409   2.761 -0.0667  0.2401  0.1024
15488W        W35022   9.022  13.821  12.349  0.1619  0.0605 -0.5396
15489W        W35023   2.396   4.066   4.550  0.0303 -0.0523 -0.0162
15490W        W35024  11.110  12.479  16.077  0.0810  0.1336 -0.0529
15491W        W35025   0.863   0.496  13.274 -0.0560  0.0645  0.1627
15492W        W35026   1.086   0.737  13.881  0.1474  0.1440  0.2379
15493W        W35027   2.541  14.935   0.576 -0.0296 -0.2085 -0.0673
15494W        W35028  10.911   7.890   4.804 -0.2393 -0.1202 -0.0281
15495W        W35029  11.555  12.610  14.056  0.2288  0.1288 -0.1237
15496W        W35030   2.388  13.899   2.909  0.3414 -0.5604  0.2200
15497W        W35031  13.689   9.298  14.693 -0.0092  0.0396  0.2432
15498W        W35032  11.177  11.486  15.383 -0.0131 -0.3833 -0.2236
15499W        W35033  16.701  11.527   1.925  0.4950  0.1042 -0.0248
15500W        W35034   2.240  14.317   2.510  0.2216  0.2667 -0.2306
15501W        W35035  12.237   1.503   4.319 -0.1198 -0.1844  0.2845
15502W        W35036   9.073   9.533  15.231  0.1863  0.4297  0.0345
15503W        W35037   1.109  16.377  15.562 -0.0288 -0.0880  0.1578
15504W        W35038   1.643   1.317   1.826  0.2698  0.2296  0.0500
15505W        W35039  14.018  12.734   3.372  0.1150 -0.3887  0.0413
15506W        W35040  16.005   6.524  14.945  0.1613 -0.0261 -0.1093
15507W        W35041   0.283  10.710   1.998  0.4073 -0.0301 -0.0198
15508W        W35042  16.594   8.816  12.644  0.0481  0.0592  0.0863
15509W        W35043   4.282  15.576   5.631  0.1472  0.1958  0.2540
15510W        W35044  14.895   5.279  13.867 -0.0152  0.1946  0.1185
15511W        W35045   5.954  10.242  14.876  0.0498  0.1650 -0.0263
15512W        W35046   7.841  10.598  13.013 -0.2252 -0.2369  0.1552
15513W        W35047   4.850  10.553   2.232  0.0480  0.0273 -0.0725
15514W        W35048  12.417   2.982  15.604  0.1267  0.0455 -0.1987
15515W        W35049  11.441   9.620  12.224 -0.0844  0.2949  0.0935
15516W        W35050  13.386  10.837  15.046 -0.0395  0.0263 -0.5273
15517W        W35051  10.531   0.305  12.787 -0.1294  0.1495 -0.2038
15518W        W35052   1.929  12.979   2.827 -0.1400  0.2855 -0.1741
15519W        W35053   0.792   7.921   0.447  0.0962  0.1997  0.1798
15520W        W35054   8.334  13.922   1.895 -0.0593  0.2968  0.1967
15521W        W35055   9.016   0.012  15.768 -0.0990  0.1040  0.1048
15522W        W35056   8.497  14.078  15.729 -0.0511  0.0553 -0.2305
15523W        W35057  14.596   3.872  14.373  0.1354 -0.0034 -0.1156
15524W        W35058   5.335   7.433  12.783 -0.0571 -0.0840 -0.2033
15525W        W35059  13.630  16.173  17.039 -0.0799  0.0310 -0.0287
15526W        W35060  10.247   9.271  13.661 -0.0696 -0.0512 -0.2454
15527W        W35061   7.533   2.857  16.702 -0.0347  0.0379  0.0587
15528W        W35062  10.062   3.421   2.183  0.0995  0.0902 -0.2140
15529W        W35063   0.879  17.191   3.685  0.3111 -0.1163  0.2033
15530W        W35064   8.500   0.902   1.405  0.1682  0.0837 -0.0670
15531W        W35065   0.816  12.909  16.050  0.0345  0.2943  0.2935
15532W        W35066  11.781   3.651   3.822 -0.0161 -0.1761 -0.1779
15533W        W35067  13.640   5.206   4.536  0.0396 -0.0812  0.0998
15534W        W35068  13.135   0.214  12.528  0.0321 -0.2211 -0.1899
15535W        W35069   4.226  10.257   0.899 -0.1705  0.2680  0.0397
15536W        W35070   5.711   4.226   4.576  0.1697  0.1650  0.1888
15537W        W35071   9.091   3.388   4.263 -0.1673 -0.0034  0.0393
15538W        W35072  14.772   5.179  14.932  0.3068  0.0337  0.1611
15539W        W35073  11.354  15.189  16.692 -0.1583 -0.0609  0.1131
15540W        W35074   0.626   4.642   2.779 -0.1582  0.1966 -0.0691
15541W        W35075  12.155   6.407  16.349  0.2929  0.0951  0.2008
15542W        W35076   1.655  13.751  16.078 -0.0475 -0.3007 -0.2312
15543W        W35077   9.664   7.211  15.709 -0.0951  0.2425 -0.0905
15544W        W35078  17.619  12.103  16.949  0.2652 -0.2568  0.3204
15545W        W35079   2.578  11.037   1.207 -0.0229  0.1149  0.1943
15546W        W35080   6.205  10.562   2.300  0.2332  0.1766  0.2487
15547W        W35081  15.371   4.981  16.704 -0.0865  0.0695  0.0119
15548W        W35082  14.072   8.313  12.101  0.3147 -0.0746 -0.0713
15549W        W35083   6.179  14.571   0.101 -0.0915  0.1157 -0.0992
15550W        W35084   5.044  12.142   4.816  0.2990 -0.4299 -0.0338
15551W        W35085  15.752  12.473   6.011 -0.1522  0.3526 -0.1101
15552W        W35086  13.647   7.397  12.275  0.1358  0.0369  0.0049
15553W        W35087  11.611   6.296  12.374  0.3295  0.0471 -0.2235
15554W        W35088   9.145  12.148  14.624  0.1509 -0.0571  0.0243
15555W        W35089  15.400  16.675   3.953  0.0782 -0.1945  0.0374
15556W        W35090   8.210   9.013  13.333 -0.0718  0.3600  0.0040
15557W        W35091   8.093   1.118  12.295  0.0473 -0.1338  0.0284
15558W        W35092   6.615  11.869   2.680 -0.0322  0.0000 -0.0449
15559W        W35093  11.926   5.590   1.131  0.1523 -0.2617  0.0701
15560W        W35094  12.676   4.499  12.658  0.0114 -0.0041 -0.0298
15561W        W35095  15.853  11.311  12.027 -0.3212 -0.1580 -0.0724
15562W        W35096   8.737   2.546  16.049  0.2245 -0.0521  0.0273
15563W        W35097   6.450   2.173  16.042 -0.0233  0.3112  0.2903
15564W        W35098   9.779   2.653  15.891 -0.0321  0.0803 -0.0582
15565W        W35099   9.769   3.970  15.516 -0.0764 -0.0600 -0.0853
15566W        W35100   2.002   2.406  13.859  0.0652 -0.2198 -0.0419
15567W        W35101   1.049   7.505  12.051 -0.1139 -0.0824  0.0484
15568W        W35102   2.860   1.723   0.191  0.0964  0.2645  0.0496
15569W        W35103  13.695  12.341  14.639  0.1823  0.0920 -0.1417
15570W        W35104   3.116  16.562  16.701 -0.0377  0.2243 -0.1414
15571W        W35105   7.405   8.140   1.086 -0.2135  0.1745  0.1289
15572W        W35106  17.396   3.577  13.554  0.1681  0.0550  0.1986
15573W        W35107  13.250  17.257   5.146 -0.2817 -0.0631  0.1056
15574W        W35108   5.371   8.561  15.443  0.2672  0.2388  0.1372
15575W        W35109  16.914   1.406   2.372  0.1468 -0.0538  0.2413
15576W        W35110   5.375   9.571   4.931 -0.4014  0.2379 -0.5889
15577W        W35111  11.227   2.692  14.416 -0.1078  0.1049 -0.3227
15578W        W35112   8.295  16.297  14.331  0.0087 -0.1233  0.0281
15579W        W35113  14.796  17.350   4.867  0.0739  0.3063 -0.0742
15580W        W35114   8.409   7.696  15.332  0.2032 -0.0701  0.2386
15581W        W35115  12.766   4.433  14.117 -0.0672 -0.0009 -0.0222
15582W        W35116  11.396   6.310   5.387  0.0537 -0.4535 -0.0479
15583W        W35117   8.639   5.897   2.977  0.3166  0.0862  0.0318
15584W        W35118  13.376   6.547  11.767  0.1033  0.0516  0.1027
15585W        W35119   6.749  12.775  14.493 -0.1688 -0.0243  0.3150
15586W        W35120   6.529  14.034  14.684  0.1410 -0.1400  0.1841
15587W        W35121   8.345   3.938   2.321  0.2159 -0.1848 -0.1578
15588W        W35122   4.056   1.086   2.015  0.0136 -0.0691  0.1040
15589W        W35123   3.888   8.579   0.554 -0.1949  0.0691  0.0286
15590W        W35124   4.992   9.437  13.856 -0.2939 -0.0191 -0.0274
15591W        W35125   7.366  11.315  16.419 -0.1138  0.1481  0.0910
15592W        W35126   6.750   4.948   0.625  0.1000 -0.0464 -0.0232
15593W        W35127  16.731   4.612   2.975 -0.1122 -0.1330  0.0329
15594W        W35128   1.730  17.437  13.347 -0.3920  0.0269 -0.2751
15595W        W35129  17.149   2.688   1.752 -0.1607 -0.3883  0.0534
15596W        W35130  13.947   7.791   2.541  0.0400  0.1221 -0.0314
15597W        W35131  13.098   7.408   2.795  0.1989  0.2287 -0.1449
15598W        W35132  17.544   6.715   4.701  0.0131  0.2636  0.0728
15599W        W35133  10.885   6.073   3.183  0.2060  0.0177  0.0798
15600W        W35134  10.616   1.930   2.935  0.2411 -0.2199  0.2778
15601W        W35135   3.892   1.416   2.875 -0.0336  0.0034 -0.3175
15602W        W35136   8.342  14.821   3.940  0.1515 -0.1827 -0.1530
15603W        W35137   9.142   2.852   0.314  0.1636 -0.1316 -0.0628
15604W        W35138  15.300  10.056   1.755 -0.2974  0.0009  0.1852
15605W        W35139  11.343   8.396   0.002 -0.1086 -0.1628  0.0103
15606W        W35140  17.392   7.442  14.711  0.0478 -0.0790 -0.0199
15607W        W35141  16.052  16.596  12.255 -0.0899  0.0793 -0.2473
15608W        W35142   8.975  11.336   0.854  0.0229  0.4860  0.0175
15609W        W35143  13.711  16.650  14.676  0.0121 -0.2132  0.0167
15610W        W35144  16.014  16.141  16.979  0.1947  0.1899 -0.1140
15611W        W35145  10.743  16.655  12.306 -0.0611 -0.0742 -0.2458
15612W        W35146  14.421  12.079  13.712 -0.0129 -0.2176 -0.0755
15613W        W35147  13.827  11.649  14.081  0.1105 -0.1214  0.1328
15614W        W35148   4.019   8.870  13.701  0.0032 -0.0069 -0.0638
15615W        W35149  12.423   5.231   1.892  0.2569 -0.0415  0.3294
15616W        W35150   6.566   9.655  15.291  0.2211 -0.2528 -0.1632
15617W        W35151   0.354  12.141  12.467 -0.0915  0.2249  0.0636
15618W        W35152  13.498   0.174   1.524  0.3141 -0.1720  0.0476
15619W        W35153  17.329  14.333   3.302 -0.2762  0.2246  0.0493
15620W        W35154   3.548   0.855   0.252 -0.0336 -0.4167 -0.1468
15621W        W35155   9.228   7.939   0.125 -0.0111 -0.0329  0.3540
15622W        W35156  16.686   1.851  16.723  0.1254  0.3930  0.0048
15623W        W35157   5.284   6.886  12.574 -0.2182 -0.3392  0.0100
15624W        W35158   6.291  16.043  14.533  0.0102  0.1315  0.2145
15625W        W35159   1.615   0.056  14.242 -0.2574 -0.1629  0.0568
15626W        W35160   5.189   3.057   3.914 -0.0626 -0.3508 -0.2369
15627W        W35161   7.901   0.723  14.477 -0.2335  0.0667  0.3888
15628W        W35162  13.600   5.060  12.706 -0.2438  0.2153  0.1894
15629W        W35163  14.617   6.776  16.987 -0.1869 -0.1836 -0.0082
15630W        W35164   7.286  10.230  14.055  0.2259 -0.2300  0.0533
15631W        W35165  10.629   0.339  16.426  0.0234 -0.1241  0.0086
15632W        W35166   1.171  12.642  16.917 -0.0630  0.3088  0.2418
15633W        W35167   2.942  10.010   3.451 -0.0168  0.0624  0.1274
15634W        W35168   2.328   1.195   0.764  0.1815  0.3785 -0.1703
15635W        W35169  13.637   8.834   4.498  0.2399 -0.1209  0.1009
15636W        W35170  10.390   3.133   5.056 -0.0472  0.3287  0.0574
15637W        W35171  14.330   0.208  15.560  0.2250 -0.0050 -0.1716
15638W        W35172   8.602  15.146  15.701  0.1292  0.1028 -0.0025
15639W        W35173   0.452  13.661   1.766 -0.2260  0.3363  0.0034
15640W        W35174   3.287   9.710  16.136 -0.2430  0.0031  0.1015
15641W        W35175  16.424   5.837  16.426  0.1412  0.0617  0.5312
15642W        W35176   6.073   3.868  12.251  0.0748 -0.0270  0.4477
15643W        W35177   0.811   7.666  14.393  0.5341 -0.0823  0.2708
15644W        W35178  11.524   3.594   3.329 -0.1042 -0.2806  0.0678
15645W        W35179   9.306  12.205   3.591 -0.1720  0.1406 -0.1345
15646W        W35180   6.379   8.259   3.771  0.1826  0.2242  0.0406
15647W        W35181  14.946   8.835   2.581 -0.1040 -0.1485  0.0960
15648W        W35182  16.617   2.519   0.882 -0.2454 -0.0267 -0.1019
15649W        W35183   3.122  15.936  14.332 -0.2092  0.0447 -0.3028
15650W        W35184  15.380   6.759   1.940 -0.1625 -0.3300  0.0178
15651W        W35185   7.181   8.053  14.636 -0.2947  0.5573 -0.3014
15652W        W35186  16.678  13.681  11.673  0.1238 -0.3085 -0.0363
15653W        W35187  14.542   0.080   5.048 -0.1573 -0.0788  0.1430
15654W        W35188  12.788   1.290   2.762  0.1244 -0.1887 -0.2542
15655W        W35189   1.527   0.762   4.033 -0.0352  0.0169  0.2590
15656W        W35190   8.607   9.688  12.532  0.0489  0.4137  0.0132
15657W        W35191   6.835  11.867  13.479  0.4165  0.2434 -0.1933
15658W        W35192   6.951  13.283  15.575 -0.1665 -0.3944  0.0211
15659W        W35193  10.268   3.908   0.343  0.1938 -0.1683  0.0197
15660W        W35194   7.382   9.900  14.399 -0.0425  0.1184  0.1125
15661W        W35195   6.750  10.462  13.840  0.0964 -0.0757 -0.3308
15662W        W35196   9.890   6.164   2.965  0.0874 -0.1386  0.0034
15663W        W35197   6.470   8.356   1.107 -0.1033  0.2813  0.2256
15664W        W35198  17.500   3.674   1.293  0.0371  0.0732 -0.3580
15665W        W35199   5.793   6.496   0.628 -0.0935 -0.0177 -0.0341
15666W        W35200  11.888  15.011  14.245  0.1060 -0.1525 -0.0981
15667W        W35201  10.825   1.741  16.770  0.0895 -0.0392  0.0506
15668W        W35202   5.165   7.914   1.637  0.2654 -0.0319 -0.3344
15669W        W35203   0.424  11.959   0.105  0.1614  0.0315 -0.3832
15670W        W35204  10.762   1.789   1.774  0.0732  0.0062 -0.4250
15671W        W35205  13.961   4.768   4.785 -0.0919 -0.0701  0.3024
15672W        W35206   8.362   5.706   3.406 -0.2312 -0.1473 -0.0732
15673W        W35207   0.940  14.988   2.522  0.1155  0.0427  0.0665
15674W        W35208   1.156  13.865  17.035  0.3772  0.0823 -0.0664
15675W        W35209   8.585  11.243   1.876  0.0618 -0.1089 -0.2076
15676W        W35210  10.901  14.479   0.030  0.0337 -0.0213  0.1503
15677W        W35211   8.569   6.377  13.181  0.0368 -0.1040 -0.0683
15678W        W35212  10.659  14.273  14.755 -0.0932 -0.2347 -0.3007
15679W        W35213   3.710   0.235  15.453  0.1435  0.0454  0.2835
15680W        W35214   2.076   1.376  15.491 -0.1213  0.1937  0.0388
15681W        W35215  13.762   9.043  15.085  0.1736  0.2180  0.2768
15682W        W35216  13.206  16.096   4.575 -0.0272 -0.2575  0.1636
15683W        W35217   8.085   8.889   4.258 -0.2087  0.3004 -0.1113
15684W        W35218  12.736   3.472   4.261 -0.2593  0.0972 -0.0155
15685W        W35219  12.362  15.426   0.504 -0.0961  0.2809 -0.1483
15686W        W35220   8.793   6.292   1.422 -0.0719  0.0804  0.1331
15687W        W35221  10.739   4.791  13.708 -0.2722 -0.0495  0.2571
15688W        W35222   4.205   5.608   2.518 -0.0960  0.0354 -0.1112
15689W        W35223  14.775  15.437  15.256 -0.0389  0.1594  0.1461
15690W        W35224  14.202  16.917   5.206 -0.0285  0.1158 -0.0694
15691W        W35225   3.994   3.918  14.062  0.3660 -0.1894  0.1644
15692W        W35226  11.636   5.745  13.420  0.0040  0.0963 -0.2424
15693W        W35227  10.429  12.349   2.860 -0.2303  0.2381 -0.2219
15694W        W35228   5.448   8.534   4.051  0.0299 -0.2202  0.4288
15695W        W35229  13.252  12.101  12.312 -0.2350  0.1734  0.2732
15696W        W35230  13.209  16.063   1.937 -0.1193 -0.3663  0.2328
15697W        W35231   8.857  11.714   4.704  0.1664 -0.3650 -0.1166
15698W        W35232   2.970  16.310   0.904  0.0081  0.0105  0.1814
15699W        W35233   4.057   7.338   3.563  0.1781  0.0122 -0.2580
15700W        W35234  14.024  14.425   0.684 -0.3474  0.0742 -0.0195
15701W        W35235   2.262  10.004   3.050 -0.1476  0.1478  0.1143
15702W        W35236   6.738  16.342  16.013 -0.2992 -0.1143 -0.2555
15703W        W35237   3.275  10.709  16.480  0.0833  0.1846 -0.2747
15704W        W35238   7.209  12.249   4.721  0.0141  0.6671 -0.1633
15705W        W35239   3.678   4.633   0.137 -0.0766  0.2544  0.3433
15706W        W35240  13.999  13.451  11.986  0.3083  0.1689 -0.0483
15707W        W35241  15.837   1.157  14.998  0.1653 -0.2260 -0.2026
15708W        W35242  16.427  16.252  12.121  0.3659  0.0188  0.0471
15709W        W35243   5.253  16.340  13.276  0.0507  0.0470 -0.0552
15710W        W35244   1.273  15.194  12.458  0.3699  0.2413 -0.1796
15711W        W35245  14.530   9.633   4.275 -0.0894 -0.4597  0.2423
15712W        W35246   4.991   0.817  16.495  0.0216 -0.1140 -0.0026
15713W        W35247   7.723   4.435  14.259 -0.0242 -0.4290 -0.0752
15714W        W35248   9.739  16.443  15.726  0.2554 -0.2941  0.4649
15715W        W35249   8.384   2.269  14.548 -0.1406 -0.1586  0.2413
15716W        W35250   6.248  10.910  17.025 -0.0046  0.0783 -0.0272
15717W        W35251  10.748  16.735  16.701 -0.0546 -0.0152 -0.1640
15718W        W35252   0.039   7.691   0.873 -0.1218  0.0064  0.1571
15719W        W35253  15.411  14.591  13.019 -0.0632 -0.0942 -0.3627
15720W        W35254  11.578   8.568   4.036 -0.0368 -0.1559  0.0628
15721W        W35255  15.052   7.146   3.883 -0.3562  0.0009  0.1669
15722W        W35256  14.214   7.394  12.090 -0.0198 -0.0386 -0.2187
15723W        W35257  15.332   4.777   5.165  0.1401  0.1615  0.2513
15724W        W35258   8.977   3.699  14.834 -0.2087  0.1351  0.3515
15725W        W35259   1.350  10.962  12.336 -0.1685  0.0648  0.4903
15726W        W35260  12.691   9.900  12.016  0.0500  0.1571 -0.0810
15727W        W35261   5.080   5.354   1.932  0.0288  0.2703  0.0579
15728W        W35262   4.419   8.096  16.880 -0.0985  0.1177 -0.1665
15729W        W35263   7.439  15.056   4.059 -0.2678  0.2952  0.0992
15730W        W35264   4.395  13.268   1.023 -0.2184  0.0069 -0.2036
15731W        W35265  10.307  11.875   2.542 -0.0925 -0.0150  0.2879
15732W        W35266   0.132  11.315  12.570 -0.1877 -0.1337  0.0944
15733W        W35267  14.175   2.790  15.095 -0.2980  0.0890  0.0366
15734W        W35268   7.068   8.537   3.724 -0.0474  0.1443 -0.1579
15735W        W35269   6.976  15.221   3.744  0.0669 -0.2075 -0.0699
15736W        W35270  10.299  13.132  15.033 -0.0929  0.0444  0.0109
15737W        W35271  16.143   1.340   3.315  0.1025 -0.2047  0.0261
15738W        W35272   0.470   9.199  15.699 -0.0100 -0.3319 -0.0651
15739W        W35273  17.246  11.180   0.605  0.1748  0.0165 -0.3840
15740W        W35274  14.228  10.057  14.674 -0.2313 -0.0034  0.0319
15741W        W35275   1.467   4.230  13.468  0.0358  0.1325  0.0440
15742W        W35276   9.206   8.778  16.868 -0.0088 -0.0609  0.1307
15743W        W35277  17.120   5.621   0.673  0.1386  0.1263  0.1175
15744W        W35278  14.875  14.264   3.022  0.1064  0.0888  0.0914
15745W        W35279  11.820   1.124  12.397 -0.1191 -0.2499  0.1285
15746W        W35280   2.371   6.787  13.958 -0.0963  0.3305 -0.1302
15747W        W35281  10.384   6.525  16.753 -0.0357  0.2770 -0.1724
15748W        W35282  11.742   9.921  13.899  0.1551 -0.1430  0.0366
15749W        W35283   6.128   2.997  12.684 -0.1843  0.0270 -0.0614
15750W        W35284   4.756  16.316   0.112 -0.0627 -0.1583  0.2561
15751W        W35285  12.283  13.570  14.135  0.1153  0.0466 -0.1355
15752W        W35286   9.523   1.145  12.600 -0.1519  0.2098  0.0719
15753W        W35287   9.581   3.969   3.303 -0.1765 -0.0359  0.0904
15754W        W35288   4.520   6.312  15.761  0.0628 -0.1514 -0.1757
15755W        W35289   2.469   1.373  13.888  0.0545  0.2199 -0.0773
15756W        W35290   7.356  10.933   4.728 -0.1382  0.0639  0.0601
15757W        W35291   0.807  13.196   1.684 -0.1551 -0.2421  0.2756
15758W        W35292   3.203   4.909   3.668 -0.0270  0.0908 -0.0308
15759W        W35293   1.012  10.334  12.788  0.0242  0.3672 -0.0917
15760W        W35294   0.921   6.952  13.592 -0.2227  0.1201 -0.0220
15761W        W35295  14.996   6.770   1.472 -0.0840  0.1050  0.0805
15762W        W35296   5.908  14.265  15.575  0.0394 -0.1386  0.0851
15763W        W35297   4.512  10.031   4.678  0.1104 -0.3665 -0.3249
15764W        W35298  14.475  15.219  16.226 -0.0525  0.0306  0.2571
15765W        W35299   9.848   9.461  14.730 -0.0820  0.3619 -0.1774
15766W        W35300   3.406   3.900   0.713 -0.1866 -0.1861 -0.1922
15767W        W35301   5.209  10.446   1.181 -0.1413 -0.1385  0.2247
15768W        W35302   1.962   6.201  16.476  0.2556 -0.0294 -0.1438
15769W        W35303   8.242  13.641  12.438  0.1627 -0.1631 -0.0498
15770W        W35304   7.209  10.301  15.565  0.3321  0.0871  0.0799
15771W        W35305   8.152   5.633  15.843  0.2191 -0.1452 -0.1068
15772W        W35306  13.777   8.524  14.415 -0.2544  0.0651  0.5963
15773W        W35307   3.190   1.821  16.373 -0.0951 -0.1007 -0.1424
15774W        W35308   7.417  10.485   0.095 -0.0075 -0.0012  0.0983
15775W        W35309  14.385  12.519   4.588 -0.3395  0.0457 -0.2168
15776W        W35310   7.055  12.464  13.791  0.1104 -0.1874  0.2763
15777W        W35311   3.178   3.456  13.169 -0.0417 -0.2369 -0.2816
15778W        W35312   6.743   0.815  16.707  0.1218  0.1497 -0.0684
15779W        W35313  15.594  16.441  16.782 -0.0769  0.0718 -0.3651
15780W        W35314  11.972  14.521   5.088 -0.2261  0.0828 -0.2272
15781W        W35315   2.090   6.011  13.212  0.1294  0.1440 -0.2019
15782W        W35316  17.231  13.297   1.686 -0.1688  0.1551 -0.1676
15783W        W35317  14.537  14.071   5.480 -0.0174 -0.0386 -0.2425
15784W        W35318  15.288   2.197  14.591 -0.0250  0.0690 -0.3952
15785W        W35319  11.871   9.501  15.047 -0.0616 -0.1730 -0.1536
15786W        W35320   9.884  13.381   3.632 -0.0815  0.0669  0.3117
15787W        W35321  14.306   8.846   2.466  0.1792 -0.1256  0.2176
15788W        W35322  16.062  14.699  13.710 -0.0116  0.0800 -0.1687
15789W        W35323   0.386   4.428   4.096  0.1779  0.0394 -0.2339
15790W        W35324   2.286  13.679  12.654 -0.3278  0.0024  0.1075
15791W        W35325  10.305   1.068   1.936  0.1514 -0.0288 -0.0448
15792W        W35326  17.511  13.451  12.899  0.2188 -0.1362 -0.0810
15793W        W35327   1.932  16.207   4.856  0.1936  0.3235 -0.2175
15794W        W35328   2.397  16.221   4.184 -0.0011 -0.1190  0.1097
15795W        W35329   4.926  10.181  14.464 -0.1025  0.0304  0.2524
15796W        W35330  12.604  14.312   4.567 -0.3464 -0.0946  0.0230
15797W        W35331   0.254  16.195  15.412  0.1343 -0.0247 -0.0498
15798W        W35332  16.404  15.715   0.178  0.0974  0.0417  0.2877
15799W        W35333   3.692   1.143   4.312 -0.0251  0.0001  0.3696
15800W        W35334  15.692  16.998   5.155 -0.2566 -0.1382 -0.2525
15801W        W35335  13.618  13.129   4.116  0.5332  0.1747  0.1053
15802W        W35336  14.568  12.194   5.062 -0.2305 -0.2894 -0.3187
15803W        W35337   3.232   2.832  13.310 -0.2697  0.1138  0.1492
15804W        W35338   2.570  11.988  13.751  0.1224 -0.0270 -0.1581
15805W        W35339   2.705  15.184  16.599 -0.0008  0.0778 -0.2134
15806W        W35340  10.927   3.200   4.825 -0.2173 -0.0637  0.1907
15807W        W35341   9.219  11.861   2.060  0.1872 -0.0160  0.0502
15808W        W35342  13.863   9.678  13.513 -0.1998 -0.0745  0.4054
15809W        W35343   8.251  15.943  15.604  0.1817 -0.0651  0.1386
15810W        W35344  16.496   9.502   2.747 -0.1647 -0.0342  0.5543
15811W        W35345  16.074  13.887   1.433  0.3897  0.0017 -0.0693
15812W        W35346  11.296   9.898   2.796 -0.1660 -0.2566 -0.0019
15813W        W35347  13.282   0.958  16.558 -0.0406 -0.1227  0.1236
15814W        W35348  10.399   4.909   4.368 -0.0123 -0.1386 -0.0051
15815W        W35349   3.860   3.730  16.400 -0.1161 -0.0880 -0.2421
15816W        W35350  14.912   9.263   1.161  0.0507  0.0173  0.0300
15817W        W35351   6.450   9.913  15.744 -0.2974  0.0203 -0.2721
15818W        W35352   0.297   8.976   3.647 -0.2096 -0.1217 -0.3185
15819W        W35353   4.954   1.511   3.302 -0.0045 -0.0129  0.0563
15820W        W35354  14.154  13.556   2.271 -0.2179  0.0502  0.0680
15821W        W35355   9.085  10.493   0.324  0.3486  0.1290 -0.3796
15822W        W35356   2.335   5.378   4.866 -0.1517 -0.0218  0.3714
15823W        W35357   2.808   8.933   2.135  0.0440  0.0103 -0.1555
15824W        W35358   2.898  14.364   4.147 -0.0748  0.2311 -0.0758
15825W        W35359  12.477  13.097  14.132 -0.0820 -0.0237  0.2739
15826W        W35360  16.091  13.588   4.729  0.1443 -0.1809  0.0069
15827W        W35361   8.326   0.004  15.045  0.0795 -0.1621 -0.2094
15828W        W35362  11.869   2.323  16.789  0.1096  0.0004 -0.0363
15829W        W35363   0.339  14.214  12.146 -0.4865 -0.0666 -0.0682
15830W        W35364   2.278  17.036   1.829  0.0857 -0.0207  0.1591
15831W        W35365  15.839  15.382   1.325  0.1097  0.0907  0.0311
15832W        W35366   1.344  13.817   0.475  0.2759 -0.1105 -0.0844
15833W        W35367  10.841  11.672   0.248  0.2772  0.1193 -0.0348
15834W        W35368  11.549   1.504  12.697 -0.2311  0.1225 -0.2626
15835W        W35369   8.749   3.000   4.211  0.1301  0.0272 -0.1596
15836W        W35370   4.429  15.676  12.253 -0.3037 -0.3366 -0.1054
15837W        W35371  13.364  14.770   5.253 -0.1310 -0.1482 -0.1272
15838W        W35372   1.187   4.279   4.614 -0.2278 -0.1623  0.1668
15839W        W35373  12.665  16.572  15.285 -0.1267 -0.0970 -0.2547
15840W        W35374  13.724   8.014  15.850  0.0378  0.0431 -0.0713
15841W        W35375   4.823  16.417  12.177 -0.0334 -0.2815 -0.2099
15842W        W35376   5.076  16.043  16.971  0.0080 -0.1598 -0.2931
15843W        W35377  11.807   5.749   1.893 -0.3120 -0.2115 -0.1075
15844W        W35378  12.803  14.637   1.141 -0.2155  0.2254  0.1196
15845W        W35379  12.389   3.675  13.241  0.0785  0.4104  0.2263
15846W        W35380  12.720   5.485  12.823 -0.0853  0.0397  0.0581
15847W        W35381   7.834   3.842   2.127 -0.0429  0.1332  0.0068
15848W        W35382   8.484  13.806   0.084 -0.1034 -0.0174 -0.0652
15849W        W35383   3.502   2.625  14.519 -0.0407 -0.0039  0.1283
15850W        W35384   4.637  13.296   0.551  0.0626  0.3098  0.1871
15851W        W35385  11.551   9.015   3.035 -0.3105  0.0753  0.0911
15852W        W35386   2.713  13.623  15.564  0.0632  0.1695 -0.1977
15853W        W35387  11.591  15.061   3.401  0.2692 -0.1081  0.2571
15854W        W35388   6.660   4.427   3.107  0.1463 -0.0112 -0.0602
15855W        W35389   5.157  11.021   1.522  0.0542 -0.0055  0.0887
15856W        W35390  14.906   9.299   5.008  0.2513 -0.0129  0.1980
15857W        W35391   3.870   9.657  15.023  0.2401 -0.1151  0.0046
15858W        W35392  16.026   1.143  14.024  0.1548 -0.0556 -0.2304
15859W        W35393  13.142   2.195  15.299 -0.3468  0.1550  0.0010
15860W        W35394  11.797   0.936   2.439  0.1796 -0.1620 -0.0274
15861W        W35395   4.391  14.945   1.785 -0.1204 -0.0402  0.0180
15862W        W35396  16.176  11.301   2.591  0.0304 -0.2389 -0.2906
15863W        W35397  16.502   9.584  17.024 -0.0111 -0.0729 -0.0509
15864W        W35398   4.835   7.911   3.813 -0.1798 -0.2813  0.1125
15865W        W35399  11.186   4.983  16.481 -0.0490 -0.1419  0.1930
15866W        W35400   8.249  12.838   3.097  0.0086  0.2692 -0.1610
15867W        W35401  13.971  14.506   2.134  0.0270  0.2426  0.0448
15868W        W35402   3.904   0.442  12.262 -0.1035 -0.0984 -0.0913
15869W        W35403   4.853   8.625   2.297  0.2435  0.2888  0.2566
15870W        W35404  17.161   4.177  16.273  0.0063 -0.0206 -0.1293
15871W        W35405   5.504   0.813  15.511  0.0398  0.0302 -0.2206
15872W        W35406   5.858   6.883   1.005  0.1505 -0.1721  0.1491
15873W        W35407  13.891   7.620   4.845 -0.3478 -0.0331  0.3111
15874W        W35408   1.645  10.505   4.688  0.1571 -0.0867  0.0076
15875W        W35409   2.704  12.440   2.861  0.0128 -0.1175  0.2587
15876W        W35410   3.317   0.186   2.553 -0.1058 -0.1448  0.0967
15877W        W35411  15.234   8.301   4.713  0.1449 -0.2311  0.0593
15878W        W35412  14.541   5.166  14.151 -0.1353 -0.2290 -0.2183
15879W        W35413   6.404  16.140  14.028  0.0637  0.0222 -0.0924
15880W        W35414   9.498  12.460   1.483 -0.0340  0.2674 -0.1559
15881W        W35415  10.441   8.423  14.024 -0.0796  0.0299 -0.0897
15882W        W35416  11.930   9.407  12.536 -0.0329 -0.0495 -0.0785
15883W        W35417   2.738  16.994  15.070 -0.0119  0.1193  0.0995
15884W        W35418   4.027   2.575  15.355  0.0517  0.1196  0.0864
15885W        W35419  14.885   6.129   4.082 -0.1340 -0.0067  0.2823
15886W        W35420   1.681   1.280  16.661  0.1051  0.1348  0.0274
15887W        W35421   9.540   6.053  12.336 -0.3740 -0.0508 -0.4185
15888W        W35422   6.749   1.830  12.710  0.0875  0.0893  0.1218
15889W        W35423  10.356   8.377  16.478 -0.0827 -0.2399  0.1218
15890W        W35424   4.254   7.229  15.501  0.3454 -0.1042  0.2675
15891W        W35425   3.411   5.572   4.515  0.0221 -0.1931  0.1303
15892W        W35426   0.219   1.516   0.459  0.2712  0.1123  0.0540
15893W        W35427  10.022  16.235  16.045 -0.2175  0.0171  0.2009
15894W        W35428  11.655  16.478  16.218 -0.4009 -0.1125  0.0300
15895W        W35429   1.683   7.778  16.971 -0.2014  0.0477 -0.1114
15896W        W35430  11.792   0.528   0.004 -0.2214  0.0670  0.0324
15897W        W35431   6.537   3.494  15.857 -0.1101  0.2628 -0.0603
15898W        W35432   6.017  17.513   2.664  0.1172 -0.0272 -0.1451
15899W        W35433   9.623  15.325   3.741  0.3913 -0.0167  0.0288
15900W        W35434  14.019   2.958  12.563  0.0595  0.1223  0.0854
15901W        W35435   5.585   9.267   2.860  0.1720 -0.0587 -0.2952
15902W        W35436   5.746   7.126  15.207  0.0893  0.2685  0.0431
15903W        W35437   1.792   8.758  14.748  0.0288  0.1754  0.1059
15904W        W35438  13.924   9.720  16.273 -0.3003  0.0790  0.0256
15905W        W35439   0.931  12.681   2.539 -0.2398 -0.1972 -0.0217
15906W        W35440   9.569  10.854  14.326 -0.1591  0.1227 -0.1585
15907W        W35441   7.906  15.904   2.296 -0.0056  0.0463 -0.6180
15908W        W35442   4.111   8.317   3.254 -0.4739 -0.0169  0.2611
15909W        W35443  12.964   0.273  14.154 -0.1752 -0.0349 -0.2274
15910W        W35444  15.739  15.142   0.482 -0.1036  0.1011  0.0129
15911W        W35445  10.096  16.381   1.675 -0.1295  0.0146 -0.1183
15912W        W35446   2.097   1.101  15.080 -0.2388 -0.1525 -0.3165
15913W        W35447   3.251   2.014   3.517 -0.1308  0.0596  0.2117
15914W        W35448   9.626  14.642  13.809  0.0036  0.0004 -0.0938
15915W        W35449   3.172  14.865  12.951 -0.0373  0.1589  0.3045
15916W        W35450  13.548  16.072  12.631  0.0865 -0.4040 -0.4520
15917W        W35451   9.887   4.698   1.809  0.0859  0.0551 -0.0800
15918W        W35452   8.543   3.404  14.846  0.0449 -0.0409 -0.4086
15919W        W35453   2.800   0.085  14.951  0.0503  0.1945 -0.4027
15920W        W35454  14.819   5.676   6.442  0.1526 -0.0814  0.0987
15921W        W35455   7.569  15.451   4.384  0.0756 -0.3113  0.1520
15922W        W35456   2.641  14.975  12.020 -0.0405  0.3399 -0.2345
15923W        W35457   2.904   7.260   4.672 -0.2176 -0.5266 -0.1515
15924W        W35458  15.209  16.975  16.417  0.1081  0.0111  0.3665
15925W        W35459   7.240   7.938   0.570 -0.0502 -0.0599 -0.2167
15926W        W35460   9.507  13.619   4.171 -0.0075 -0.1190 -0.1186
15927W        W35461   9.632   4.640  15.537 -0.0422  0.1031  0.1309
15928W        W35462  17.528  12.381  12.615  0.0563  0.0296 -0.1393
15929W        W35463  14.365   8.663   4.311 -0.1370 -0.1616  0.3841
15930W        W35464  17.296   5.351   1.818  0.1272 -0.2727  0.1305
15931W        W35465   8.108   8.829   4.772  0.1168  0.0734 -0.1231
15932W        W35466  11.015   2.557   0.242 -0.1960 -0.0788  0.0780
15933W        W35467   8.648  15.650   0.603  0.2866 -0.1470  0.1283
15934W        W35468   1.873   0.344   0.108  0.0218  0.1165 -0.2495
15935W        W35469   3.293   7.580  14.241  0.1556  0.0483  0.3393
15936W        W35470  11.253   0.215   4.924  0.1449 -0.0413  0.0894
15937W        W35471   0.832   8.361   0.164  0.0784  0.1343 -0.0193
15938W        W35472   0.990   6.091   0.861  0.1763 -0.2832 -0.1922
15939W        W35473  17.505  16.475  13.559  0.0445  0.1998 -0.2263
15940W        W35474   8.473  13.289   0.472 -0.0507 -0.1292  0.0974
15941W        W35475   6.261   9.055  13.693  0.1710  0.2354  0.0288
15942W        W35476   0.128  17.072   1.186  0.1391 -0.0282  0.0196
15943W        W35477   3.593  15.590   4.591  0.1346  0.1132 -0.2270
15944W        W35478   6.533  16.220  12.725  0.0260 -0.0113 -0.1963
15945W        W35479  11.164  17.047  15.626 -0.1746  0.0460 -0.0608
15946W        W35480  13.371  17.448  15.005 -0.2164 -0.0232 -0.1598
15947W        W35481   6.288   4.179  14.856 -0.2184  0.3302 -0.0617
15948W        W35482   7.526   1.555   2.253 -0.3325 -0.1921  0.1517
15949W        W35483  13.563  16.192   3.519  0.0624 -0.0955  0.2108
15950W        W35484   7.025   0.992   0.031 -0.2791 -0.1506  0.1611
15951W        W35485   3.757   7.256   4.353  0.0272 -0.1787 -0.0654
15952W        W35486  12.925   3.965   1.479 -0.0198  0.0224 -0.0120
15953W        W35487   5.186   6.656   4.334  0.0308  0.0855 -0.0894
15954W        W35488  15.215   8.568  14.010  0.4366 -0.2208  0.1836
15955W        W35489  15.982   8.889  16.349 -0.0732 -0.1445  0.0482
15956W        W35490   6.928   3.639   0.002  0.0637  0.0029 -0.0607
15957W        W35491  17.346   7.500   2.423 -0.1850 -0.1611 -0.0104
15958W        W35492   2.859  15.271   0.778 -0.3057  0.2654 -0.1283
15959W        W35493   4.105  13.126   4.033 -0.3970  0.1137 -0.1744
15960W        W35494   4.470   7.607   0.195  0.1956 -0.1087  0.0974
15961W        W35495   0.098  17.260  15.278  0.4056 -0.1577  0.0033
15962W        W35496  12.342   9.658  16.064 -0.4386 -0.0181 -0.3916
15963W        W35497   7.539   8.022  12.127  0.0342 -0.1569 -0.2229
15964W        W35498  10.324  13.180   4.008 -0.3015  0.0673  0.3083
15965W        W35499  12.101   3.429   3.452  0.1892 -0.0497 -0.0517
15966W        W35500   8.052  10.648   3.623  0.2338  0.1825 -0.4028
15967W        W35501   7.343   0.798  15.702  0.1098  0.1188  0.0290
15968W        W35502   9.689  13.456   3.213 -0.2972  0.0213 -0.0982
15969W        W35503   7.899   1.198   2.178  0.2228 -0.3517  0.0524
15970W        W35504   2.235   9.565   0.071 -0.2630 -0.2312  0.4676
15971W        W35505  10.934   3.356  16.963 -0.2980  0.1378  0.0281
15972W        W35506   5.074   4.429   0.481 -0.2032 -0.1115  0.3108
15973W        W35507   4.362  16.333   4.459 -0.0229 -0.0639 -0.2548
15974W        W35508  13.897   8.113  14.639  0.2652 -0.1364  0.1254
15975W        W35509   1.853   4.312   2.130  0.1103 -0.0811 -0.0905
15976W        W35510   0.851  14.946   3.563 -0.0141 -0.0451  0.1575
15977W        W35511  15.824  15.843  14.246  0.0845 -0.0103 -0.1509
15978W        W35512   5.042  10.961  12.029  0.0248  0.0845  0.0797
15979W        W35513   9.393   5.765  14.051  0.0518 -0.0047 -0.2441
15980W        W35514  11.901   0.226   1.602 -0.0200  0.1299 -0.0780
15981W        W35515   1.314   4.622  16.038 -0.2328 -0.1634  0.0419
15982W        W35516   5.237   6.189  14.621 -0.0863 -0.0490  0.0402
15983W        W35517   8.157   0.550  12.268 -0.0372 -0.2681  0.2080
15984W        W35518   6.762  12.724  12.107  0.3112  0.0164 -0.1360
15985W        W35519   8.898   4.846  17.003 -0.0745 -0.3507 -0.1679
15986W        W35520   7.182  10.486   3.404 -0.0364 -0.0461 -0.0994
15987W        W35521  17.490  10.555   1.612  0.2480  0.0239 -0.1786
15988W        W35522   0.320  13.676  12.875  0.2791 -0.2317  0.0644
15989W        W35523   8.721  16.046   4.845  0.0193  0.0758 -0.0912
15990W        W35524  14.359  15.891   3.291  0.0793 -0.1919 -0.0006
15991W        W35525   2.158  15.626   1.915 -0.3090  0.2927 -0.0494
15992W        W35526   8.404  16.751  16.925 -0.0954 -0.1766  0.0089
15993W        W35527   4.489   2.767  15.612  0.1442  0.1845 -0.1189
15994W        W35528   1.079   8.434   2.998 -0.0279  0.2797 -0.1234
15995W        W35529   7.891   0.640  13.154  0.0459  0.2634 -0.0939
15996W        W35530  14.639  12.284   3.544  0.0822 -0.3651  0.0728
15997W        W35531  16.424   5.522   1.664 -0.0870 -0.1935  0.0820
15998W        W35532   3.888  11.577   0.136 -0.0986  0.0476 -0.1864
15999W        W35533  11.397   1.849  14.981 -0.0789  0.2589  0.4476
16000W        W35534   0.130  13.266  14.370 -0.1136  0.1790  0.2395
16001W        W35535   5.315   6.024   1.933 -0.0622  0.0170 -0.1791
16002W        W35536   1.697  16.702   1.016 -0.2500 -0.2181 -0.3820
16003W        W35537   9.408  13.573   3.674  0.2271 -0.0027 -0.2037
16004W        W35538   3.671   5.151   1.491 -0.0704  0.0243  0.0170
16005W        W35539  15.808  11.455   0.006  0.2092  0.1672  0.0357
16006W        W35540  15.836  12.960  13.155 -0.1057 -0.1302 -0.0678
16007W        W35541  11.009  15.948  14.461 -0.2194  0.2858 -0.1113
16008W        W35542   9.291   8.814   4.887  0.4514 -0.0482 -0.0404
16009W        W35543  12.162  12.295  16.270 -0.2153 -0.1158 -0.1404
16010W        W35544   9.362   5.339   1.685  0.0354 -0.1991  0.1100
16011W        W35545   2.492   6.307   3.925 -0.2958 -0.0349 -0.2289
16012W        W35546   0.258   3.570  14.390  0.0458 -0.2669  0.0639
16013W        W35547   3.584   9.245   4.790 -0.0101  0.2065 -0.1776
16014W        W35548   4.173   4.578   3.303  0.0326  0.0861 -0.1174
16015W        W35549  15.903   8.934   1.578 -0.0742 -0.0318  0.3373
16016W        W35550   5.316   2.758   3.053 -0.2084 -0.0324 -0.1305
16017W        W35551  10.823   2.825   1.743 -0.1418 -0.2257 -0.0808
16018W        W35552   5.433  17.544   2.616  0.1008  0.2023 -0.2126
16019W        W35553  10.200   9.787   2.291  0.0245  0.0980 -0.1405
16020W        W35554   0.826  12.330  13.456  0.1883  0.0588 -0.1572
16021W        W35555   0.655  13.110  15.109  0.0462 -0.2639 -0.0327
16022W        W35556  13.053   7.479  15.445 -0.3510 -0.0711  0.3238
16023W        W35557  14.592   6.657  12.465  0.0041  0.0224 -0.0917
16024W        W35558  12.728   6.217  14.889 -0.0824 -0.0776  0.0828
16025W        W35559   6.418   7.968  14.797 -0.1420 -0.0211  0.0315
16026W        W35560   2.483   3.696   0.988  0.3146 -0.0402  0.1115
16027W        W35561   8.476  12.638  12.541 -0.0659  0.2984 -0.0850
16028W        W35562   1.374   4.436   2.596  0.0922  0.0530  0.1082
16029W        W35563   9.363  15.150   2.433 -0.1441  0.0784 -0.2303
16030W        W35564  16.297   6.531   1.357  0.1350 -0.2454 -0.1057
16031W        W35565  17.119  11.790   1.166 -0.1001 -0.2903 -0.1034
16032W        W35566   5.934   3.594   2.907  0.0607 -0.0773  0.1171
16033W        W35567  11.529   1.623  14.093  0.1803 -0.0579  0.1411
16034W        W35568   4.077   1.897  12.358  0.1852  0.0735 -0.0370
16035W        W35569  10.480  14.066  12.607 -0.1197 -0.1141  0.0780
16036W        W35570   7.149   3.829  16.664 -0.0693 -0.0844  0.1682
16037W        W35571   1.638   3.957   4.721 -0.4987  0.0838  0.0178
16038W        W35572  14.336   8.233   4.602  0.0535  0.2846 -0.0470
16039W        W35573   3.106  16.531   3.202  0.0126  0.0160  0.0692
16040W        W35574  11.160   7.504   2.089  0.1077  0.2588  0.1672
16041W        W35575   9.094   7.873  14.716  0.1546  0.0942 -0.2855
16042W        W35576  12.082   0.566  13.988  0.2506 -0.4240 -0.3766
16043W        W35577   7.205   2.832   1.045  0.1102  0.1656 -0.0069
16044W        W35578   9.756   7.006  15.271 -0.1130  0.2132 -0.4920
16045W        W35579   6.516   1.046  12.713 -0.0226  0.0535 -0.1846
16046W        W35580   5.893  17.374  13.374  0.1124  0.0026 -0.0195
16047W        W35581   4.633  14.871   3.861  0.2050 -0.1796  0.2735
16048W        W35582  12.861  12.556   0.459 -0.3754 -0.0814 -0.1414
16049W        W35583   7.277   9.958  16.282 -0.1643 -0.0082 -0.0430
16050W        W35584   7.814  10.254   1.710 -0.1776  0.0879  0.1221
16051W        W35585  14.394   2.097  12.175 -0.2072  0.1912 -0.0758
16052W        W35586   5.527   1.679  13.380 -0.1506  0.0544 -0.0203
16053W        W35587   3.689  10.944   1.466  0.3974  0.2108 -0.0106
16054W        W35588   9.814   2.347  13.268 -0.1382 -0.3622  0.1182
16055W        W35589   4.924   3.834   2.948  0.2823 -0.1509 -0.2617
16056W        W35590  12.082  11.379  14.945 -0.0291 -0.3888 -0.0284
16057W        W35591  11.192   1.573  14.630 -0.3617  0.0846 -0.1019
16058W        W35592  10.332  12.253   1.471 -0.0701  0.1544  0.2721
16059W        W35593  10.646   1.267   1.678 -0.1687  0.2214  0.4483
16060W        W35594   5.443   2.804  14.151 -0.2078 -0.0273  0.1118
16061W        W35595   1.712   2.382   1.625 -0.0533 -0.1520  0.2725
16062W        W35596   7.353   1.187   0.940  0.1979  0.0171 -0.2633
16063W        W35597   6.026  17.357   0.001  0.0460 -0.0464 -0.6286
16064W        W35598   3.544   0.791   4.989 -0.0917 -0.1057  0.2215
16065W        W35599   4.456   8.156   4.644 -0.0099 -0.1831  0.0095
16066W        W35600  16.971  10.798  14.063 -0.3632 -0.0340 -0.1102
16067W        W35601   8.410  10.630   0.882  0.1257 -0.1205  0.0184
16068W        W35602  12.707   6.956  13.784 -0.1572 -0.2629  0.0249
16069W        W35603   2.771   1.284   4.070 -0.0328 -0.0491 -0.5178
16070W        W35604   0.761  13.765  15.074 -0.1263  0.2067  0.1032
16071W        W35605  16.699   5.078   1.421  0.0522 -0.0782  0.1234
16072W        W35606  11.401   0.342   5.849  0.1611 -0.2675  0.0257
16073W        W35607   1.911  14.089  12.815 -0.0805  0.2972 -0.3414
16074W        W35608   3.349   3.250   1.216 -0.0488 -0.2288  0.2331
16075W        W35609   3.391   9.723   0.139 -0.0418  0.0307  0.3531
16076W        W35610   6.623   8.635   4.580 -0.3694 -0.1583  0.0969
16077W        W35611   3.925  13.800   2.921  0.1243 -0.0780 -0.3148
16078W        W35612   4.889   0.675   2.449  0.0984  0.0498  0.1100
16079W        W35613  10.430   7.081   0.470 -0.0953  0.4272  0.0259
16080W        W35614  10.700  11.682  12.126 -0.1610  0.2553 -0.1610
16081W        W35615   1.144  16.692   3.870  0.1430  0.1558 -0.3247
16082W        W35616  15.316  11.206  16.997 -0.1513 -0.1815  0.0517
16083W        W35617  10.492   0.819   1.427 -0.1920  0.1247  0.0778
16084W        W35618   5.350   2.552  14.778  0.0955  0.0936  0.2794
16085W        W35619   0.496  15.895   1.220 -0.1345  0.1078  0.1432
16086W        W35620   8.484   4.962   3.372  0.3214 -0.0577 -0.0446
16087W        W35621   6.377  10.493  15.078  0.1477  0.0458  0.0616
16088W        W35622   6.683   2.847  12.820 -0.1119 -0.1663 -0.1990
16089W        W35623  14.482  10.326  16.357  0.0259 -0.0029 -0.0616
16090W        W35624   8.018  12.203   4.439  0.2477  0.2496 -0.0108
16091W        W35625   0.069   7.881  15.693 -0.3313  0.1282  0.1095
16092W        W35626  15.965   2.062  16.301 -0.0202 -0.1251 -0.1657
16093W        W35627  16.012  12.109   3.734  0.1612 -0.2119  0.0373
16094W        W35628   3.958   8.364  13.691  0.2127 -0.1246  0.2072
16095W        W35629   9.486  12.454  15.137 -0.0802 -0.0330 -0.0507
16096W        W35630   3.029   5.343   0.104  0.2257  0.0710  0.0109
16097W        W35631  13.737   8.270  12.998 -0.1233  0.1610  0.0726
16098W        W35632  12.625   2.022   3.730 -0.0472 -0.1166  0.2875
16099W        W35633   6.062   5.761  16.555  0.0674 -0.0898 -0.0387
16100W        W35634   5.379  11.846   1.360  0.1965 -0.1514 -0.0607
16101W        W35635   0.658   5.488   3.775  0.1343 -0.1392  0.0462
16102W        W35636  17.414   5.722  13.577  0.0868  0.5303 -0.5230
16103W        W35637   9.139  15.239  15.564 -0.2328  0.0280  0.3251
16104W        W35638   7.347  11.929  12.451 -0.0869 -0.1678  0.2131
16105W        W35639  13.716   0.672  13.798  0.2412  0.0413 -0.1568
16106W        W35640  17.212   0.563   3.477 -0.0254 -0.2042 -0.3904
16107W        W35641  17.615   3.425   3.284  0.2301  0.1145  0.0323
16108W        W35642   8.652  14.478  12.779 -0.0483  0.0271  0.1783
16109W        W35643   3.202   6.543   1.999  0.1109 -0.3366  0.0025
16110W        W35644   2.335   8.641   4.349  0.2040 -0.2401  0.2203
16111W        W35645  11.954   4.275   4.978  0.0681 -0.0070  0.0775
16112W        W35646  12.910   4.619  13.618  0.3725  0.0810  0.1066
16113W        W35647   2.203   1.798   4.598 -0.2392 -0.1102  0.1174
16114W        W35648   5.319  15.721   2.365  0.1642  0.0909  0.2516
16115W        W35649   7.041  10.697  16.853 -0.0930 -0.0479  0.0545
16116W        W35650   0.493   9.648  16.005 -0.0609  0.0015  0.1512
16117W        W35651   9.588  10.595   0.489  0.0749 -0.3553  0.0677
16118W        W35652   5.890  15.175   3.809 -0.1768  0.0878 -0.0055
16119W        W35653  14.052   1.984   1.952  0.0019  0.0599 -0.0829
16120W        W35654  14.402   3.199  15.089  0.5042 -0.1910 -0.0886
16121W        W35655  10.395   0.904   2.744 -0.2659 -0.2270  0.2631
16122W        W35656   2.711   0.741  15.355 -0.0939  0.0186  0.3135
16123W        W35657  14.745  12.686   2.677 -0.0068 -0.1043 -0.4599
16124W        W35658  15.332   0.897  14.300 -0.0320 -0.3789  0.1438
16125W        W35659  10.625   3.816  12.245 -0.0391 -0.1280 -0.1671
16126W        W35660   6.476   5.444  13.598 -0.0886 -0.3704 -0.0910
16127W        W35661   7.725   0.705   0.902 -0.0686  0.1334  0.2435
16128W        W35662   3.695  17.473   4.601  0.3244  0.1472  0.3443
16129W        W35663   3.050  10.538  15.499  0.1215  0.2930  0.0298
16130W        W35664   2.328   2.139   3.124  0.0089 -0.2475  0.3021
16131W        W35665  17.013  14.636  13.563 -0.1133 -0.1781  0.0968
16132W        W35666   3.769   7.073   4.840 -0.1313  0.0311 -0.0487
16133W        W35667   4.915   6.913  15.695 -0.2389  0.1984 -0.1793
16134W        W35668   2.674  13.912   4.300 -0.0480  0.0560  0.0029
16135W        W35669   1.315   1.005  14.238 -0.1607  0.1648  0.1586
16136W        W35670  16.407   6.496   3.982  0.0456 -0.0821 -0.1566
16137W        W35671  17.329   4.651   3.558  0.3409 -0.1276 -0.2336
16138W        W35672  13.192  12.412  12.688 -0.2821  0.2445 -0.0104
16139W        W35673  17.066  15.659  15.611 -0.3275 -0.1257 -0.1510
16140W        W35674   2.163   8.812  13.656 -0.0939  0.1434 -0.3512
16141W        W35675  12.619  14.924   1.462  0.1093 -0.2351 -0.0945
16142W        W35676   4.817   0.410  13.365  0.0468 -0.0967  0.0663
16143W        W35677  17.349  10.440  15.365  0.0740 -0.1297 -0.1186
16144W        W35678  10.064  12.067  14.085  0.3414 -0.0005  0.1077
16145W        W35679  13.869  11.452  12.120  0.0754  0.4432 -0.3491
16146W        W35680   7.275  14.774  12.103 -0.0585  0.0016 -0.1758
16147W        W35681   5.909  12.656   3.345  0.3162 -0.3732 -0.0097
16148W        W35682  12.319   9.125   4.726  0.0904 -0.1093 -0.0252
16149W        W35683  15.734   9.058   2.128  0.0184 -0.1176 -0.1214
16150W        W35684   6.578   2.896  11.511 -0.1675  0.0928 -0.0097
16151W        W35685   0.878  15.500   0.793 -0.1611 -0.1774  0.1288
16152W        W35686  12.581   8.252  13.631  0.2153 -0.2883  0.2346
16153W        W35687  17.134   8.583   5.186  0.2473  0.1963  0.1516
16154W        W35688   6.354  16.246   3.928  0.3785 -0.0138  0.1517
16155W        W35689  10.235  13.704   0.866 -0.0777 -0.0881 -0.0619
16156W        W35690   4.270   5.471   0.875 -0.3629  0.0065 -0.2323
16157W        W35691   5.512   9.046   4.851 -0.1170 -0.1732  0.0102
16158W        W35692   2.114  13.170   3.276  0.2180  0.0255  0.3501
16159W        W35693   4.956   2.571  12.522 -0.1674  0.1238 -0.0164
16160W        W35694   0.418  17.241  16.385 -0.1771  0.1383 -0.2513
16161W        W35695   6.606   3.887   3.951  0.0825 -0.1139 -0.2091
16162W        W35696   0.545  14.950   4.643 -0.1516  0.1878  0.0339
16163W        W35697  13.090  17.131  16.717  0.1052  0.1482  0.1911
16164W        W35698   2.431   7.150  14.333 -0.2423 -0.0018 -0.2417
16165W        W35699   9.262   4.546  13.478  0.1174 -0.0026  0.0541
16166W        W35700  17.335  17.421  15.696  0.2721 -0.3176 -0.1753
16167W        W35701  12.860  13.545  15.320  0.1719 -0.2887  0.1805
16168W        W35702  16.967   5.366  15.637 -0.0758 -0.0858 -0.0869
16169W        W35703  11.156   4.599   2.274 -0.2030  0.1347 -0.0876
16170W        W35704   4.955   7.497   0.930  0.0733  0.0425 -0.0888
16171W        W35705  10.567   0.441  13.633  0.1149 -0.0937  0.3147
16172W        W35706  15.812  16.233  15.152  0.1357 -0.0052  0.2173
16173W        W35707   6.518  14.399   2.310  0.1452  0.1046 -0.0743
16174W        W35708   4.109   2.869   4.820 -0.0491 -0.0194 -0.0718
16175W        W35709   8.377   9.599   1.069 -0.0558 -0.0544 -0.1278
16176W        W35710  13.227  14.909   1.164 -0.0816  0.0352 -0.0133
16177W        W35711  14.069  14.117   3.513 -0.2616  0.1149  0.1824
16178W        W35712   7.673  14.231   1.198 -0.1178 -0.1637  0.3479
16179W        W35713  10.902  13.394   3.324 -0.0015 -0.1790  0.0266
16180W        W35714   9.348  16.987   1.151  0.1456  0.1655  0.0034
16181W        W35715  11.966   8.982   1.867  0.1609 -0.1380 -0.1265
16182W        W35716  11.416   2.083   3.228  0.0093  0.1516 -0.0097
16183W        W35717  17.170   9.397  14.865 -0.2185  0.1012 -0.0884
16184W        W35718   7.415  11.840  13.051 -0.0888 -0.1245 -0.0237
16185W        W35719  11.514   9.749   4.942  0.0295 -0.0592 -0.3015
16186W        W35720   1.715   7.361  15.207 -0.2300 -0.0015 -0.1355
16187W        W35721  15.416  12.675  13.152  0.1813 -0.2979 -0.2558
16188W        W35722  16.402   0.582   0.588  0.2176  0.0035  0.0758
16189W        W35723   1.351   2.091   4.460  0.0110  0.2938 -0.0879
16190W        W35724   5.208   3.768  15.948  0.3531  0.4317 -0.2138
16191W        W35725  14.555  11.036  11.798 -0.0817 -0.1041  0.1598
16192W        W35726   2.104  15.845   3.939  0.2415  0.0722 -0.1179
16193W        W35727   7.714  17.492  16.850  0.2053 -0.2910 -0.1586
16194W        W35728   7.777  10.420   4.008  0.1971  0.0750 -0.3462
16195W        W35729   8.064  15.432   4.568  0.2854  0.1892 -0.3502
16196W        W35730  15.837  16.383  13.375  0.0920  0.2067  0.3895
16197W        W35731   3.903  15.338  16.960 -0.0659  0.0339  0.1721
16198W        W35732  17.610  15.283  16.760 -0.0167  0.1377  0.0078
16199W        W35733   5.880   8.810   4.068  0.0054 -0.1882 -0.0227
16200W        W35734   1.198  16.438   3.172 -0.0021 -0.1452 -0.0651
16201W        W35735   2.572  10.428  16.221 -0.2476  0.1873 -0.2571
16202W        W35736  12.320  12.089  16.760  0.2785  0.1768 -0.0254
16203W        W35737  10.422   4.743   1.797 -0.1474 -0.1094  0.0092
16204W        W35738   3.570  16.687   3.646  0.2144 -0.5008 -0.3751
16205W        W35739  12.722  14.849  16.716 -0.2499  0.0481 -0.3323
16206W        W35740   5.531  13.913   4.365 -0.0802  0.0115 -0.1142
16207W        W35741   3.268   3.607   2.398 -0.3739 -0.0865  0.3766
16208W        W35742  11.627  15.790   1.612  0.1289 -0.0317  0.1397
16209W        W35743   2.976  16.119   3.484 -0.2429  0.2800  0.4707
16210W        W35744  10.078  16.273   1.159 -0.2622 -0.1095  0.2333
16211W        W35745  17.461   1.453   3.749 -0.1943 -0.1237 -0.0877
16212W        W35746   8.663  13.585  14.795 -0.2824 -0.3601 -0.1607
16213W        W35747   9.102  11.492  15.472 -0.0962 -0.0350  0.1208
16214W        W35748  10.517   7.318   1.875 -0.2098  0.2066  0.0734
16215W        W35749  14.408   7.075   2.243 -0.1916  0.1337 -0.0465
16216W        W35750  12.179   7.900  13.862 -0.0381  0.2552 -0.1082
16217W        W35751   6.888  14.244   2.026  0.1705  0.2247  0.1746
16218W        W35752   1.596  13.447   0.884 -0.0995  0.0611  0.3282
16219W        W35753  17.039  15.601   4.720  0.0752 -0.0820 -0.4736
16220W        W35754   4.029   2.120  13.972 -0.0425  0.1018  0.1960
16221W        W35755   7.250  16.229  13.916  0.4088 -0.0747 -0.1168
16222W        W35756   0.892  17.375  12.912  0.1767 -0.0604  0.1035
16223W        W35757  11.422   2.525  12.544  0.3050 -0.0429  0.1095
16224W        W35758  14.004   8.244  15.477 -0.0505  0.2814  0.0347
16225W        W35759   9.044  17.533  13.223 -0.0638  0.0396  0.0187
16226W        W35760   0.238  14.212  16.972 -0.0797  0.1433  0.0747
16227W        W35761   0.732   7.695   3.169 -0.1344 -0.0312  0.0750
16228W        W35762   1.355  10.406   0.284 -0.0973 -0.1773 -0.0716
16229W        W35763   5.286   4.097  16.404  0.4551  0.0085 -0.2659
16230W        W35764   4.583   4.657  12.653  0.0853 -0.1966  0.1806
16231W        W35765  15.965   6.021  15.283 -0.0349  0.0708  0.3844
16232W        W35766   5.643   8.792   2.245 -0.1812 -0.2461  0.1616
16233W        W35767  17.622   2.959   0.351 -0.0494  0.1941  0.5741
16234W        W35768   9.842  13.201  15.815  0.0905 -0.1242 -0.0987
16235W        W35769   7.368   2.473  13.238 -0.1580 -0.1218  0.0335
16236W        W35770   7.854   9.350   2.546  0.0547  0.2016  0.0339
16237W        W35771   3.199  16.090  16.684  0.0489  0.0540 -0.1082
16238W        W35772  15.110   4.841   3.638 -0.2903 -0.1535  0.2605
16239W        W35773   3.614   5.909  16.548  0.1071  0.2332 -0.1011
16240W        W35774  14.697   1.282   1.097  0.3559  0.2133  0.4174
16241W        W35775  14.426  11.277  14.362 -0.0248  0.1294  0.0526
16242W        W35776   5.672  15.404  14.494  0.1097  0.1520 -0.0188
16243W        W35777   7.419   3.054  13.878  0.0740  0.1425  0.3077
16244W        W35778   0.089  15.882   4.874 -0.2442 -0.2677  0.0890
16245W        W35779  16.568  15.375  13.907  0.1210  0.0420 -0.0131
16246W        W35780  15.022   5.478  15.321  0.1069  0.2275  0.3328
16247W        W35781  14.448  16.848  11.907 -0.1794  0.4200  0.0906
16248W        W35782  13.361   2.827   0.000  0.1661  0.0635  0.0030
16249W        W35783  14.585   9.710  12.352 -0.1229  0.1865  0.2689
16250W        W35784   9.077  11.792  16.721 -0.2173  0.0500 -0.3014
16251W        W35785   6.023  11.412   4.452 -0.1914 -0.0186  0.0370
16252W        W35786  12.176  13.661  16.394  0.2430  0.0979  0.1335
16253W        W35787   2.173  16.575   3.420 -0.0752 -0.4629 -0.0871
16254W        W35788  13.410   2.334   3.147  0.4757  0.0108 -0.2355
16255W        W35789   2.673   6.962  12.635  0.0314 -0.0309 -0.1138
16256W        W35790  13.546  13.686   4.044 -0.1765  0.1274 -0.2440
16257W        W35791  12.492   0.580   1.006  0.1962 -0.1058  0.1293
16258W        W35792  12.727  11.215   3.820 -0.2789 -0.2263  0.1800
16259W        W35793  13.296   2.079   4.537 -0.3275 -0.1346 -0.2149
16260W        W35794   7.396   7.592  14.878 -0.2860  0.0757 -0.3702
16261W        W35795   4.541  11.459   2.164  0.2088  0.1120  0.2029
16262W        W35796  12.947  12.158  15.882  0.0027 -0.2851 -0.2101
16263W        W35797  12.702   2.728  13.651  0.0107  0.0815  0.3101
16264W        W35798   3.976   3.678   4.101 -0.0804 -0.1348 -0.0682
16265W        W35799   3.684   1.180  13.023 -0.3029  0.0106 -0.4684
16266W        W35800   1.362  10.025  16.459 -0.1044 -0.0246 -0.3603
16267W        W35801   8.692  14.592  15.830  0.0535  0.0056 -0.1292
16268W        W35802   4.945  14.639   0.844  0.0107 -0.1702  0.0958
16269W        W35803   1.404  14.082  12.770  0.2633 -0.1552  0.1279
16270W        W35804   4.336  15.420  13.596  0.0284 -0.1079  0.1617
16271W        W35805  13.693   4.002   2.294 -0.2968 -0.1173 -0.1471
16272W        W35806   5.015  14.811   3.508 -0.1670 -0.2419  0.1195
16273W        W35807   4.224  12.993   0.160  0.1932  0.1103  0.1521
16274W        W35808  12.569   6.937  14.281  0.1268 -0.3997 -0.0432
16275W        W35809   3.050   4.126  14.113  0.0284  0.0961 -0.0447
16276W        W35810   0.929   3.262  15.984  0.4753 -0.1312 -0.0696
16277W        W35811   1.455  11.210   0.668  0.0411 -0.3046  0.1713
16278W        W35812  11.696  10.396   1.197  0.0656 -0.1634 -0.3726
16279W        W35813  12.662  14.700   4.197 -0.2098  0.2114 -0.0665
16280W        W35814   2.599  14.904   3.070  0.0861  0.3214 -0.2485
16281W        W35815   2.332   7.884   1.530  0.1378 -0.0148 -0.0459
16282W        W35816   1.629  16.548  14.310 -0.0493 -0.3890  0.2812
16283W        W35817   8.305  10.975   5.061  0.0850 -0.0837 -0.0708
16284W        W35818   6.822  11.922  12.151  0.2372 -0.0509  0.0100
16285W        W35819   8.184   7.803   4.853 -0.0054  0.0222 -0.0333
16286W        W35820  12.124   2.440  12.951  0.1975 -0.1925 -0.1341
16287W        W35821   2.601   4.693   4.516 -0.0496  0.3029 -0.2550
16288W        W35822  16.112   7.883  14.684 -0.4005 -0.3991 -0.0408
16289W        W35823   0.423   6.043  12.938  0.2300  0.1109  0.1187
16290W        W35824  16.805  16.606  13.106 -0.0698 -0.0562 -0.0261
16291W        W35825   8.675   8.604  16.193  0.3004  0.1711  0.3002
16292W        W35826  16.114  17.653  12.386 -0.0004  0.1830 -0.2925
16293W        W35827   2.245   2.268  16.566  0.1933 -0.1821 -0.1634
16294W        W35828   2.968   4.416   2.634 -0.1100  0.0099  0.3216
16295W        W35829   6.326  14.704   1.111  0.0015 -0.0036 -0.1688
16296W        W35830   6.280   9.592   4.343  0.0039 -0.1425  0.0927
16297W        W35831  14.315  14.229  12.271  0.0216 -0.0389  0.4138
16298W        W35832  11.682   4.228   2.031 -0.0551  0.1965 -0.1649
16299W        W35833  14.572  17.384  15.329 -0.0951 -0.1558  0.1548
16300W        W35834   7.098   7.027   0.218  0.0536  0.1198 -0.3058
16301W        W35835  16.599   4.281   5.159  0.0415 -0.0292 -0.0167
16302W        W35836   9.056  16.591  16.317  0.0331  0.1375 -0.3734
16303W        W35837  12.409   5.299   4.161  0.0295 -0.1014 -0.1504
16304W        W35838   9.570   9.858   3.181 -0.1299  0.2140 -0.0564
16305W        W35839  17.192   6.825   2.995  0.1618  0.1439  0.2088
16306W        W35840   7.343   5.082   0.625 -0.1159  0.1856  0.1751
16307W        W35841   5.341  16.824   5.198 -0.4085  0.1168 -0.3040
16308W        W35842   2.167   9.504   1.844 -0.3227  0.0626 -0.2758
16309W        W35843  10.701   7.057  11.731  0.0910  0.0067 -0.0109
16310W        W35844  14.286   1.008  16.494  0.2332 -0.2517 -0.1637
16311W        W35845   1.493  10.350  13.122  0.0084 -0.0191 -0.3475
16312W        W35846  11.988   1.404   3.792  0.1803  0.2316  0.3086
16313W        W35847   6.475   0.222  15.061  0.0264  0.0351 -0.0522
16314W        W35848   5.752   8.837  13.687 -0.0416  0.2113 -0.0652
16315W        W35849  12.235  11.875  14.858 -0.0854  0.0880  0.1447
16316W        W35850   5.549  16.238   0.724 -0.1250 -0.0137  0.3045
16317W        W35851  17.085   4.645  12.695 -0.3191 -0.2549  0.0104
16318W        W35852   0.850   5.001  13.674  0.0948 -0.0439 -0.2043
16319W        W35853   1.914   6.596   1.910  0.0456  0.0002 -0.1420
16320W        W35854  13.154   1.420   3.892  0.0619  0.1420 -0.2938
16321W        W35855   3.858  16.447  12.608  0.2022 -0.0298  0.4136
16322W        W35856   1.893   1.554   4.239 -0.0982  0.4542  0.0182
16323W        W35857   4.661   3.570   0.396  0.1147  0.0992 -0.0414
16324W        W35858  11.455  11.257   0.487  0.1327  0.1294  0.2390
16325W        W35859   5.906   0.051  15.766 -0.0803 -0.0079 -0.0069
16326W        W35860  10.512  15.861  13.335 -0.0636  0.5804  0.1086
16327W        W35861  14.847   8.964   0.559 -0.0509  0.0309  0.3628
16328W        W35862  10.174  12.139   0.725  0.0724 -0.2139  0.2827
16329W        W35863  14.764  14.740   2.144  0.1187  0.0443 -0.0120
16330W        W35864  12.561  13.809  13.818 -0.0352 -0.0157  0.3738
16331W        W35865   0.758  12.548  16.611  0.0161 -0.1952 -0.2003
16332W        W35866   3.840  13.264   0.924  0.0942 -0.2594 -0.1079
16333W        W35867   6.918   1.865  14.575  0.0169  0.2747 -0.1160
16334W        W35868  10.768   0.849   1.893  0.1176  0.1021 -0.1513
16335W        W35869   5.556   5.734   2.268 -0.1007 -0.0257  0.2320
16336W        W35870  17.190  14.733   2.861 -0.1188 -0.1514  0.3889
16337W        W35871   0.641  10.120   4.535 -0.1313  0.1812  0.0186
16338W        W35872   5.950   9.264  15.620 -0.0748  0.1242 -0.4236
16339W        W35873  15.332   6.126  13.730  0.0657  0.1093 -0.1313
16340W        W35874   5.530  13.144  15.856 -0.1661  0.0405 -0.0628
16341W        W35875   0.793  10.988  13.361  0.3440  0.0988 -0.1015
16342W        W35876  15.494  11.681  13.387  0.2660  0.5928 -0.0512
16343W        W35877   2.240   0.355  15.605  0.0474  0.0621  0.1251
16344W        W35878   0.686   9.771   0.742 -0.1375  0.0672 -0.2218
16345W        W35879  17.311  10.534  13.026  0.3112  0.0151 -0.1132
16346W        W35880   5.856  13.260  16.228  0.2624  0.0602  0.1300
16347W        W35881   1.207  13.081   3.765  0.3261  0.0413  0.3383
16348W        W35882   7.970   0.314   1.101 -0.0669 -0.0079 -0.0020
16349W        W35883  10.441   6.894   2.156 -0.1455 -0.0388 -0.0453
16350W        W35884  15.875   5.582   0.432 -0.1201 -0.0760 -0.3175
16351W        W35885  12.038   3.815  14.050 -0.3548 -0.2217 -0.2228
16352W        W35886   1.104   5.565   3.422 -0.1398 -0.0487 -0.0592
16353W        W35887   4.828  14.563  16.022 -0.0706 -0.0217  0.1559
16354W        W35888   5.360   4.276  12.839  0.2354 -0.1009  0.0930
16355W        W35889   1.489   2.450   4.762 -0.2706  0.2916  0.1281
16356W        W35890   0.392   2.487   2.944  0.2221 -0.4879  0.1544
16357W        W35891  13.670   7.957   4.539  0.0535  0.1198  0.1942
16358W        W35892   6.484   5.839   4.957 -0.0635  0.1608  0.0914
16359W        W35893   2.252   3.281  13.593 -0.1262  0.1292 -0.2594
16360W        W35894   4.532   7.651   3.592 -0.3638  0.2482  0.0500
16361W        W35895  15.359  13.449  14.364  0.1830  0.1971 -0.1401
16362W        W35896   8.638  10.755   2.116  0.1476 -0.0376 -0.0298
16363W        W35897  16.813  15.104   2.890 -0.1744 -0.0130 -0.1162
16364W        W35898   3.942  14.695   4.802  0.1285 -0.1956  0.2019
16365W        W35899  16.579   9.324  15.713  0.0028 -0.0253 -0.1780
16366W        W35900   7.336  14.708   4.921  0.2020 -0.1539  0.1065
16367W        W35901   9.388  16.076   4.261 -0.0236 -0.3047  0.1371
16368W        W35902  15.994  17.121  15.737 -0.1350 -0.1638  0.0066
16369W        W35903   8.686  14.596   0.218 -0.1748  0.1500 -0.0439
16370W        W35904  12.525   8.904  13.117  0.0623 -0.0633 -0.2791
16371W        W35905   7.127   8.010  15.163 -0.0652  0.1440 -0.0181
16372W        W35906   0.926   4.918  12.470 -0.0438 -0.1538 -0.2201
16373W        W35907   3.064   6.336   4.866  0.2883  0.2643  0.0596
16374W        W35908  16.955  14.319   2.945  0.0414  0.0858  0.0142
16375W        W35909  13.920  17.299  15.426 -0.0400 -0.4461 -0.0505
16376W        W35910   1.287  14.261   1.083  0.0825  0.1169 -0.0037
16377W        W35911   3.075   0.883  15.714  0.1021  0.0571 -0.3738
16378W        W35912   6.219   9.939   0.479  0.5437 -0.0800 -0.3585
16379W        W35913   8.188   4.549  12.132 -0.1325  0.0370  0.0205
16380W        W35914  13.094  13.451   5.354  0.1207  0.2930 -0.0661
16381W        W35915  10.273  10.422  12.318  0.2549 -0.1432  0.1142
16382W        W35916   3.078  16.925   2.203 -0.0292  0.1128 -0.0279
16383W        W35917  13.525  14.217  15.257  0.2014  0.0146 -0.4295
16384W        W35918   5.898  12.161  13.443  0.2115 -0.0024 -0.2505
16385W        W35919  12.194   5.959   3.633  0.0089 -0.1944  0.1683
16386W        W35920  17.554  11.643   3.024  0.0327 -0.0062 -0.2664
16387W        W35921   5.488   4.474   3.657 -0.1267 -0.0637 -0.1321
16388W        W35922  15.881  12.963  11.771  0.2226 -0.1701  0.1103
16389W        W35923  12.912   9.805   2.019  0.0305 -0.0846 -0.2201
16390W        W35924   5.263  14.466  14.358 -0.1056 -0.0340  0.1936
16391W        W35925  14.125   0.765   3.330 -0.3987  0.0105  0.0396
16392W        W35926   6.805   6.219  12.194  0.2057 -0.1410 -0.2205
16393W        W35927  14.228  10.326   4.595  0.1664 -0.3100  0.1676
16394W        W35928   9.992  12.379  13.142 -0.2469  0.0017 -0.0880
16395W        W35929   5.122  10.475   0.423  0.1771 -0.2063 -0.1127
16396W        W35930   7.764   3.845  12.514  0.0709  0.0876  0.1609
16397W        W35931  14.404   0.112  14.979  0.1222 -0.0619  0.3249
16398W        W35932  10.067   7.349   5.349 -0.1774 -0.1649 -0.0824
16399W        W35933   5.371  13.615  14.053 -0.1972 -0.1432 -0.2038
16400W        W35934   2.725  13.664  17.063  0.1758  0.2035 -0.2975
16401W        W35935  12.021   6.498  12.980  0.0096  0.2458 -0.1193
16402W        W35936   6.087   2.448   3.361  0.2209  0.1577 -0.4031
16403W        W35937   4.059   6.316  13.148 -0.1139  0.1116  0.2233
16404W        W35938   5.594  13.283   0.244  0.2336 -0.1673 -0.1652
16405W        W35939  10.802   6.226   3.913 -0.3669  0.1401  0.1658
16406W        W35940  13.473  11.391  14.841 -0.1438 -0.2354 -0.0841
16407W        W35941  16.859   7.347  11.131  0.0886 -0.1236  0.0226
16408W        W35942   1.675  14.386   3.701  0.2692 -0.1922  0.0131
16409W        W35943  10.522   3.148  13.940 -0.1311 -0.0413  0.2270
16410W        W35944   1.944   1.120  16.106  0.3166 -0.1778  0.0563
16411W        W35945   9.178  14.399   4.854  0.3437 -0.2374  0.0982
16412W        W35946  10.421   2.552   1.778 -0.1140  0.4142 -0.0037
16413W        W35947   7.188   2.076  15.586 -0.0063 -0.2420  0.3572
16414W        W35948  11.028  17.127   0.654  0.1425  0.1261 -0.3857
16415W        W35949   5.402   1.994  13.983 -0.0032  0.0965  0.2808
16416W        W35950  14.841   3.167  15.397 -0.2029 -0.2122  0.0670
16417W        W35951   6.264  14.612  15.552 -0.1311  0.0209 -0.2752
16418W        W35952   0.091   8.815   0.462  0.3518 -0.3682 -0.0582
16419W        W35953   6.694   6.185  13.769 -0.1213 -0.0282 -0.0572
16420W        W35954   1.186   1.725  13.448  0.1752  0.1979  0.2330
16421W        W35955  14.032  12.301   1.334 -0.0215 -0.2940  0.2159
16422W        W35956  17.537  13.071   1.369 -0.0747 -0.2013 -0.0229
16423W        W35957   5.424  14.175  14.922  0.0093  0.0811 -0.0207
16424W        W35958  12.629  14.920   4.777  0.3864  0.3094 -0.2742
16425W        W35959  11.390  10.846  12.196 -0.0290 -0.3411  0.4359
16426W        W35960  17.636   8.504  16.271 -0.1972 -0.1751  0.2149
16427W        W35961   6.329  12.389   4.774 -0.0605  0.0897 -0.0805
16428W        W35962  15.724  11.126   3.907  0.3286  0.0803  0.0589
16429W        W35963  17.015  13.890  15.765  0.1122  0.3593 -0.2421
16430W        W35964   2.578   5.459  13.537  0.2120 -0.1793 -0.0339
16431W        W35965  13.404   7.113   2.011  0.1021 -0.1594 -0.0867
16432W        W35966   2.009  16.942   2.946  0.3381 -0.1741 -0.1046
16433W        W35967  12.213   0.940  13.054 -0.1197 -0.1340  0.1258
16434W        W35968   3.246   7.563  16.350 -0.2768 -0.1495  0.4305
16435W        W35969  15.411   1.474   0.599 -0.3861  0.1989  0.3182
16436W        W35970   8.918  14.146   4.476 -0.1039  0.1304 -0.1223
16437W        W35971  15.719  14.362   4.954  0.1913  0.2779  0.4216
16438W        W35972   4.358   7.645  15.757  0.0241 -0.1803  0.0764
16439W        W35973   9.938  13.785  14.916 -0.2454  0.1992 -0.1833
16440W        W35974  10.892  12.198  12.423  0.2724  0.1007  0.2364
16441W        W35975  12.838   3.510   3.241 -0.2440 -0.3779 -0.0188
16442W        W35976   5.957   4.806  16.768  0.3980  0.0643 -0.0759
16443W        W35977  11.619   7.464  14.862 -0.0587  0.1857  0.0570
16444W        W35978   0.575  16.581  16.939  0.2778 -0.1983  0.2889
16445W        W35979  13.853   6.535  16.503  0.1695  0.0491  0.0215
16446W        W35980   0.058  16.513   1.108 -0.1528  0.0673 -0.2504
16447W        W35981  16.603  14.280  12.972  0.3783  0.0141 -0.0189
16448W        W35982  15.030   5.818   0.893 -0.1868 -0.0610 -0.2516
16449W        W35983   9.763  13.984  15.473  0.1230  0.0552  0.0243
16450W        W35984  15.532   9.050  16.563 -0.1515  0.0442  0.1926
16451W        W35985  11.008   2.013   2.155  0.2274 -0.0631 -0.1313
16452W        W35986  12.381   3.407  13.960  0.0817 -0.0144  0.0823
16453W        W35987   4.210   2.360   4.285 -0.1486 -0.0752 -0.2446
16454W        W35988   5.183  15.089   1.461 -0.1840 -0.0330 -0.2120
16455W        W35989  14.988  11.045  16.573 -0.2790  0.0139 -0.2094
16456W        W35990  11.218  14.852   3.679 -0.1794  0.1896  0.2440
16457W        W35991   8.696  16.495  12.749  0.0498 -0.3379 -0.4867
16458W        W35992   7.997   9.175  14.341 -0.2012 -0.1873 -0.0565
16459W        W35993  11.145   8.757  13.706  0.2865  0.0722 -0.2220
16460W        W35994  17.044   1.461  16.897 -0.0012 -0.0392 -0.0822
16461W        W35995  16.097  16.146   3.061  0.1094 -0.1796  0.0491
16462W        W35996   3.964   5.974  13.604  0.1898  0.1430  0.2301
16463W        W35997   5.056   5.472  14.073  0.3075  0.1049 -0.1594
16464W        W35998  15.771  13.116   1.336  0.2436 -0.1157 -0.0570
16465W        W35999   6.616   9.710  12.773 -0.1001  0.1837 -0.0477
16466W        W36000   4.565   4.174   3.863  0.3442 -0.0199  0.0344
16467W        W36001  15.487   3.697   4.221 -0.1496  0.0823 -0.0668
16468W        W36002   2.853   9.103   4.858 -0.1724  0.3043 -0.2857
16469W        W36003   1.235   3.685   1.859  0.0487  0.0044  0.2472
16470W        W36004  17.447  13.783   2.492  0.0053  0.1160  0.3055
16471W        W36005  14.308   0.457  12.587  0.1533 -0.2172  0.3057
16472W        W36006  16.662   9.919  16.305 -0.1074 -0.2074 -0.2419
16473W        W36007   4.678   4.657   0.068 -0.1705 -0.1628 -0.4793
16474W        W36008   7.788   2.499  15.432 -0.0477  0.3524 -0.0573
16475W        W36009   9.211   4.663  15.219  0.0177 -0.0439 -0.2465
16476W        W36010   5.004  16.356  12.843  0.1320 -0.0569 -0.0882
16477W        W36011   4.185  17.637  13.984  0.0212  0.1559  0.1879
16478W        W36012   8.893  16.023  14.540 -0.0908 -0.0691 -0.1286
16479W        W36013   8.681   5.916   0.526 -0.1665  0.1286 -0.0873
16480W        W36014  14.964   1.842  14.414  0.1456  0.2605  0.0827
16481W        W36015   1.408  15.368   0.828  0.0446 -0.0663 -0.0108
16482W        W36016   9.172  17.315   0.132  0.0757 -0.0882 -0.1155
16483W        W36017  11.985   4.498   1.696 -0.0247 -0.0148  0.0122
16484W        W36018  14.017  10.392  12.240  0.0749  0.2568  0.4033
16485W        W36019  10.755  12.476  16.436 -0.4162  0.0931 -0.2042
16486W        W36020   6.986   3.661  14.716  0.0557 -0.1176  0.1143
16487W        W36021  10.959   9.817  13.616  0.0175  0.2850  0.2596
16488W        W36022   3.168  11.270   3.495  0.0546  0.0325  0.1269
16489W        W36023   0.938   1.874  13.994  0.0546  0.1639  0.3617
16490W        W36024   8.018  16.461  16.780  0.2225  0.0736 -0.2237
16491W        W36025  15.509   6.428   4.509  0.0235 -0.1592  0.1463
16492W        W36026  16.935   5.508   1.521 -0.1729  0.1124 -0.1723
16493W        W36027   8.520  16.960  12.577 -0.0300  0.2186 -0.0373
16494W        W36028   5.093  10.584   4.134  0.2477  0.2859  0.2162
16495W        W36029  17.497  10.990  16.658  0.2285  0.1681  0.1908
16496W        W36030   8.472   4.263   1.458 -0.0108  0.0007  0.1675
16497W        W36031   8.524   8.082  16.363 -0.1153 -0.2040 -0.0669
16498W        W36032   8.552   2.867   3.704 -0.0499  0.1150 -0.0815
16499W        W36033  11.942   4.695  16.722 -0.3012  0.0268  0.1422
16500W        W36034   7.152   1.903   3.677 -0.1612  0.0416 -0.2081
16501W        W36035   3.949   8.886   1.967  0.0257  0.2429 -0.1419
16502W        W36036   8.381  16.219   3.460 -0.1288 -0.1250  0.4057
16503W        W36037   8.961   4.345   0.763 -0.1874  0.1868 -0.0139
16504W        W36038  14.087  14.815   2.908 -0.1459 -0.0414 -0.1353
16505W        W36039  15.447  12.533   0.305  0.2217 -0.1222  0.1959
16506W        W36040   7.186   1.285   4.096  0.1192  0.2532 -0.1822
16507W        W36041   9.132   5.227  12.966 -0.2183  0.2036 -0.2111
16508W        W36042   7.418   1.832   4.932  0.1688 -0.0534 -0.2866
16509W        W36043   9.311  11.421   4.890  0.3693 -0.1586  0.0284
16510W        W36044  16.543  16.401   3.826 -0.2777 -0.2032 -0.2550
16511W        W36045  14.361   0.052  13.844  0.3191 -0.3317  0.1815
16512W        W36046  16.672   8.425  16.167  0.2755  0.0753 -0.1060
16513W        W36047   5.965   7.928   1.969 -0.2800  0.4004  0.0482
16514W        W36048   4.841  15.845  16.198  0.5174 -0.0731  0.0891
16515W        W36049  10.908   4.276   0.967  0.2333  0.0689 -0.2503
16516W        W36050  11.432   1.902  13.722 -0.0624 -0.1433 -0.0994
16517W        W36051  13.532   8.628  14.910  0.0014 -0.0558  0.0426
16518W        W36052   9.772  14.347   2.925  0.0831  0.0075 -0.0862
16519W        W36053   3.000  13.883  16.616  0.1168  0.2014 -0.3297
16520W        W36054  11.308   0.807  16.669  0.0316 -0.0705 -0.1152
16521W        W36055   4.463  13.752  13.474 -0.0790 -0.1056 -0.1631
16522W        W36056   5.877  12.568  13.812  0.3040 -0.0676  0.0827
16523W        W36057   7.204   2.543   4.673 -0.2821 -0.3598 -0.2877
16524W        W36058   5.103   3.434   1.250 -0.2132  0.1195 -0.2169
16525W        W36059   0.710  10.801   2.716 -0.0554  0.0465  0.0385
16526W        W36060  15.618  15.072   3.997  0.0468 -0.3462 -0.2941
16527W        W36061  17.122   2.222   0.404  0.0699 -0.0583  0.0980
16528W        W36062   8.079   5.721  12.807 -0.2107  0.1018 -0.0557
16529W        W36063  16.816  16.799  12.645  0.1114  0.0657 -0.1162
16530W        W36064   9.532  16.423  13.712  0.0561  0.0367  0.1411
16531W        W36065  11.088  10.235  11.216  0.0604 -0.0504 -0.2561
16532W        W36066  10.467   3.922   4.457 -0.1002  0.0829  0.0772
16533W        W36067   8.785   4.151   3.051  0.0795  0.1082 -0.0322
16534W        W36068   1.712  10.619  12.249 -0.0741  0.0673 -0.0167
16535W        W36069  16.673   7.152   4.674 -0.0848 -0.0836  0.1338
16536W        W36070   8.229  13.940  12.032 -0.1365 -0.0721  0.0178
16537W        W36071  13.089  13.210  12.239 -0.0312  0.2303  0.0442
16538W        W36072   1.311  12.914  14.048  0.0085  0.0332 -0.1713
16539W        W36073   4.537   9.074  13.891  0.1402 -0.1124  0.3726
16540W        W36074  15.506  17.437   0.481  0.1415  0.1969  0.0796
16541W        W36075   2.721   5.060   4.796  0.0151 -0.0877  0.2377
16542W        W36076   8.088  14.816  14.234 -0.1019 -0.1060  0.1785
16543W        W36077  15.044  15.314  12.349  0.0684  0.1612  0.1115
16544W        W36078   7.232   7.461   5.014 -0.0861  0.0901 -0.1575
16545W        W36079  10.908   5.265  13.773 -0.0909  0.2195 -0.1100
16546W        W36080  14.642   4.449  13.597  0.0420  0.0968  0.0386
16547W        W36081   9.602   9.154   4.002 -0.1621 -0.1768 -0.1029
16548W        W36082   9.052  11.641   2.492  0.0457  0.3669  0.1451
16549W        W36083   5.388   8.051   2.978 -0.0104  0.1440 -0.3756
16550W        W36084  16.496   2.537  14.936  0.1450  0.3001  0.0609
16551W        W36085  15.614   7.569  13.866  0.0358 -0.0301  0.0618
16552W        W36086  12.843  16.619  13.484 -0.1696 -0.0829  0.1895
16553W        W36087  11.909  12.100   2.592 -0.1107 -0.1509  0.0817
16554W        W36088   2.178   2.707  16.838  0.0136  0.2710  0.0104
16555W        W36089  11.374   3.844  15.581  0.0120 -0.0453 -0.2454
16556W        W36090  17.185   1.791   4.125 -0.0984 -0.0683 -0.0682
16557W        W36091  12.206  10.726  11.858 -0.0802 -0.4298  0.0012
16558W        W36092  13.301   8.859  12.636  0.3470 -0.1262  0.2497
16559W        W36093  11.742  13.525   0.289 -0.0991 -0.0276  0.2239
16560W        W36094  10.161   3.560   4.728  0.2233  0.0533  0.0396
16561W        W36095   6.410  16.607  13.937 -0.1708 -0.3875 -0.1121
16562W        W36096  12.431   9.814   2.158 -0.0766 -0.0496 -0.1052
16563W        W36097  13.556  14.575   1.341  0.0410 -0.1936 -0.0438
16564W        W36098   8.423   3.241   3.082  0.0546 -0.1589  0.3138
16565W        W36099   4.072  14.382  15.552 -0.0869  0.0798  0.0306
16566W        W36100   9.198   1.726   2.469 -0.0748  0.2141 -0.3140
16567W        W36101   9.557   6.856  13.411 -0.0340 -0.1426 -0.1275
16568W        W36102   3.358  10.292   0.258 -0.0810 -0.1848  0.2420
16569W        W36103   1.552   2.207  13.102 -0.1235 -0.0618  0.2840
16570W        W36104  16.832   7.355  16.613  0.0198  0.0247 -0.0239
16571W        W36105  14.960   9.478  14.874  0.1084  0.1701  0.0753
16572W        W36106  13.545  11.230   0.542  0.4444  0.2879  0.2388
16573W        W36107  11.008  14.965  13.566  0.0972 -0.1821  0.4192
16574W        W36108   6.817  13.801   4.455 -0.1862  0.3517 -0.0138
16575W        W36109  12.427   7.414   2.257 -0.3348 -0.0571  0.2183
16576W        W36110  14.731  15.195   3.410 -0.2064  0.2288  0.0287
16577W        W36111  11.479   1.185   2.081 -0.2777 -0.0611 -0.2716
16578W        W36112  16.149  12.129  15.416 -0.2697 -0.2190 -0.2001
16579W        W36113   9.622  15.454  15.451  0.1312 -0.1732  0.2521
16580W        W36114   8.123  15.273  12.339 -0.0252  0.0115  0.2064
16581W        W36115  13.412  10.102   1.825  0.1121 -0.2049  0.0231
16582W        W36116   3.558  14.957   5.293 -0.2300 -0.0178 -0.1864
16583W        W36117  15.819   6.916   4.398 -0.2415 -0.1273  0.0415
16584W        W36118   8.803  11.783  12.850  0.0005 -0.1065  0.2298
16585W        W36119  12.635  15.518  12.453 -0.0208 -0.0777  0.0908
16586W        W36120   5.838  14.672  16.369  0.1939  0.1185 -0.1343
16587W        W36121   3.256   3.016   4.888  0.1658 -0.0921 -0.0563
16588W        W36122  14.738   9.452  16.874  0.2455 -0.0894  0.0002
16589W        W36123  11.650   6.454  15.908  0.1717 -0.1047  0.1175
16590W        W36124  13.965   4.569   1.592 -0.3452 -0.0717  0.2999
16591W        W36125   3.078  12.258  14.480 -0.0832 -0.2667 -0.2201
16592W        W36126   8.552  17.617   2.915  0.0110  0.0542 -0.1168
16593W        W36127   8.765  11.106  16.316  0.1381 -0.1815 -0.1442
16594W        W36128   0.086   0.647  13.056  0.0119 -0.1485  0.2099
16595W        W36129   1.893   0.778   0.376 -0.1723  0.0517  0.1657
16596W        W36130  14.434   2.717   4.175 -0.0668  0.1371 -0.1593
16597W        W36131  10.648   0.807  16.134  0.2607  0.3242  0.3357
16598W        W36132  14.453   0.564   4.997  0.3566 -0.0985  0.3012
16599W        W36133   6.611   2.908   0.956  0.1882 -0.0247 -0.1484
16600W        W36134   9.318   1.251   2.612 -0.2758 -0.1751 -0.1626
16601W        W36135   2.664   4.418   1.461 -0.2041  0.1966 -0.1276
16602W        W36136  14.712   6.279   1.646 -0.0475  0.1969 -0.0148
16603W        W36137   2.686   4.498   0.430  0.1429  0.2325  0.4060
16604W        W36138   0.760  16.466  14.642 -0.2386 -0.0220 -0.0836
16605W        W36139   9.206   3.671   3.343  0.1572  0.1337  0.2289
16606W        W36140   3.137  15.666  13.766 -0.1896  0.0299 -0.0974
16607W        W36141  16.038  16.854  13.688 -0.2056 -0.1334  0.1695
16608W        W36142  16.509   4.666   3.407 -0.0849 -0.5293 -0.0366
16609W        W36143   7.985  11.927  13.988  0.0242 -0.3097  0.3352
16610W        W36144   0.319   8.357   0.434  0.1448  0.1491  0.2915
16611W        W36145  15.677   5.742   2.818 -0.0413  0.0687  0.3268
16612W        W36146  13.553  15.822  15.975 -0.0162  0.0804  0.0936
16613W        W36147  10.472   0.873  12.906  0.0610  0.0797  0.3638
16614W        W36148  16.875   3.697  14.229 -0.1190  0.1443  0.2306
16615W        W36149  15.821   4.530   4.594 -0.2366  0.2040  0.0651
16616W        W36150   9.155  13.714  11.896  0.0266  0.1518 -0.1857
16617W        W36151   1.390  10.455   1.603 -0.0158 -0.2074  0.1150
16618W        W36152   3.002   9.032  14.570  0.1642 -0.1661 -0.0571
16619W        W36153   4.803   9.871   2.913 -0.1030 -0.1348 -0.1435
16620W        W36154   6.106   7.073   2.477 -0.0247 -0.0093 -0.2722
16621W        W36155   3.333  10.735  17.002  0.1040  0.2645  0.1343
16622W        W36156  13.852  13.731   4.419 -0.2635  0.2259 -0.0095
16623W        W36157   8.144   6.887   3.155  0.1114  0.0335 -0.0346
16624W        W36158  11.102   8.686   5.361  0.1998  0.0631  0.2377
16625W        W36159   5.505   7.683  14.290  0.0050 -0.3283 -0.0710
16626W        W36160  10.468  13.105   0.096 -0.0896  0.0036 -0.0686
16627W        W36161   8.753   4.482   3.452  0.0471  0.1988 -0.0514
16628W        W36162   2.249  10.885   4.509  0.0122 -0.0512 -0.1366
16629W        W36163  13.291  12.994   4.514 -0.1614  0.0199 -0.1190
16630W        W36164  15.091   1.376  13.515 -0.2096  0.0899  0.1279
16631W        W36165   8.016  16.096   3.822 -0.1021 -0.0647 -0.1827
16632W        W36166  17.557  16.944  14.342  0.1137 -0.0283 -0.3519
16633W        W36167  16.874  17.179  15.488  0.3927 -0.0440 -0.1703
16634W        W36168   0.673   1.371  13.523  0.3125  0.2352  0.1214
16635W        W36169   4.393   1.847   1.687  0.3958 -0.0443 -0.1033
16636W        W36170  15.182  16.992   3.559 -0.1381  0.3692 -0.0185
16637W        W36171  16.097   5.332  15.638 -0.3937  0.0011 -0.0112
16638W        W36172   0.007  15.122  12.776  0.1153 -0.0864  0.0898
16639W        W36173  13.851   3.991   3.192  0.1104  0.2258 -0.1149
16640W        W36174  15.889  12.734   0.460  0.1426 -0.1566 -0.0886
16641W        W36175  16.456   1.350   3.733  0.0162  0.1108 -0.0190
16642W        W36176   9.439   2.365  14.255 -0.1858 -0.0877 -0.1575
16643W        W36177   5.695  16.623  16.955 -0.0703  0.1761 -0.0493
16644W        W36178   4.612  12.440   0.990 -0.1771 -0.1986  0.2390
16645W        W36179  14.916  11.077   1.220 -0.3063 -0.1243  0.3875
16646W        W36180  11.096   3.530   3.080 -0.2486  0.1207 -0.0336
16647W        W36181  12.927   2.525  16.667 -0.2605  0.0015 -0.1466
16648W        W36182  11.843  10.969  15.063  0.1971  0.1049  0.1772
16649W        W36183   5.284   9.216  14.341 -0.0605 -0.3255  0.1254
16650W        W36184   6.293   5.625   3.660 -0.0947  0.0857  0.0799
16651W        W36185   3.779   8.065  15.971  0.0370 -0.0881  0.0127
16652W        W36186   7.448   3.924   3.672  0.1754  0.0355  0.2883
16653W        W36187   9.284  10.551  13.134  0.0689  0.0295 -0.1048
16654W        W36188   2.275   9.393   3.211 -0.1179  0.0908  0.0925
16655W        W36189   8.997  13.966  15.003 -0.0335  0.1943 -0.0071
16656W        W36190  14.482   9.095  15.969 -0.1620  0.1502  0.1244
16657W        W36191   8.845   9.710  13.110 -0.0568 -0.2119 -0.0435
16658W        W36192   7.100  17.665   3.324  0.1997 -0.1880 -0.0024
16659W        W36193  12.344  11.736  12.580 -0.0226  0.0033 -0.0764
16660W        W36194   4.963   8.439   4.321 -0.1112  0.2555  0.0970
16661W        W36195  16.636  15.246  14.386 -0.1551 -0.0089 -0.4188
16662W        W36196  12.779   6.863   0.697 -0.2196 -0.0111 -0.1781
16663W        W36197  13.606   6.500   4.791  0.0148 -0.2347  0.2331
16664W        W36198  16.836   2.320  16.552  0.1629  0.2391  0.0342
16665W        W36199  11.634  11.937   3.821  0.0790 -0.0977  0.0324
16666W        W36200  16.327  17.312  16.085 -0.2244 -0.0958  0.2186
16667W        W36201  17.500  12.420  14.249 -0.1750 -0.0944 -0.0048
16668W        W36202   5.740  14.312   4.153 -0.0110 -0.2360 -0.2873
16669W        W36203   6.214   1.062  14.188  0.0923 -0.2741  0.2229
16670W        W36204   4.273  17.259  16.120  0.1526  0.1580  0.5823
16671W        W36205   0.163   5.560  15.042 -0.0459 -0.1142  0.0599
16672W        W36206  13.424   9.262   0.854 -0.0118 -0.0630 -0.0457
16673W        W36207   8.583   4.065  16.649 -0.0340 -0.1133 -0.1577
16674W        W36208   1.486   3.135   3.229 -0.1515 -0.2126 -0.2121
16675W        W36209   1.883   8.303   0.723 -0.1715 -0.0476 -0.2441
16676W        W36210   7.344   7.968  11.639  0.0442  0.1625  0.1160
16677W        W36211   4.903  10.874   1.084 -0.0884 -0.0018 -0.1355
16678W        W36212  14.327   1.009  12.655 -0.1230 -0.0294 -0.0140
16679W        W36213  13.125   1.352  14.378  0.0470  0.1831  0.2454
16680W        W36214   1.367   0.685   5.068 -0.0549 -0.0679 -0.0128
16681W        W36215  16.930  14.724   5.291 -0.2566 -0.3300 -0.1594
16682W        W36216   8.500   4.740   0.651  0.1561  0.0007 -0.1478
16683W        W36217   9.580  12.223   3.077 -0.1772 -0.0841  0.0227
16684W        W36218  10.625   0.700   0.814 -0.0616 -0.0265  0.0433
16685W        W36219  14.079   7.260   1.325  0.0772 -0.1325  0.1478
16686W        W36220  15.836  12.845   3.675 -0.0092 -0.0076  0.0588
16687W        W36221  16.580  14.960   3.581 -0.3079 -0.1075 -0.0274
16688W        W36222   0.872  13.723   1.499 -0.0618 -0.1378 -0.0371
16689W        W36223  14.216  11.987  12.634  0.1745 -0.1535  0.0151
16690W        W36224   3.108   0.608  15.015 -0.0307 -0.0388 -0.0741
16691W        W36225   7.550  13.174   0.843  0.0398  0.1466 -0.0802
16692W        W36226   8.780   8.172   2.431  0.0124  0.2579  0.2232
16693W        W36227   8.513   3.425  13.994 -0.3024  0.1819 -0.0009
16694W        W36228   1.996  10.940  13.217  0.2890  0.0618 -0.1337
16695W        W36229   5.862   9.478   5.043 -0.1085 -0.0237 -0.0553
16696W        W36230   0.522  13.186   4.893  0.0417 -0.1805  0.0552
16697W        W36231   5.122   9.317  16.677  0.1626 -0.3651 -0.1195
16698W        W36232   7.444   0.542  13.974  0.1105 -0.1159 -0.2169
16699W        W36233   5.815   9.512   1.202 -0.0267 -0.2998 -0.0800
16700W        W36234   4.390   8.455  16.545 -0.2099 -0.0200  0.1481
16701W        W36235  17.574   2.272   2.083 -0.2126 -0.4022 -0.2170
16702W        W36236   1.770  13.288  15.883 -0.0331 -0.0530  0.0701
16703W        W36237   0.372   3.101  13.113  0.1275  0.1473  0.1395
16704W        W36238  10.677  13.556  13.998  0.0173 -0.1277 -0.2380
16705W        W36239  15.067   1.028   1.298 -0.0640  0.1633  0.2033
16706W        W36240   8.332   2.686  15.336 -0.1231 -0.1546 -0.1205
16707W        W36241   0.521   5.580  14.664  0.2573 -0.1375  0.1719
16708W        W36242   7.461  10.775   3.807 -0.2833  0.0997 -0.2315
16709W        W36243   6.069  15.248   1.217 -0.0776  0.0185 -0.0588
16710W        W36244   2.537   6.486  14.372 -0.1677  0.3403 -0.3386
16711W        W36245   2.235  15.148  16.898  0.2711  0.4531  0.1582
16712W        W36246   6.458  17.133   4.749 -0.2106 -0.2964  0.1778
16713W        W36247   3.622   8.374   1.892  0.3432  0.0612  0.1656
16714W        W36248   0.512   6.601  14.967 -0.1724 -0.3833  0.0474
16715W        W36249  14.283  10.920  15.821 -0.2354  0.3586 -0.1305
16716W        W36250   6.350  17.141   2.163 -0.0345  0.0840 -0.1010
16717W        W36251  15.954   5.129  13.719  0.1049 -0.2440  0.1132
16718W        W36252  16.295   2.059   4.249 -0.1050  0.0516 -0.1680
16719W        W36253   6.798  10.500   5.046  0.0905 -0.3401  0.1588
16720W        W36254   1.596   4.112  11.460  0.0272  0.1134  0.0383
16721W        W36255  17.121   0.811  15.375 -0.0341  0.0665  0.2683
16722W        W36256  13.028   1.317  16.106 -0.1909 -0.1376 -0.0374
16723W        W36257   8.046   9.580  13.301  0.1570  0.0905  0.2957
16724W        W36258  10.503  17.609   3.712  0.0817  0.2148 -0.2272
16725W        W36259   4.223   6.523   0.028  0.0181 -0.0705 -0.1809
16726W        W36260  14.203  11.767   3.255 -0.1057  0.1704 -0.1937
16727W        W36261  13.070   4.427   4.355 -0.1349 -0.0599 -0.1404
16728W        W36262   4.265   8.501   3.840 -0.1190 -0.3923  0.1085
16729W        W36263   2.799   0.710  13.244 -0.0437  0.1949 -0.0077
16730W        W36264   6.417  11.201  14.408  0.0402 -0.1078 -0.0163
16731W        W36265  11.841  10.101   2.135 -0.1243  0.2382 -0.3081
16732W        W36266  11.476  15.766   4.083 -0.0272  0.0407 -0.1551
16733W        W36267  16.043   6.848   2.219  0.1510 -0.3982  0.1553
16734W        W36268  16.752   0.415   4.852  0.0874  0.0403  0.0768
16735W        W36269   8.496  16.869  15.985 -0.0649 -0.2861  0.2519
16736W        W36270  16.223   4.176   3.996  0.2794  0.1389  0.0074
16737W        W36271   8.271   6.332  16.139 -0.0962 -0.0108  0.0871
16738W        W36272   9.759   5.330   0.303 -0.1319 -0.2898 -0.1827
16739W        W36273  17.441   0.104   3.491  0.0302 -0.0923  0.1060
16740W        W36274   9.132   9.288  14.243  0.1102  0.0618  0.0761
16741W        W36275   6.436  13.432  17.001  0.0562 -0.0500  0.1296
16742W        W36276  13.097  13.134  14.974  0.1345 -0.3692 -0.2267
16743W        W36277   0.449   0.298   0.673 -0.1950 -0.0339  0.0089
16744W        W36278  14.774   5.260   0.821  0.2890 -0.1898  0.1272
16745W        W36279  15.322   7.337   0.104  0.2498 -0.2495 -0.0644
16746W        W36280   1.574   8.448   2.325  0.3868 -0.0059  0.0928
16747W        W36281   2.473   9.598  16.673 -0.0740  0.0429  0.2661
16748W        W36282   3.979   0.661  15.587 -0.3077 -0.0196 -0.1003
16749W        W36283   8.711   4.976  12.794 -0.1438 -0.0261 -0.0922
16750W        W36284   0.071   0.525  16.613  0.0148 -0.4272 -0.1357
16751W        W36285   0.166  15.053   2.468  0.0483 -0.2638 -0.1727
16752W        W36286  11.839   0.445  14.952  0.0253 -0.0453 -0.2127
16753W        W36287  11.735   3.898   1.018 -0.3097  0.0800 -0.0766
16754W        W36288   8.476   8.816   1.564  0.1879 -0.0485 -0.0704
16755W        W36289   5.958  12.262  16.655 -0.3639  0.1491  0.3435
16756W        W36290  16.716  10.939  15.532  0.2983  0.1128 -0.0232
16757W        W36291   5.458  17.479  13.623  0.0733  0.0168  0.3427
16758W        W36292   9.900  12.588   0.798 -0.1410 -0.0386  0.0701
16759W        W36293   3.310   6.813  17.036 -0.1718  0.1475 -0.1051
16760W        W36294  15.675  13.786   3.310 -0.0676 -0.0622 -0.0057
16761W        W36295  16.691   2.120  14.703 -0.0322 -0.0905 -0.1033
16762W        W36296   6.800  17.272  13.819  0.1629 -0.0607  0.2230
16763W        W36297   9.039   0.303   3.850 -0.0269  0.1955  0.0964
16764W        W36298   8.119   0.118  13.380  0.1702 -0.0145  0.1507
16765W        W36299  13.044   2.870   4.921  0.0864 -0.1551 -0.0737
16766W        W36300   6.456   9.477  17.003  0.1801  0.2334  0.0360
16767W        W36301   3.836   3.345   3.697  0.2233 -0.3071  0.0302
16768W        W36302  15.513  14.743  16.671  0.0199  0.3313  0.0400
16769W        W36303   9.567   6.136   1.561  0.0170 -0.1489 -0.1000
16770W        W36304   2.735   4.779  14.890 -0.0579  0.1754  0.0288
16771W        W36305  10.192   8.481  12.701  0.0369  0.0874  0.1383
16772W        W36306  15.529   9.286  13.147 -0.1042 -0.2726  0.0305
16773W        W36307   8.752  10.277   2.275  0.3670 -0.0074 -0.1230
16774W        W36308   8.015   4.040  12.083  0.1643  0.0092  0.0731
16775W        W36309   4.611   3.112   4.825  0.2721 -0.0333  0.1716
16776W        W36310   3.779   2.198   0.065 -0.1504 -0.0813  0.2425
16777W        W36311   9.758   4.762  16.051 -0.1421 -0.1773 -0.2382
16778W        W36312  15.458  12.528  15.053 -0.0508  0.1301 -0.0923
16779W        W36313   0.236   7.257  12.349  0.0096 -0.0512  0.0786
16780W        W36314  12.323  13.697   2.248  0.0132 -0.1854  0.0930
16781W        W36315   1.232  16.936  12.948  0.0160  0.0605 -0.1272
16782W        W36316   0.886   3.397   4.747 -0.3215 -0.4645  0.1499
16783W        W36317   7.571   0.719  17.063  0.3542 -0.1197  0.3364
16784W        W36318   4.322  12.534   3.262 -0.0786  0.1463 -0.1096
16785W        W36319   1.734   0.805  16.428  0.0620 -0.1701  0.0581
16786W        W36320  16.404   3.866   5.321  0.1625  0.0732  0.4239
16787W        W36321  16.534   3.678   3.797 -0.5318  0.1694  0.0254
16788W        W36322  14.645   1.825   5.121  0.2469 -0.1375  0.0200
16789W        W36323   3.740   0.705  12.772 -0.1201  0.2033 -0.1244
16790W        W36324  17.431  16.201  15.280 -0.2865  0.0391  0.0461
16791W        W36325   5.404  12.177   1.837  0.1765  0.0230  0.2882
16792W        W36326  16.025  10.729   3.882 -0.1308 -0.0190  0.2607
16793W        W36327  16.086   8.387  13.850 -0.2008  0.0261 -0.0069
16794W        W36328  14.448  16.880  14.471 -0.1474 -0.1379  0.1065
16795W        W36329  14.199   2.099  14.754 -0.3502  0.0558 -0.0605
16796W        W36330  13.133   8.886   4.563  0.1583 -0.0157  0.0976
16797W        W36331   9.791  16.663   1.941 -0.0569 -0.1496 -0.1801
16798W        W36332   3.530  12.639   4.909 -0.0353 -0.3308  0.3397
16799W        W36333   3.115   6.356  14.216  0.2367  0.4360 -0.1743
16800W        W36334   4.583   3.775   1.339  0.0530  0.2379 -0.0400
16801W        W36335  16.410   2.233   4.697  0.1807 -0.1758 -0.3217
16802W        W36336   6.306   2.117   1.797  0.1231 -0.0869 -0.1092
16803W        W36337  13.573   3.603   1.989 -0.1440  0.5272 -0.0405
16804W        W36338   6.832   8.885   3.084 -0.2536 -0.0856  0.0268
16805W        W36339   9.934  12.196  16.963  0.3217  0.1704 -0.3334
16806W        W36340   3.153   2.999  14.957  0.0485 -0.1664 -0.0293
16807W        W36341   1.304   4.953  16.977  0.2042 -0.0272  0.1269
16808W        W36342   3.206   2.663   2.839 -0.4142  0.1284 -0.0301
16809W        W36343  17.472   0.465   3.901  0.4920 -0.2633  0.1735
16810W        W36344   8.751   6.926  16.608 -0.1753 -0.3120  0.0096
16811W        W36345   1.043   3.912   0.999 -0.1388  0.0772  0.0397
16812W        W36346   6.672  10.831   1.409 -0.0401  0.1506  0.0954
16813W        W36347  13.323  15.813  15.525 -0.0347  0.2910  0.1882
16814W        W36348   8.256   9.021  15.127 -0.1639  0.4675 -0.1198
16815W        W36349  16.625  16.728   4.618  0.1330  0.0739  0.1189
16816W        W36350  12.765  16.817   0.905  0.2350 -0.2476  0.2572
16817W        W36351  16.112  11.594   0.474 -0.0945 -0.0299  0.0043
16818W        W36352   8.382   0.546  13.466  0.2049 -0.2931  0.1302
16819W        W36353  16.067  13.032  16.764  0.0228 -0.2677 -0.0499
16820W        W36354   9.738   6.759   4.733  0.0295 -0.0127 -0.1193
16821W        W36355   6.613   4.017  16.661 -0.1093 -0.1716 -0.1632
16822W        W36356   6.850   0.141   0.381 -0.0275 -0.4102 -0.1538
16823W        W36357  14.274   6.555  16.160 -0.1139 -0.0766  0.0731
16824W        W36358   6.954   2.850  13.805 -0.0145  0.1922 -0.1245
16825W        W36359  12.084   1.268  14.888 -0.2765  0.0913  0.0505
16826W        W36360   0.679  12.420  16.107 -0.1014 -0.0394  0.0873
16827W        W36361   0.213   6.188  16.713  0.0532  0.1503 -0.0830
16828W        W36362   8.158  15.392  15.751 -0.1572 -0.1316  0.0797
16829W        W36363   4.520  12.088  15.640 -0.1884 -0.0040  0.1560
16830W        W36364  12.165  12.149   0.702 -0.0230 -0.0960  0.0812
16831W        W36365  14.818  10.885  12.557 -0.2370  0.0759  0.0466
16832W        W36366   7.305   3.783   1.102 -0.0204  0.0904 -0.0590
16833W        W36367  13.618  11.867  14.802 -0.0267  0.0906  0.2150
16834W        W36368   1.730   3.171  14.435 -0.2608 -0.0859 -0.0100
16835W        W36369  15.515  13.666  12.578  0.0491 -0.0526 -0.0567
16836W        W36370   4.186  13.570  13.843 -0.1785 -0.1577  0.1813
16837W        W36371  12.722   8.355  12.135 -0.0654  0.0371 -0.1497
16838W        W36372  17.501   3.146  12.862  0.4631 -0.2830  0.2982
16839W        W36373   1.105  15.153   1.189 -0.1761 -0.0021  0.2019
16840W        W36374   0.445   3.573   4.476 -0.0265 -0.1323 -0.4059
16841W        W36375  15.117   6.518   0.643  0.3402 -0.1256  0.2418
16842W        W36376  10.111  13.577  12.929  0.1851 -0.2178 -0.2051
16843W        W36377   8.125   2.415  13.196 -0.0043 -0.1282 -0.1980
16844W        W36378   8.859  15.098  14.764 -0.0803  0.2994  0.0301
16845W        W36379  15.999  15.471  14.512 -0.0374  0.3903 -0.0118
16846W        W36380   4.171   3.427   4.952 -0.1627  0.0751 -0.5855
16847W        W36381   8.624  13.171   3.237 -0.0303  0.0961  0.0166
16848W        W36382   3.983  12.614   4.166  0.2152 -0.2728  0.1424
16849W        W36383  11.620  11.023  13.619 -0.1017 -0.0000  0.0532
16850W        W36384   5.359  17.583   1.731  0.1491  0.1656 -0.3480
16851W        W36385  13.556  16.896   5.010 -0.4548 -0.0660 -0.1053
16852W        W36386   0.596   7.074  12.625  0.0382  0.0950  0.1385
16853W        W36387   2.763   9.490  13.714 -0.0174 -0.2362  0.2289
16854W        W36388   3.738   9.359   3.848  0.1359 -0.2430 -0.3696
16855W        W36389  10.183  11.143   4.012 -0.2789  0.0631 -0.0246
16856W        W36390   2.769   5.622   2.188  0.4426 -0.3640  0.0317
16857W        W36391   5.125   2.143   2.062 -0.2188 -0.1448  0.0943
16858W        W36392  13.521  14.672  16.873 -0.1263  0.1992  0.1295
16859W        W36393  10.593   4.382  16.227  0.1606 -0.0613 -0.1139
16860W        W36394   4.967  15.253  12.572 -0.1916 -0.1852  0.3399
16861W        W36395   5.439  17.248  13.146 -0.1146 -0.1189 -0.0852
16862W        W36396  15.124  17.155  13.869  0.3038 -0.1844  0.1011
16863W        W36397  17.644  12.511   1.981  0.1183  0.0114 -0.1212
16864W        W36398  12.362   1.254   5.152 -0.0982  0.0128  0.1819
16865W        W36399  15.183  11.206   0.833 -0.0185 -0.2559  0.2967
16866W        W36400  11.625  16.985   4.868  0.2350  0.1642 -0.2690
16867W        W36401  10.776   9.095   3.733 -0.0106 -0.1034 -0.0792
16868W        W36402   2.968  11.941  13.373 -0.1161  0.1781  0.3784
16869W        W36403   7.437   6.326   3.888 -0.1180  0.2322  0.3203
16870W        W36404  11.794  12.631  13.253 -0.0579 -0.1615 -0.4982
16871W        W36405   2.051  11.659   5.129  0.0824 -0.0612  0.0065
16872W        W36406   4.327   1.791   0.955 -0.0695 -0.0567 -0.0751
16873W        W36407   6.602  17.633   1.198  0.0592 -0.2161  0.1512
16874W        W36408   0.042  14.316   0.643  0.0387  0.2039 -0.2508
16875W        W36409  10.722  16.456   4.407  0.1585  0.0157 -0.1674
16876W        W36410   3.690   4.251   3.943 -0.1197  0.0129 -0.1075
16877W        W36411  16.946  17.376  12.636 -0.3916 -0.1191  0.1432
16878W        W36412  13.887   3.968   1.715  0.1064 -0.1236 -0.1900
16879W        W36413  13.927   8.376   2.064 -0.0090  0.0732  0.1748
16880W        W36414  10.541  17.290   0.728 -0.2201  0.1048  0.1262
16881W        W36415   8.184  11.561  14.214  0.0120  0.0709  0.2245
16882W        W36416   9.792  14.541  15.516 -0.1080 -0.0554  0.3880
16883W        W36417  16.035   6.319  12.525 -0.1797  0.2348 -0.0743
16884W        W36418  11.092   4.827  14.096 -0.2527  0.3165 -0.0166
16885W        W36419   6.523  14.496  12.555 -0.0414  0.2744 -0.2063
16886W        W36420  14.269  10.141   1.198 -0.0461 -0.2471 -0.1553
16887W        W36421   8.009  10.007  15.915 -0.2332 -0.0163  0.1534
16888W        W36422   8.843  11.039   4.283  0.0093  0.2905 -0.2887
16889W        W36423  10.172  14.732   2.217  0.0758  0.4278 -0.2861
16890W        W36424  14.904   8.368   3.259  0.1510  0.2515 -0.0069
16891W        W36425   6.363   5.679  12.597  0.0538 -0.0566  0.0547
16892W        W36426   1.683  12.857  13.720  0.2148 -0.0073  0.0567
16893W        W36427  16.677   7.391  15.173  0.1222  0.0062 -0.0414
16894W        W36428  12.811  12.248   4.189 -0.0247 -0.1440 -0.2101
16895W        W36429   1.763  13.418  11.913  0.0315 -0.1944  0.1761
16896W        W36430   0.289  13.726  16.895 -0.1486 -0.0970  0.0099
16897W        W36431   4.479  13.898   4.658 -0.0453  0.1241 -0.2021
16898W        W36432   2.111   2.366  15.476  0.1630  0.0035  0.0457
16899W        W36433   4.302   3.313   0.638 -0.1569  0.0582  0.3119
16900W        W36434  11.220  13.170  14.763  0.2219  0.1111  0.1626
16901W        W36435  15.844  12.549  13.439 -0.0826 -0.0400 -0.2368
16902W        W36436   4.814  12.396  13.563  0.2678 -0.1885 -0.2726
16903W        W36437   2.687   8.323  16.516  0.0479 -0.0142 -0.1678
16904W        W36438  11.925  16.047   3.961  0.2197  0.1079  0.0664
16905W        W36439   5.521   6.962   1.972 -0.1460 -0.2409  0.1089
16906W        W36440   4.492  13.779  15.466 -0.0198  0.0889 -0.0334
16907W        W36441   7.538   2.134   5.311  0.1430 -0.0514  0.0938
16908W        W36442   3.127   3.168  11.818  0.2103  0.0250 -0.2454
16909W        W36443   4.305  15.986  12.732 -0.2155  0.2143  0.2099
16910W        W36444  12.561   6.466  14.492 -0.0938 -0.6034  0.1358
16911W        W36445  10.690  17.268   3.235  0.0681 -0.0413  0.0290
16912W        W36446   1.770  15.010   2.256 -0.0464  0.0928 -0.2489
16913W        W36447  11.741  12.717   1.895 -0.0761 -0.2152 -0.0324
16914W        W36448  13.605  12.686  12.958  0.0531 -0.3675 -0.3510
16915W        W36449   3.164  16.972  15.304 -0.0202 -0.0937  0.0364
16916W        W36450   8.418  10.580  14.932  0.0370 -0.0510 -0.0091
16917W        W36451  14.130   5.933  15.086 -0.1540  0.1159 -0.2762
16918W        W36452  15.072   1.140   2.379 -0.1174  0.2375  0.1275
16919W        W36453   5.983  11.385   2.960 -0.1371 -0.0227 -0.1289
16920W        W36454   1.617   0.177  12.625  0.0134  0.1376  0.0105
16921W        W36455  13.566   0.546  12.319 -0.3460  0.1339 -0.0400
16922W        W36456   1.424   5.131   4.882  0.2561  0.1436  0.1177
16923W        W36457   4.329  13.999   3.695 -0.1711 -0.2151 -0.0078
16924W        W36458   3.923  10.819   3.741  0.1023  0.1380 -0.0433
16925W        W36459   8.308  16.160  12.452 -0.0703 -0.0813 -0.0458
16926W        W36460   3.862  17.244   0.145  0.4023 -0.0035 -0.0654
16927W        W36461  17.607   3.130  13.412 -0.0650 -0.0391 -0.3290
16928W        W36462   3.090  16.474  13.678  0.2451  0.3060 -0.3072
16929W        W36463  11.554  13.444   5.200 -0.0629  0.1328 -0.0645
16930W        W36464   2.353   8.724   2.350 -0.1150 -0.1804  0.0001
16931W        W36465   2.343  10.423   0.166  0.3676 -0.0774  0.1874
16932W        W36466  10.606   7.484  14.150  0.0690  0.0660 -0.2037
16933W        W36467   9.662   8.613   0.071 -0.1985  0.1938 -0.1082
16934W        W36468  11.499   3.684   1.406  0.1987 -0.3171  0.2367
16935W        W36469  10.448  10.803   4.519 -0.0883 -0.2289  0.1501
16936W        W36470  12.286   2.880   2.051  0.2568 -0.2552  0.0061
16937W        W36471   7.087   0.353  13.701  0.0509  0.3487 -0.0113
16938W        W36472  16.486  10.348  15.327 -0.0583 -0.3909  0.2132
16939W        W36473   3.554   3.229  17.011  0.0593 -0.1944  0.1300
16940W        W36474   8.854   6.931  14.972 -0.1494 -0.0363 -0.3159
16941W        W36475   8.407  13.246  15.300 -0.5707  0.2729 -0.1392
16942W        W36476  11.170  11.178   1.203  0.4978  0.1152 -0.1988
16943W        W36477   2.593  17.321   1.590 -0.1361 -0.1847  0.0115
16944W        W36478  16.401  16.838   4.120  0.1645  0.1361  0.0412
16945W        W36479   1.226  17.147  14.844  0.0602  0.1308  0.0114
16946W        W36480   0.345   7.361   0.599 -0.1650  0.0134 -0.0910
16947W        W36481   2.789   0.049   0.343 -0.3045  0.0580 -0.1792
16948W        W36482   5.303  12.538  13.320  0.0482 -0.0950  0.2736
16949W        W36483   3.692  13.398   3.993  0.0426 -0.0979 -0.1044
16950W        W36484   4.338  17.626  14.889  0.2427  0.0415 -0.2100
16951W        W36485  15.509   2.260   0.004 -0.0008 -0.2926  0.0423
16952W        W36486   0.970  17.309   1.830  0.0745 -0.1700  0.4501
16953W        W36487  14.245   7.794   5.530  0.0319 -0.3599  0.0457
16954W        W36488   3.552  16.698  16.530  0.0730 -0.1504  0.2795
16955W        W36489  14.774   8.626  16.724 -0.0455  0.1368 -0.0583
16956W        W36490  10.665   0.006   1.953 -0.1912 -0.0064 -0.0055
16957W        W36491  13.418  17.317   1.491  0.5505  0.1074  0.2515
16958W        W36492   9.537   6.853  12.046 -0.1179  0.1087 -0.1926
16959W        W36493   5.239  15.690  14.496 -0.1149  0.3041  0.0086
16960W        W36494  11.366   4.116  16.519  0.1169  0.0532  0.2493
16961W        W36495   4.696  13.381  15.767 -0.3366  0.0836 -0.0678
16962W        W36496  16.279  13.058  15.997  0.0264 -0.0651 -0.1147
16963W        W36497   5.243  12.059   2.280 -0.2564 -0.1146  0.0056
16964W        W36498   9.673  13.049   2.446  0.6496  0.1521 -0.1958
16965W        W36499  16.135   0.700   2.214  0.0260 -0.1443 -0.2988
16966W        W36500   4.820  10.314   3.718 -0.3340 -0.0723 -0.1595
16967W        W36501  12.289  17.139   1.078  0.0754  0.0181  0.0757
16968W        W36502   3.598  12.298   1.131 -0.1658  0.0292 -0.2145
16969W        W36503   4.350  15.657   2.731 -0.0337 -0.0624  0.1589
16970W        W36504   3.667   6.703   5.288  0.2750 -0.2135 -0.1051
16971W        W36505   0.965   1.177  12.049 -0.0272 -0.2104  0.0942
16972W        W36506   2.739   0.655   1.798  0.0206  0.0024  0.0606
16973W        W36507   7.734   6.573   4.408 -0.0221  0.1349  0.2635
16974W        W36508  16.999  11.336   3.522  0.2418 -0.1075 -0.1011
16975W        W36509  11.222   5.966  16.342  0.0572  0.2582 -0.0039
16976W        W36510  11.432   2.898   2.603  0.4125  0.2119  0.0155
16977W        W36511  16.100   9.176  15.024  0.2386  0.5378 -0.2233
16978W        W36512   4.298  11.225  15.865  0.0489 -0.0977  0.2190
16979W        W36513   3.150  11.735  16.386  0.2157 -0.2123  0.0541
16980W        W36514  11.141   8.882   3.374  0.1136 -0.0929  0.0178
16981W        W36515  11.486   0.113  14.813 -0.1699  0.0256 -0.0581
16982W        W36516   5.351  17.141   2.224  0.0993 -0.1351  0.0080
16983W        W36517   6.438  11.031   2.143 -0.1044 -0.1454  0.0092
16984W        W36518  17.168  11.685  13.790 -0.1188 -0.0255 -0.0337
16985W        W36519   0.546  11.233  15.070  0.0932 -0.0753 -0.0378
16986W        W36520  10.349   3.716  15.677  0.1687 -0.2178  0.2506
16987W        W36521  11.652   5.906   5.420  0.3250  0.0633  0.3155
16988W        W36522   0.862  10.856   0.729  0.0691 -0.0882  0.0300
16989W        W36523  17.210  15.712   1.365 -0.1813  0.0669 -0.4166
16990W        W36524   0.530  14.686  11.585  0.1258 -0.5208  0.0888
16991W        W36525   7.570  12.283   0.835  0.1681  0.1289  0.0760
16992W        W36526   6.452  10.517   2.892  0.2303  0.4305 -0.2058
16993W        W36527  15.746   7.923  14.249 -0.1729  0.1866  0.2111
16994W        W36528  11.096   0.895   2.231 -0.2055 -0.3240 -0.0215
16995W        W36529   3.416  16.831   1.023 -0.1573 -0.3490  0.0284
16996W        W36530   7.640   2.870  13.387 -0.0383  0.2768 -0.0536
16997W        W36531  10.702  15.272   4.449 -0.0739 -0.4361  0.0025
16998W        W36532   3.198  13.571  16.309 -0.1454 -0.0874 -0.0954
16999W        W36533  14.872   9.773  13.941  0.2735 -0.1840  0.2996
17000W        W36534   0.798  12.791   0.888  0.1919  0.2071  0.4457
17001W        W36535   0.542  10.443  14.545 -0.0534 -0.0057 -0.0993
17002W        W36536  17.072  17.247  14.959  0.1115  0.1181 -0.1241
17003W        W36537   6.213   3.452   4.735  0.1629 -0.1139  0.0557
17004W        W36538  12.510   4.271   3.569  0.0417 -0.4112  0.0165
17005W        W36539  15.977  15.691   2.031 -0.0126  0.1756 -0.2015
17006W        W36540   2.097  10.661  11.921 -0.0676 -0.0420  0.1031
17007W        W36541   0.173  10.885  15.254 -0.0523  0.4393 -0.0982
17008W        W36542   8.707  14.916  16.488  0.1264 -0.0522 -0.0435
17009W        W36543   0.588  12.396   2.229  0.5367 -0.1402 -0.0797
17010W        W36544  16.577  12.669   2.204  0.1197 -0.0722  0.2552
17011W        W36545  10.378  12.618   1.986  0.2879  0.3983  0.4032
17012W        W36546  10.219   0.523  16.214  0.0786 -0.0011  0.1521
17013W        W36547  16.508   2.967   1.202 -0.1385 -0.0350 -0.1083
17014W        W36548  17.073   6.617   2.513 -0.1053  0.5395 -0.2106
17015W        W36549  17.209  10.199   2.626 -0.1563 -0.0824 -0.0562
17016W        W36550   4.214   4.529  13.623 -0.0877 -0.0397 -0.0094
17017W        W36551  15.161  15.731   2.232  0.0295 -0.0218 -0.1683
17018W        W36552  10.441   4.009   0.899  0.2029 -0.0987  0.2797
17019W        W36553   3.636   1.212  17.004  0.1194  0.3355 -0.2083
17020W        W36554   5.201  14.073   0.967 -0.0679 -0.0726 -0.1354
17021W        W36555  10.798   8.606   3.663 -0.2072 -0.2168  0.1400
17022W        W36556  13.903  15.572  14.726  0.0191  0.0475 -0.2041
17023W        W36557   8.801   7.097   4.883  0.2050 -0.1896  0.2446
17024W        W36558   8.278  10.799   1.750  0.0133  0.1260 -0.1771
17025W        W36559  13.012  11.709  16.437  0.0012  0.1524 -0.2498
17026W        W36560  15.151   4.428   2.335 -0.2608  0.0106 -0.1045
17027W        W36561  16.965   0.888  13.813  0.2006  0.1570 -0.1629
17028W        W36562  17.344   4.675   2.197 -0.2710  0.1182  0.1494
17029W        W36563   5.073  13.411   0.179 -0.1276  0.1281  0.2713
17030W        W36564  11.948   2.567   5.232 -0.2371  0.0295  0.0210
17031W        W36565  16.701   6.836  14.470 -0.2839  0.0687 -0.1768
17032W        W36566   9.129  15.769  13.016  0.1700  0.4028 -0.2764
17033W        W36567  13.873   2.128   3.050 -0.0867  0.0080  0.0388
17034W        W36568  12.431  16.980  13.358  0.0961  0.2420 -0.0034
17035W        W36569   4.650  13.559   3.637  0.0050  0.1835  0.2014
17036W        W36570  11.964  14.345   3.702 -0.2030 -0.2566  0.1149
17037W        W36571  10.334   1.749  17.032 -0.1343  0.2591  0.1698
17038W        W36572   0.966   4.007  13.344 -0.0852 -0.1572 -0.1987
17039W        W36573   2.095  12.931  16.612  0.1227  0.0625 -0.0284
17040W        W36574  16.889   5.967   4.201 -0.3359 -0.1081 -0.0431
17041W        W36575   0.644  17.426  15.956  0.4885  0.1813  0.0012
17042W        W36576   0.036  15.100  14.519  0.2040  0.2320 -0.2987
17043W        W36577   3.318   8.657  14.301  0.0444  0.2090 -0.3515
17044W        W36578   0.359  13.392   3.065  0.2309  0.1172 -0.0485
17045W        W36579   2.052   8.543  15.547 -0.2735  0.1923 -0.0604
17046W        W36580  17.550  15.973  14.420 -0.1851 -0.0668 -0.4667
17047W        W36581  13.844  15.220   5.225 -0.0943 -0.1254  0.1074
17048W        W36582   9.877  14.582   4.293 -0.0004 -0.1387 -0.1719
17049W        W36583   7.505  10.753  14.226  0.3526 -0.0601 -0.0321
17050W        W36584  14.577  16.571   5.277  0.1585  0.2040 -0.1130
17051W        W36585   3.223   9.527   4.031  0.2448  0.0866 -0.1667
17052W        W36586  12.376  13.786  15.208 -0.1959  0.1136 -0.0984
17053W        W36587   2.430  11.146  15.616 -0.0688 -0.0024  0.0957
17054W        W36588   1.776   8.790  12.227  0.0080  0.1146 -0.0465
17055W        W36589   0.403  11.660  15.934 -0.1056 -0.0525  0.0708
17056W        W36590  15.017   0.314  14.459 -0.1819 -0.1275  0.2510
17057W        W36591  12.975  16.445   0.609  0.0687 -0.1037 -0.0367
17058W        W36592   2.491   1.701   2.826 -0.0021  0.2311 -0.0508
17059W        W36593   6.213   9.356  14.184  0.1701 -0.1345  0.1078
17060W        W36594  16.583  15.415   3.271  0.1054 -0.1884 -0.2092
17061W        W36595   1.498   0.408  15.157  0.0115  0.2235 -0.5607
17062W        W36596   9.183  14.736   3.667  0.2880  0.0391 -0.0599
17063W        W36597  15.592   4.814  13.947  0.1119  0.1069  0.0080
17064W        W36598  15.080   6.366  13.406  0.0034  0.1114  0.1023
17065W        W36599   0.667   2.786  12.121 -0.0823 -0.0521 -0.1731
17066W        W36600   8.080  13.153   4.050 -0.0178 -0.0202  0.1776
17067W        W36601   8.909  15.759   2.860 -0.2258 -0.0095 -0.1159
17068W        W36602   1.732   9.816   3.794 -0.2759 -0.2572  0.1372
17069W        W36603   8.700  13.131   3.701 -0.0313 -0.0699  0.1716
17070W        W36604   4.295   7.703  13.625 -0.0403 -0.1964 -0.1445
17071W        W36605  10.798   8.257  16.321  0.2907  0.0182 -0.3233
17072W        W36606   0.098  13.846   3.236 -0.0328 -0.1944 -0.0537
17073W        W36607  10.117   4.852   2.278  0.4794  0.0165  0.1296
17074W        W36608   7.610   3.144  16.168 -0.1624  0.1828 -0.1637
17075W        W36609   3.897   9.959   1.196 -0.1010 -0.1070 -0.1901
17076W        W36610  16.633  13.796   2.344  0.0366 -0.0638 -0.3382
17077W        W36611   6.708  11.732  16.535  0.0668  0.0081 -0.4143
17078W        W36612  10.389   6.178  16.311  0.1081  0.1002  0.2979
17079W        W36613   4.764   3.199  15.429  0.1505 -0.2026  0.0356
17080W        W36614   3.427   8.860  16.498 -0.0486 -0.0656 -0.3961
17081W        W36615  11.237  16.921  16.809  0.0935  0.0949  0.1486
17082W        W36616   8.982  17.247  15.485 -0.1578  0.0000 -0.0115
17083W        W36617   5.467   5.923   2.762  0.2644 -0.2211 -0.2756
17084W        W36618  10.247  10.267  16.202  0.0518  0.0219 -0.4123
17085W        W36619   1.621  15.324  12.802  0.0726  0.3810  0.0566
17086W        W36620   8.626   5.080   4.027 -0.0396  0.3342  0.2238
17087W        W36621   6.515  11.879  12.586  0.0068 -0.0945 -0.1088
17088W        W36622  17.519  17.289  16.605 -0.0774 -0.0386 -0.1966
17089W        W36623  10.416   9.788  16.224  0.1285  0.1233  0.0229
17090W        W36624   5.785  12.404  13.033  0.1282 -0.1780  0.1513
17091W        W36625   1.300  16.084  13.149 -0.0059 -0.0913 -0.2930
17092W        W36626  16.950  13.942  12.907 -0.1575  0.0250 -0.0094
17093W        W36627  11.300   4.425  14.362  0.2204 -0.1437  0.1992
17094W        W36628  14.597   0.634  16.274 -0.0755 -0.2645 -0.2557
17095W        W36629   2.851   9.569   3.718  0.0388  0.1260 -0.0923
17096W        W36630   7.340  12.394   2.793  0.1198  0.2465  0.0162
17097W        W36631   7.310  16.219  12.468 -0.1723  0.0331  0.1718
17098W        W36632  10.401   6.796   1.620  0.0441  0.1216 -0.1429
17099W        W36633   3.708   8.937  14.515  0.0725 -0.3220  0.0317
17100W        W36634  11.741  12.923   3.378  0.0403  0.1416 -0.0045
17101W        W36635   7.854   0.212  15.308  0.0354 -0.0912  0.1969
17102W        W36636  11.112   6.616  12.392 -0.2236  0.0336  0.0885
17103W        W36637   4.377   7.338  12.212  0.0543 -0.0290  0.0038
17104W        W36638   2.687   0.802   3.445  0.1611  0.2138 -0.0069
17105W        W36639  13.362   5.652  16.551 -0.2353  0.0555  0.3887
17106W        W36640  16.938  16.632  15.549 -0.2854 -0.1037  0.1653
17107W        W36641  10.643  13.611  13.053  0.3122 -0.0809 -0.0013
17108W        W36642   9.593   1.455  16.584  0.1509 -0.2370 -0.0018
17109W        W36643   6.652  11.187  12.206  0.0995 -0.0758 -0.0189
17110W        W36644  14.995   6.465   4.494  0.0239 -0.0074  0.0533
17111W        W36645  13.861   1.778  14.968  0.0999 -0.0639  0.1250
17112W        W36646  13.623  11.826   4.306  0.0072  0.1932 -0.0080
17113W        W36647   0.261  16.279  13.463 -0.0743 -0.2589 -0.3905
17114W        W36648   4.550  12.947  12.458  0.0605 -0.1255 -0.0696
17115W        W36649  15.153   1.490   1.099  0.0114  0.2891 -0.0082
17116W        W36650  16.681   0.265  14.653 -0.0258  0.4002 -0.0157
17117W        W36651   4.399   2.305  13.729  0.1711 -0.2476 -0.4134
17118W        W36652   6.745   5.426   1.477 -0.0607 -0.0674  0.0650
17119W        W36653   5.744  17.352   1.489  0.1055  0.0609  0.1604
17120W        W36654   4.554   2.956  13.531 -0.2840  0.2171 -0.0527
17121W        W36655  15.503  17.376   3.604  0.0350 -0.0338  0.1320
17122W        W36656  15.131   7.898   2.347  0.2067 -0.0577 -0.1247
17123W        W36657   9.899  13.777   2.837  0.1238 -0.1981  0.1419
17124W        W36658   5.131   9.295  16.135  0.1774 -0.2595  0.0599
17125W        W36659  16.680  13.886   1.677 -0.0289  0.1006 -0.0819
17126W        W36660  14.919   0.933  16.040  0.1303  0.0697 -0.2768
17127W        W36661  16.780   9.574  12.589  0.0997  0.1635 -0.1013
17128W        W36662   1.764   7.500   3.913 -0.1753 -0.0085 -0.1537
17129W        W36663   1.964   2.303   4.788 -0.0587  0.2773 -0.3235
17130W        W36664   3.249   0.421   1.946 -0.0208  0.2696 -0.2081
17131W        W36665   2.755   1.762   3.469 -0.1520  0.1451  0.2597
17132W        W36666   5.804  15.669  16.574  0.0011  0.0043 -0.2277
17133W        W36667  15.074   0.516  16.497 -0.4272  0.1642  0.3802
17134W        W36668  16.437  11.879   0.690 -0.0115 -0.3607 -0.1193
17135W        W36669  10.153   0.483   1.577  0.3453  0.1395 -0.0111
17136W        W36670   8.942  13.528   3.974  0.0058 -0.3128  0.2868
17137W        W36671   0.355   8.838  16.046 -0.3703  0.2313  0.4374
17138W        W36672   9.695  17.219   0.896  0.0163  0.0432  0.2714
17139W        W36673  13.276  13.391   3.204  0.3457 -0.0006  0.2389
17140W        W36674   8.089   5.380  16.392 -0.0347  0.2421 -0.0771
17141W        W36675  10.072  12.130   3.135 -0.2130  0.0616  0.0032
17142W        W36676  13.477  17.450   0.612  0.0595  0.2790  0.1026
17143W        W36677   2.283  15.251  13.513 -0.1365 -0.1780 -0.0822
17144W        W36678   3.824   4.954  12.125  0.4642 -0.0759 -0.4572
17145W        W36679   7.835   1.557  14.795 -0.7075  0.0523  0.0653
17146W        W36680   5.084   0.238   2.745 -0.3271 -0.1199 -0.2880
17147W        W36681  16.716   5.051   4.465  0.0968  0.1226  0.0241
17148W        W36682   2.115   9.719  14.872 -0.2310  0.0566  0.3058
17149W        W36683   2.099  11.569   2.856  0.0763  0.3302 -0.2403
17150W        W36684  10.712   8.092   2.497 -0.0581 -0.0867 -0.1457
17151W        W36685  13.133   4.545  15.137  0.0216  0.1511 -0.4880
17152W        W36686   1.701  16.336   0.747 -0.2365 -0.0962  0.0223
17153W        W36687  11.664   7.462   3.883 -0.3560  0.1146 -0.0006
17154W        W36688  12.666   7.998   4.548 -0.0476 -0.1203  0.4134
17155W        W36689  17.651  16.290  13.024  0.1699 -0.0343  0.2007
17156W        W36690  16.126   8.135  12.123  0.1337 -0.0911  0.0672
17157W        W36691   5.591  12.361  15.207  0.0974 -0.4218  0.2243
17158W        W36692  12.814   5.773  16.619  0.2437  0.0354  0.1112
17159W        W36693   9.969   1.047   4.710 -0.0434  0.2173 -0.0358
17160W        W36694   5.195   9.566   3.954 -0.1484  0.2098 -0.1005
17161W        W36695   4.705   0.782   3.799 -0.3462 -0.4097  0.4021
17162W        W36696   2.825  16.147  14.005  0.2904  0.2904  0.2481
17163W        W36697   6.542  17.440  15.254 -0.1366 -0.2733  0.3003
17164W        W36698   5.177   4.889   2.021 -0.1844  0.1950 -0.1899
17165W        W36699   6.566  12.794   2.330  0.0603  0.0495 -0.1762
17166W        W36700  16.719   4.778   0.536  0.0411 -0.1479 -0.4109
17167W        W36701   6.041   3.173   3.193 -0.0108  0.0640 -0.0262
17168W        W36702  13.200   9.400   4.576  0.0934 -0.0411 -0.0172
17169W        W36703  13.263  12.141   4.330  0.0513  0.3322  0.2236
17170W        W36704   1.558   0.523  14.479 -0.2136  0.1178  0.0279
17171W        W36705   9.159   7.762  14.156 -0.1422 -0.1362  0.1746
17172W        W36706  12.407   4.616   2.590  0.2307 -0.2870  0.0322
17173W        W36707   2.240   4.070  15.385 -0.0437  0.1734  0.1476
17174W        W36708  15.053   3.059   6.232  0.3125 -0.3352 -0.0646
17175W        W36709   6.944  12.961  13.687  0.1527 -0.1481  0.1691
17176W        W36710  16.776   6.415   1.725  0.1985  0.0179  0.0129
17177W        W36711  13.176   4.258   2.258 -0.1725  0.2198  0.0186
17178W        W36712   8.574   1.692   4.340 -0.0820 -0.2385 -0.1053
17179W        W36713   2.136  14.671   2.122 -0.0116 -0.2385 -0.1371
17180W        W36714  10.772   6.819  16.245 -0.2839 -0.1064  0.0459
17181W        W36715  11.014   9.221   0.229  0.2113  0.0501 -0.1353
17182W        W36716  10.674  14.207   3.883 -0.0487  0.0300  0.1542
17183W        W36717  17.427   7.202  12.511  0.2252  0.0441  0.0803
17184W        W36718   2.142  15.455   4.823 -0.0392  0.3514  0.0072
17185W        W36719   5.455   6.546   3.534 -0.0900 -0.1176 -0.0978
17186W        W36720  15.520   8.949  12.769  0.4068  0.0570  0.3564
17187W        W36721   6.628   1.809   1.608 -0.0950 -0.0563  0.0692
17188W        W36722  16.530   8.561   1.157 -0.2218 -0.1483  0.3655
17189W        W36723  13.516  16.899  14.247 -0.0519 -0.0893 -0.0917
17190W        W36724   9.843  10.559   2.454 -0.3536 -0.0671  0.1662
17191W        W36725  10.650  16.712   4.877 -0.1599 -0.1581  0.0285
17192W        W36726   5.211  14.313   3.476 -0.2092 -0.0106  0.0593
17193W        W36727   1.009  13.708  14.583  0.0351 -0.0958  0.0709
17194W        W36728  13.143  14.776   1.661  0.0925  0.1138  0.0163
17195W        W36729   9.168  13.096   3.391 -0.0854  0.0367  0.0952
17196W        W36730  11.423   4.642   0.773 -0.0593  0.2126 -0.1720
17197W        W36731  11.503  11.826   2.760  0.1041 -0.0674  0.0443
17198W        W36732   4.602   9.006   1.201  0.0227  0.1481 -0.2756
17199W        W36733   7.409   5.441  13.234 -0.0980 -0.2543 -0.0522
17200W        W36734   6.661   3.502   1.066 -0.1194 -0.0330 -0.3542
17201W        W36735  12.839   2.777  14.450  0.2010  0.3355 -0.1781
17202W        W36736  14.852  13.486  12.194 -0.1449  0.2580  0.3118
17203W        W36737   0.150   6.914  15.705  0.1009  0.1013 -0.1018
17204W        W36738  15.960   1.992  13.271  0.2889  0.1288 -0.2137
17205W        W36739   1.428   9.101  14.664 -0.5459  0.3405 -0.1836
17206W        W36740  16.090  12.592   2.223  0.3349 -0.1221  0.1376
17207W        W36741  16.508   9.983  12.571 -0.0642 -0.2848 -0.1118
17208W        W36742   0.493   6.562   1.055 -0.1065  0.1880  0.2093
17209W        W36743   2.322   6.089  16.108 -0.0966  0.2142  0.1178
17210W        W36744   7.487   6.483   2.523 -0.3913 -0.0778 -0.1636
17211W        W36745  16.695  10.397   5.234 -0.0049  0.2952  0.0407
17212W        W36746  14.309   6.825   4.060  0.2405  0.0183  0.3572
17213W        W36747   8.348  11.517   0.880 -0.0629  0.2814 -0.0096
17214W        W36748   0.570   5.005   2.362  0.1294 -0.1662 -0.0384
17215W        W36749   9.078  16.640  15.190  0.0439 -0.0829  0.1913
17216W        W36750  15.984   5.567  13.360  0.0244  0.3074  0.0882
17217W        W36751   2.115   6.253  16.939 -0.1464  0.2833 -0.0632
17218W        W36752   0.688  11.387  12.945 -0.1890  0.1909 -0.0411
17219W        W36753   1.483   6.111   4.131  0.1170 -0.1472  0.2019
17220W        W36754   4.511  16.777  13.590  0.3039 -0.0117 -0.0352
17221W        W36755   6.395   0.811   1.613  0.2909 -0.0788 -0.1042
17222W        W36756  14.712  12.247  15.350 -0.1291  0.4076  0.0311
17223W        W36757   8.639  12.285   0.068 -0.0091  0.1622 -0.0563
17224W        W36758   2.723  13.455   1.000 -0.1071  0.2811 -0.0786
17225W        W36759  15.864   8.730  16.801  0.1384  0.2468  0.1447
17226W        W36760   5.180  14.645   4.830 -0.0627  0.0611  0.0478
17227W        W36761   0.638   6.119   1.256  0.2243 -0.1926 -0.0095
17228W        W36762  13.911   5.581   5.100  0.1925  0.0164  0.0267
17229W        W36763   7.417  17.414   1.506  0.2012  0.1527  0.0519
17230W        W36764   6.299   2.377   0.206  0.2401  0.1219  0.1002
17231W        W36765   1.168   7.959  12.222  0.3080 -0.1921  0.3140
17232W        W36766   1.496  13.300  12.285 -0.3028 -0.2492 -0.0228
17233W        W36767  16.157   8.729  14.248 -0.0673  0.2059 -0.0927
17234W        W36768  10.320   6.409  13.255 -0.1731 -0.1875 -0.0381
17235W        W36769   5.243  10.212  17.028 -0.0907 -0.0494  0.3286
17236W        W36770  12.009   3.329   2.019 -0.2106  0.2922 -0.1296
17237W        W36771  10.972   5.707  12.533 -0.1818  0.4591 -0.5416
17238W        W36772   1.883  14.320  14.051  0.2881  0.0080  0.0568
17239W        W36773   1.951   3.723  15.131 -0.1078  0.2375  0.3285
17240W        W36774  11.270   7.440   2.627 -0.0827 -0.2246 -0.1008
17241W        W36775   0.719  10.149  12.081 -0.0327 -0.4313 -0.3393
17242W        W36776  11.377   5.361   2.664  0.0399  0.0219  0.2574
17243W        W36777   9.889   0.376  14.147 -0.2797  0.0109 -0.0499
17244W        W36778  14.537   3.490   4.168 -0.0002  0.0717  0.4542
17245W        W36779  10.288   1.501   3.423  0.1537 -0.2623 -0.1862
17246W        W36780  14.194   4.941   4.279 -0.0277  0.0593 -0.0811
17247W        W36781   6.742  11.000  11.717 -0.1712  0.1063  0.0548
17248W        W36782  12.154  11.749  13.391  0.0843  0.1116 -0.3080
17249W        W36783  15.188  15.810  12.559 -0.0919  0.1952 -0.0820
17250W        W36784  14.205  13.464  15.476 -0.0972  0.0748  0.0364
17251W        W36785  12.830   0.167   2.191  0.1831  0.0062  0.2042
17252W        W36786   3.505  12.354   1.738  0.1847  0.2690 -0.3044
17253W        W36787   9.907   6.912  13.924 -0.2333 -0.2621 -0.1968
17254W        W36788  14.687  16.344   4.043  0.4809  0.4617 -0.0772
17255W        W36789  12.355  12.750  16.216  0.0599 -0.0502 -0.1300
17256W        W36790   9.618   7.430   2.115  0.2667  0.0269  0.2199
17257W        W36791   2.399  15.775   2.929 -0.1128  0.1394  0.2311
17258W        W36792  17.651   5.263   2.320 -0.0135  0.3650  0.0147
17259W        W36793  15.259   6.022   4.707  0.1329 -0.1404 -0.0173
17260W        W36794   5.406   5.420  15.956  0.2987  0.0130  0.0217
17261W        W36795  15.622  16.675  14.336  0.0131 -0.1784 -0.1716
17262W        W36796  15.081  15.191   5.061 -0.2072  0.1928 -0.0716
17263W        W36797   4.922  11.154  15.475 -0.1936  0.3002 -0.0400
17264W        W36798  10.308   1.659  12.922 -0.1010  0.0986  0.1468
17265W        W36799   1.817   1.997   4.404  0.1257 -0.0216 -0.1509
17266W        W36800  14.140   9.680  12.045 -0.2850  0.2058 -0.1226
17267W        W36801  17.609   5.730  16.696 -0.3585  0.0157 -0.1283
17268W        W36802   8.725   7.635  14.324  0.0012 -0.4306 -0.0773
17269W        W36803   7.497  16.329   2.423  0.1352 -0.2313  0.0240
17270W        W36804   1.037  11.712   1.620 -0.1081  0.0098  0.2509
17271W        W36805   7.061   2.115  13.606  0.0579  0.2823 -0.2202
17272W        W36806  15.980   5.276  12.899  0.0465  0.0557 -0.0426
17273W        W36807   5.687  15.303  16.946 -0.2360  0.0452 -0.0461
17274W        W36808   1.177   0.510  12.433  0.0565  0.2218 -0.1302
17275W        W36809   8.736  16.480  15.880 -0.1225  0.3309  0.0781
17276W        W36810  10.315   0.095   5.187  0.0065 -0.3610  0.3505
17277W        W36811  17.358  15.898   1.899 -0.2342  0.0640  0.0527
17278W        W36812   1.942   2.592  16.413  0.2689  0.2093  0.1996
17279W        W36813   8.069   4.366   0.491 -0.2091  0.1333  0.2763
17280W        W36814  14.603   7.071  11.796 -0.2529  0.0447  0.0474
17281W        W36815  12.337   1.977  13.307 -0.3362  0.0976  0.0380
17282W        W36816  16.418   6.522  12.906  0.0535  0.1050 -0.2017
17283W        W36817   7.146  17.425   1.025  0.0527  0.0134 -0.3043
17284W        W36818  16.104  14.242  16.010  0.1114 -0.2169 -0.2655
17285W        W36819  14.122   0.503  15.172 -0.1573 -0.1985 -0.1614
17286W        W36820   7.144   3.857  13.754  0.1115  0.1013 -0.0862
17287W        W36821  12.270  11.229  12.035 -0.2458  0.0367 -0.0145
17288W        W36822  15.851   6.309  15.741 -0.3259 -0.0585  0.1059
17289W        W36823  12.053  10.205  14.412  0.4190 -0.4337 -0.1075
17290W        W36824  13.969   3.109   4.815  0.2963  0.1876 -0.0922
17291W        W36825   5.495  12.210   4.644  0.0187  0.2058 -0.3194
17292W        W36826   5.048  12.395  12.379  0.2881 -0.0659  0.0793
17293W        W36827  13.046  16.606  13.947 -0.0641 -0.2044 -0.0065
17294W        W36828  12.153   2.565  13.547  0.0314 -0.0009  0.2269
17295W        W36829   2.115  17.208  12.699 -0.1409  0.1963  0.0971
17296W        W36830  14.474   1.589  12.450 -0.0076 -0.2532  0.1222
17297W        W36831   7.613   4.766  13.865 -0.0231 -0.2356  0.1328
17298W        W36832  15.037  11.512  15.329  0.3556 -0.2967  0.1631
17299W        W36833   9.496  17.441  13.446 -0.2147 -0.0940  0.2222
17300W        W36834  10.968   8.655  16.618  0.0500  0.0179 -0.0832
17301W        W36835  16.512   7.480  14.582 -0.3811  0.1217  0.0402
17302W        W36836   6.090  10.765  14.702 -0.3166  0.1439 -0.0489
17303W        W36837   3.590   2.600  12.232 -0.2152  0.1388  0.1774
17304W        W36838   2.599  16.250   2.740 -0.2637  0.0735  0.0766
17305W        W36839  12.277  16.270   3.047  0.3177 -0.0330  0.1267
17306W        W36840  13.623  17.654   5.171 -0.0057 -0.0037 -0.1165
17307W        W36841  14.323  10.673   0.712  0.3094  0.0039 -0.0203
17308W        W36842  12.295  10.718  15.261  0.0493  0.0481  0.1246
17309W        W36843   6.042   7.436  13.345  0.4548  0.0652 -0.1058
17310W        W36844   1.671   4.166   2.988  0.1360 -0.1718  0.0444
17311W        W36845   5.935   1.811   4.048  0.1145 -0.1937 -0.1051
17312W        W36846   4.495   7.191   3.781 -0.0007  0.1101 -0.1073
17313W        W36847   0.750   2.445   2.075  0.0536 -0.0450 -0.0620
17314W        W36848   6.340  12.309  13.796 -0.1078  0.1466 -0.4099
17315W        W36849  12.759  16.382   4.401  0.0454  0.1453 -0.1362
17316W        W36850   4.315  11.469   4.284  0.0494  0.3931  0.0204
17317W        W36851  14.785   0.147  16.247 -0.3563 -0.0962 -0.1859
17318W        W36852   5.672   0.642  13.196 -0.1232 -0.1568 -0.2864
17319W        W36853   8.367   0.892   4.605 -0.2500  0.1891  0.2075
17320W        W36854  17.415   7.047   5.196 -0.4502  0.1153  0.1959
17321W        W36855   5.831  11.299  13.578  0.1913 -0.2024  0.1586
17322W        W36856  10.315  10.763   3.247 -0.0596 -0.1599  0.0998
17323W        W36857   8.713   7.248   4.373 -0.2771  0.1817  0.1798
17324W        W36858  16.087   7.963  15.373  0.1283  0.0884 -0.2321
17325W        W36859   0.065  11.290   0.491 -0.0394 -0.3912 -0.2415
17326W        W36860   8.447  12.287   2.446  0.1412  0.0135 -0.3484
17327W        W36861  15.795   0.280  15.294  0.1587 -0.2200 -0.5317
17328W        W36862   2.491  12.826   1.969  0.2426 -0.2449  0.1385
17329W        W36863   8.936  14.138  14.161  0.0028  0.1238  0.2166
17330W        W36864   0.105  10.136  16.643 -0.0806 -0.1067  0.1558
17331W        W36865   9.527   4.231  14.618 -0.0353  0.0042  0.4093
17332W        W36866  17.258  17.289   4.331 -0.0501  0.1457  0.1587
17333W        W36867  15.054   3.267   4.811  0.0685 -0.2747  0.2905
17334W        W36868   1.963  14.520  14.492 -0.0023 -0.2545 -0.2741
17335W        W36869   8.367  16.704   5.015  0.0528 -0.3466  0.0186
17336W        W36870  13.733   6.341  14.982 -0.1318 -0.3713 -0.0942
17337W        W36871   6.717   9.122   0.314 -0.0981  0.2066 -0.0978
17338W        W36872   3.530   2.797  16.791 -0.3679 -0.0893  0.0952
17339W        W36873   4.032   3.016  12.847 -0.1251  0.1348 -0.1613
17340W        W36874  16.747   9.079   4.519 -0.0306  0.2443 -0.2134
17341W        W36875   5.447   1.322  15.706  0.1968 -0.2348 -0.3182
17342W        W36876  11.172   4.319  15.591  0.1661 -0.0356  0.2027
17343W        W36877   0.386   2.453   1.278 -0.0097  0.0520 -0.1663
17344W        W36878   4.267   4.249   4.260 -0.2364 -0.0893 -0.1470
17345W        W36879   8.345   6.711  16.794  0.2559  0.1883 -0.0196
17346W        W36880   1.533  15.613   1.261 -0.1649  0.1691 -0.1888
17347W        W36881  12.991  16.646  16.942 -0.0081 -0.0196 -0.0301
17348W        W36882   2.515  10.581   4.041 -0.0983 -0.1653  0.0881
17349W        W36883   7.871  11.829  12.613  0.1039 -0.1081 -0.2559
17350W        W36884   6.929   0.419   3.127 -0.0307  0.1051 -0.4749
17351W        W36885   0.345   6.704  16.670  0.1367 -0.0139  0.0481
17352W        W36886  12.887  12.252   2.295 -0.2115  0.0491 -0.1417
17353W        W36887   1.930  10.852  12.706  0.0212  0.1591  0.0084
17354W        W36888  11.779   4.272  12.886 -0.1292  0.1083 -0.0378
17355W        W36889   6.719   5.525  15.780 -0.3502 -0.1653  0.0639
17356W        W36890  14.919  10.883   4.642 -0.0494 -0.0844  0.2735
17357W        W36891  16.388  14.066  15.528  0.2072 -0.2403 -0.2313
17358W        W36892  12.618   2.300   0.846  0.0342  0.1404  0.0796
17359W        W36893   4.915   3.083  12.653  0.1189  0.3406 -0.0798
17360W        W36894   9.293  12.977  15.073 -0.0511 -0.1367  0.1461
17361W        W36895   9.905   0.089  16.239 -0.1250  0.1581  0.0006
17362W        W36896   3.198  11.215  16.357  0.2443 -0.0395  0.3030
17363W        W36897   8.142   1.588   0.759  0.1311  0.1146 -0.1235
17364W        W36898  10.603  16.213   4.911 -0.0745  0.3539  0.1630
17365W        W36899   1.994   5.170   1.824  0.0242 -0.3099  0.1538
17366W        W36900  10.779   1.333  14.669  0.1600 -0.0274 -0.1750
17367W        W36901   0.769   0.366   3.666 -0.3129 -0.0839 -0.2172
17368W        W36902   0.485  14.005  13.786  0.0061 -0.1175 -0.0196
17369W        W36903   1.906   6.471   5.046 -0.0251 -0.2442 -0.1039
17370W        W36904   7.169  12.952   3.843 -0.0348  0.1363 -0.0263
17371W        W36905   7.931   5.969  15.341 -0.3200 -0.1383  0.3625
17372W        W36906   1.638  15.605  15.420  0.1360  0.1550 -0.1422
17373W        W36907   9.876   0.820  13.137 -0.0752  0.3397  0.1290
17374W        W36908  16.653  17.529  15.065 -0.2056 -0.1093 -0.2650
17375W        W36909  17.185   2.857  16.710  0.0759  0.2066 -0.0643
17376W        W36910   5.628   1.859   4.442  0.0593  0.0497  0.0784
17377W        W36911   8.644  13.530  12.062  0.3551 -0.2709 -0.0678
17378W        W36912  16.875   3.725   3.100  0.2590  0.2095  0.1783
17379W        W36913   9.891   2.036  14.138  0.0660  0.4863  0.2098
17380W        W36914   3.678  13.062  13.627  0.2717 -0.1182 -0.0615
17381W        W36915   1.455   7.467   4.418 -0.0466 -0.0372 -0.0606
17382W        W36916   1.928   0.641   3.025  0.0509  0.2510 -0.0405
17383W        W36917   0.043  12.850   0.269  0.0349  0.0464 -0.0089
17384W        W36918   6.256  12.820   0.807  0.2868 -0.1818  0.0647
17385W        W36919   3.348  17.206  15.753 -0.0614 -0.0375 -0.0353
17386W        W36920  10.394  14.675  12.683  0.0706  0.2222  0.0283
17387W        W36921   7.932   6.405  16.503  0.2034 -0.1092  0.0458
17388W        W36922  12.977   3.456   1.835  0.0120 -0.3494 -0.0392
17389W        W36923  10.184   2.575   4.495 -0.2290  0.0279 -0.0743
17390W        W36924   0.839   4.412  12.632 -0.0031 -0.0572 -0.2724
17391W        W36925  11.167   7.991   0.263  0.2199  0.0922  0.1461
17392W        W36926  10.393  15.020  15.392  0.3739  0.1213 -0.1368
17393W        W36927   7.745   4.042   0.688  0.0031  0.1054  0.2149
17394W        W36928   1.190  10.011  11.907  0.2661 -0.0966 -0.4442
17395W        W36929   2.343  12.738   3.050 -0.0531  0.4282  0.3760
17396W        W36930   1.485   2.279  14.005 -0.0776  0.1784  0.1130
17397W        W36931   8.566   7.709   4.524  0.1773  0.7293  0.1341
17398W        W36932   4.898   5.829   3.345  0.1819  0.1589  0.1865
17399W        W36933   7.688  14.348  16.923 -0.1846  0.0673  0.3836
17400W        W36934   6.993   3.731  15.773  0.0821  0.2851  0.1342
17401W        W36935   9.189   6.913  16.870  0.0751 -0.3366 -0.2798
17402W        W36936   6.552   4.544  13.357 -0.0128 -0.0313  0.2125
17403W        W36937  11.528  17.529   1.512  0.0838 -0.0540  0.2663
17404W        W36938  14.865  14.888   0.298 -0.3335 -0.3714  0.0566
17405W        W36939  13.988   8.094  13.557  0.1008 -0.2728 -0.0901
17406W        W36940   4.932  13.479   1.030  0.0591 -0.0870 -0.2172
17407W        W36941  15.759   9.352   0.949  0.4132  0.1039 -0.0371
17408W        W36942   1.698   5.416   3.200 -0.1168  0.2017  0.1529
17409W        W36943   4.232   4.290   1.485 -0.0732 -0.0004  0.0201
17410W        W36944   2.973   2.958  16.316  0.3453  0.3254 -0.3362
17411W        W36945  14.024   1.742   2.787 -0.4372 -0.2261  0.0192
17412W        W36946  16.949   9.100   0.676  0.0252 -0.4305 -0.0813
17413W        W36947  16.433  14.636  14.104 -0.3407 -0.1706  0.2671
17414W        W36948   1.402   8.599  14.515  0.1293 -0.2352 -0.0204
17415W        W36949   6.334  11.507   3.493  0.1473 -0.0906  0.1460
17416W        W36950  15.927   0.817  16.321 -0.0838  0.0097 -0.1814
17417W        W36951   9.637   5.344   4.026  0.0061  0.2105 -0.0057
17418W        W36952  13.491  14.275  12.059  0.1200  0.0953 -0.2572
17419W        W36953  10.235   0.802  13.872  0.0465 -0.1443 -0.0252
17420W        W36954  17.273  17.004  12.590 -0.0430  0.0091 -0.0060
17421W        W36955   0.405  17.510   3.691 -0.0317 -0.5781  0.3355
17422W        W36956  15.478  16.810   1.208 -0.0756 -0.0991 -0.0291
17423W        W36957   4.917   1.957  15.666 -0.1918  0.0904  0.0894
17424W        W36958  11.336  11.871  14.554  0.1816 -0.1377 -0.1919
17425W        W36959  10.444   9.091   0.729  0.2811 -0.0373 -0.2980
17426W        W36960   7.645   8.123  14.945 -0.2258 -0.1375  0.3123
17427W        W36961   9.328   4.779  12.222  0.3027 -0.4114  0.1693
17428W        W36962  12.068  14.340  12.148  0.0332 -0.0102  0.0093
17429W        W36963  12.877   8.863  16.234 -0.1670 -0.2481  0.0077
17430W        W36964  15.015   3.384   2.400 -0.0274 -0.0731  0.0060
17431W        W36965   0.323   3.752   3.344  0.4000 -0.0402 -0.0429
17432W        W36966  12.528  13.818  16.057 -0.2867 -0.0341  0.4072
17433W        W36967   7.607   1.419  16.026 -0.1190 -0.0421 -0.0368
17434W        W36968   4.552   6.520  12.047 -0.1173  0.1862 -0.3521
17435W        W36969   9.040  15.521   1.536 -0.2100 -0.3812  0.1155
17436W        W36970  16.447   7.366  13.335 -0.2952  0.0308  0.0277
17437W        W36971  12.776   6.314  15.859  0.3683  0.0867 -0.3826
17438W        W36972  12.183   3.723   4.323  0.0049 -0.2079 -0.1671
17439W        W36973   0.174  10.693   2.832  0.2986  0.0103  0.0524
17440W        W36974   7.657   5.986   4.616  0.0985  0.0397  0.2125
17441W        W36975  11.070   2.040  15.348  0.0654  0.1165  0.0128
17442W        W36976  16.217   2.768   1.547  0.2051  0.1901  0.1026
17443W        W36977  15.404   4.508   0.890 -0.3046  0.3437 -0.0034
17444W        W36978   9.248  17.065  16.519  0.0837  0.1732 -0.2344
17445W        W36979   6.428   1.160   3.866 -0.2157 -0.2252  0.0588
17446W        W36980   1.334  11.863   3.159 -0.1563 -0.1407 -0.5509
17447W        W36981   2.740  11.909   3.367  0.1271  0.1465 -0.0956
17448W        W36982   2.825   8.100  13.437 -0.0232 -0.0802 -0.1428
17449W        W36983   1.279   7.682   2.485 -0.0756  0.0213  0.0500
17450W        W36984  15.036  13.875  10.883  0.1806 -0.0925 -0.0111
17451W        W36985   0.609   0.990   2.868 -0.0502 -0.1409 -0.1669
17452W        W36986   4.419  16.412   1.604  0.0384 -0.0053  0.1670
17453W        W36987  11.313   4.841  15.689 -0.2344  0.1242  0.2864
17454W        W36988   5.921   3.877  16.342  0.0512  0.1633 -0.0472
17455W        W36989   4.194   1.594  15.377  0.0273  0.0630 -0.0229
17456W        W36990   4.276   5.370   4.015 -0.2208  0.0233  0.2913
17457W        W36991  13.336  17.010   0.362 -0.3401 -0.2638  0.1761
17458W        W36992   2.288   3.079   4.897 -0.0452  0.1979  0.3679
17459W        W36993  17.318  10.495  14.282 -0.1322 -0.2015  0.0944
17460W        W36994  16.584   6.377  16.491 -0.0897 -0.1718  0.0915
17461W        W36995   5.794  15.658   4.904 -0.1493  0.0875 -0.0359
17462W        W36996   8.208  16.807  15.509 -0.1826  0.0869  0.0407
17463W        W36997  10.044   9.410   3.027  0.0143 -0.0156 -0.0886
17464W        W36998   1.949   6.056   1.891 -0.3926 -0.1309 -0.0731
17465W        W36999  10.932  17.280  15.216 -0.0985 -0.2295 -0.0060
17466W        W37000   6.513  16.118   1.016 -0.0562 -0.1224  0.1998
17467W        W37001   4.366  15.192  12.337 -0.1982 -0.2655  0.2495
17468W        W37002   3.599   9.863  15.460 -0.1431 -0.0569  0.3772
17469W        W37003   9.966  12.299   2.641 -0.0164 -0.1525 -0.1208
17470W        W37004  11.195   7.090  13.429 -0.1675  0.0960 -0.0505
17471W        W37005   3.404  13.898  15.940 -0.0085 -0.0819  0.4045
17472W        W37006   4.161  10.798   0.464  0.1809 -0.0017  0.0404
17473W        W37007   3.971  13.639  13.182 -0.0758  0.2976  0.1761
17474W        W37008   8.442  15.456  16.650 -0.1625  0.1024 -0.2677
17475W        W37009   6.751  16.447   4.188  0.3873 -0.0124 -0.1910
17476W        W37010  10.524   4.039   2.487  0.1653 -0.0205  0.0509
17477W        W37011   7.197  14.497   5.800  0.1327  0.0434 -0.0217
17478W        W37012   6.592   0.398  13.905  0.1236  0.0601  0.3507
17479W        W37013  13.388   8.086   0.850  0.2566  0.0854 -0.0335
17480W        W37014  15.631  16.411   3.567  0.3468  0.2500  0.0541
17481W        W37015  16.940  11.165  14.989 -0.0236 -0.1401 -0.0300
17482W        W37016   6.731   6.194   0.853 -0.1757 -0.3144 -0.1159
17483W        W37017  11.182  16.130   0.385 -0.0065 -0.1804  0.1592
17484W        W37018  15.334  14.141  16.667  0.2172 -0.0146 -0.0883
17485W        W37019  13.713   1.045  14.171 -0.1368 -0.1373  0.0515
17486W        W37020  10.000  15.329   2.965 -0.0362 -0.0777  0.0293
17487W        W37021   2.520   1.200  15.289 -0.3039 -0.5121  0.0278
17488W        W37022   4.484   2.366   0.763  0.0776 -0.0941 -0.3313
17489W        W37023  16.062  16.839   1.644 -0.1509 -0.2587  0.3277
17490W        W37024   0.038  11.110   4.179 -0.1133  0.2585 -0.1474
17491W        W37025   7.938  16.242  13.994  0.1916  0.5196  0.1202
17492W        W37026   0.001   6.198   1.883 -0.2498 -0.0301 -0.4398
17493W        W37027   4.798  11.347   0.121  0.4358 -0.3891  0.0949
17494W        W37028   3.434  14.545  13.273 -0.2682 -0.4453 -0.0145
17495W        W37029  17.610  16.045   4.163 -0.2766  0.0467  0.0915
17496W        W37030   0.100   4.086  17.046 -0.1906  0.0836  0.1922
17497W        W37031  15.177   5.877   5.238  0.1157  0.2590 -0.1686
17498W        W37032   6.903  17.100   2.152  0.0205  0.0532 -0.0219
17499W        W37033   1.403   3.031  13.918  0.1758  0.0205  0.1607
17500W        W37034   1.135   7.038   1.514  0.2136  0.0271 -0.0549
17501W        W37035   8.780  14.130   0.398 -0.1754 -0.1265 -0.0336
17502W        W37036   1.181   8.611  12.769 -0.1948  0.2722 -0.1684
17503W        W37037  12.427   6.061  13.643  0.2113  0.2864  0.0267
17504W        W37038   9.531   9.327  15.168 -0.1599  0.1971 -0.2976
17505W        W37039  10.707  16.861   1.576  0.1428 -0.1924 -0.1021
17506W        W37040  11.649  11.373   3.798  0.0630 -0.3037 -0.1553
17507W        W37041   4.068  15.682  15.281 -0.1366  0.1041  0.2074
17508W        W37042   4.311  12.702  14.972  0.0551 -0.0766  0.2174
17509W        W37043   0.726   7.351   1.647  0.1707  0.0871  0.0561
17510W        W37044   5.125   4.643   2.842 -0.1550  0.1601 -0.1070
17511W        W37045   7.131  13.049  16.535  0.1089 -0.0285 -0.3296
17512W        W37046   0.047   8.242  15.273 -0.0786 -0.1108 -0.1354
17513W        W37047  12.079   1.345   3.288  0.1171  0.0405 -0.0514
17514W        W37048   7.180   3.721   0.599 -0.2690 -0.2185  0.1536
17515W        W37049  17.158   5.128   2.350 -0.3992  0.0566  0.2571
17516W        W37050  13.818   4.323  16.853  0.0796 -0.0842  0.3400
17517W        W37051  16.589   0.803  13.423  0.1519  0.1844  0.2504
17518W        W37052   8.219  10.577  12.129 -0.1838 -0.0321  0.4019
17519W        W37053   8.802   8.708  12.812 -0.2282 -0.3238 -0.0873
17520W        W37054   7.455   3.192  14.436 -0.1727  0.3204  0.2855
17521W        W37055  16.492  10.707   2.014  0.3261  0.0458  0.1024
17522W        W37056  10.357   9.535  12.827 -0.3467  0.1730  0.3300
17523W        W37057  15.399   0.727   5.019 -0.3809  0.1211 -0.1004
17524W        W37058   1.679   4.482  13.980 -0.0522  0.0986  0.1482
17525W        W37059   3.294   2.153   1.376 -0.0236  0.0011  0.1310
17526W        W37060   6.701   9.423  13.881 -0.0129  0.0751  0.1127
17527W        W37061   8.761   2.627   2.725  0.0464  0.0877 -0.1112
17528W        W37062   2.571  10.723   0.566 -0.0395  0.1099  0.0401
17529W        W37063   9.698   6.471  14.322 -0.1450 -0.2796  0.0212
17530W        W37064   0.747  13.468  17.017  0.0831  0.0433 -0.2196
17531W        W37065   9.548  13.427   2.082 -0.3248 -0.2122  0.0372
17532W        W37066  13.340   9.050  12.199  0.0825  0.1931  0.3112
17533W        W37067   9.400   7.820   2.754  0.0583 -0.0092 -0.1090
17534W        W37068  11.680   2.889   1.981 -0.2879  0.1115  0.2708
17535W        W37069   7.449   7.818  15.714  0.0605  0.2074 -0.0385
17536W        W37070   1.594  10.293  14.995  0.0503 -0.3438 -0.2592
17537W        W37071  10.904   5.109  14.536 -0.0027 -0.0566  0.0288
17538W        W37072   4.556   5.281   1.793  0.0102 -0.0074  0.1437
17539W        W37073   8.284   5.987   4.232 -0.0994 -0.3678  0.1683
17540W        W37074  12.106   6.067  12.490  0.1455  0.2477 -0.1268
17541W        W37075   9.996   9.704   3.430 -0.0778  0.1451  0.2194
17542W        W37076   1.949   6.541  16.066 -0.0197  0.2056 -0.3662
17543W        W37077  16.739   8.244  15.528 -0.0401  0.1048 -0.1660
17544W        W37078  13.235   7.041  13.781  0.0259 -0.2830  0.0943
17545W        W37079   7.055  14.361  16.954 -0.0238  0.5998  0.0655
17546W        W37080  16.836  13.290  12.330  0.1639  0.1112  0.0787
17547W        W37081   0.270   3.723  14.935 -0.1801 -0.0935 -0.0114
17548W        W37082   4.556  12.357  12.369 -0.2587  0.0865  0.0765
17549W        W37083  15.951   9.934   2.088  0.1235 -0.1687  0.0099
17550W        W37084   1.232   4.959  12.901  0.1877  0.1641  0.1211
17551W        W37085   3.116   8.453  16.274  0.1190 -0.0683  0.1317
17552W        W37086   0.058  17.221   2.222 -0.1019  0.2760 -0.0069
17553W        W37087   6.456  14.242  12.137 -0.0665 -0.0232  0.1657
17554W        W37088  10.958  16.398  14.612 -0.1669  0.0648  0.2921
17555W        W37089   7.552   4.897  14.311  0.1729 -0.0087 -0.0733
17556W        W37090  13.569   1.910   2.739  0.0124 -0.0495  0.1417
17557W        W37091   2.655  10.994  14.810  0.2414 -0.0411  0.1127
17558W        W37092   7.655   9.554   1.637  0.0199 -0.1054  0.0951
17559W        W37093   2.930  17.290   0.113  0.0643  0.1220  0.1294
17560W        W37094  12.752   3.538  12.582  0.0448 -0.1939  0.1897
17561W        W37095  16.455   8.476  13.015  0.0222 -0.0870  0.3393
17562W        W37096   3.475  15.643  14.649 -0.0217 -0.0585 -0.2443
17563W        W37097  16.922  11.264  16.757  0.0439 -0.1902 -0.1962
17564W        W37098  10.612  11.807  15.709  0.0685 -0.0293  0.3559
17565W        W37099  14.956   4.552   1.458 -0.2118  0.1082 -0.1293
17566W        W37100   6.021  13.728  12.037 -0.1445 -0.0057 -0.0845
17567W        W37101  14.786   5.827  15.587 -0.0463  0.5186  0.2301
17568W        W37102  13.069  10.319   3.009 -0.5445  0.2579 -0.2205
17569W        W37103  10.614   2.653   0.824 -0.0866 -0.0580 -0.0562
17570W        W37104   7.946   8.517  13.112 -0.1603  0.0211  0.1152
17571W        W37105  14.513  10.201  14.199 -0.0501  0.0672  0.3570
17572W        W37106  12.871  10.169   1.542 -0.1507 -0.3836  0.1436
17573W        W37107  14.134   5.890   1.897 -0.2932 -0.2295  0.1758
17574W        W37108   2.088  16.910   0.151  0.1745 -0.0148 -0.1136
17575W        W37109   5.796   8.335  15.564 -0.1969 -0.0057 -0.3141
17576W        W37110   3.528   8.631  13.794 -0.1474 -0.3056  0.1909
17577W        W37111  13.501  10.717  16.435  0.1369  0.0301  0.1455
17578W        W37112  15.938   2.284   0.810 -0.0088  0.0533  0.0320
17579W        W37113   9.450   1.218   4.054 -0.4465 -0.1606  0.0505
17580W        W37114  13.670  13.358   3.652 -0.1958  0.2150  0.1099
17581W        W37115  14.679   4.426  16.334  0.1954 -0.0387 -0.0992
17582W        W37116  10.129   0.857   1.111 -0.0655  0.2529  0.2495
17583W        W37117   0.687   2.207  16.695  0.1143 -0.0357 -0.0620
17584W        W37118   1.119  12.529  15.911 -0.1270  0.0832  0.2349
17585W        W37119   3.591   2.447  13.964  0.0995 -0.1149 -0.1103
17586W        W37120   5.083   9.478  12.756 -0.0837  0.2340  0.2972
17587W        W37121   8.425  15.739  13.275 -0.2645  0.2026 -0.0701
17588W        W37122  14.420   9.189   2.838 -0.1666  0.1192 -0.0963
17589W        W37123   9.088  13.049   0.130 -0.0618 -0.1201 -0.3146
17590W        W37124  11.998  15.725   0.292  0.1652 -0.3138 -0.2393
17591W        W37125   3.769  12.048  12.898  0.0318  0.0507 -0.0188
17592W        W37126   4.375   1.638   0.494  0.2138 -0.0461  0.2131
17593W        W37127   9.116   1.010   4.432  0.0218 -0.1319  0.1986
17594W        W37128   3.266   1.103   3.685  0.1145  0.0696  0.3668
17595W        W37129   6.706   4.609  15.732 -0.2457  0.2101 -0.1753
17596W        W37130  12.021  10.234   0.832 -0.1319 -0.0604  0.1121
17597W        W37131  12.277   8.436   1.912  0.1980  0.2473 -0.2234
17598W        W37132  12.001  17.380   1.525  0.0346 -0.1482 -0.1536
17599W        W37133   4.450  11.946  14.094 -0.2162  0.0324  0.2182
17600W        W37134   6.687   0.204   3.546 -0.0058  0.1535 -0.5741
17601W        W37135   4.962  12.677   1.298 -0.0836 -0.1249 -0.0634
17602W        W37136   1.538  16.873   0.012 -0.3073  0.1054  0.0815
17603W        W37137   0.615  12.150   3.630  0.0230 -0.1908  0.0717
17604W        W37138  17.001  14.902   0.964 -0.1831  0.1792 -0.0325
17605W        W37139   7.697   8.569  16.060  0.1266 -0.0129 -0.0472
17606W        W37140  12.605  14.993   0.580 -0.1816 -0.1240  0.1474
17607W        W37141  12.983   3.545   5.420 -0.2651  0.0106 -0.2881
17608W        W37142   3.150  17.553  16.596 -0.2257 -0.0367  0.0939
17609W        W37143   5.632  11.333  16.334  0.1936 -0.0091  0.2801
17610W        W37144  17.551  15.795  13.038 -0.1120 -0.1279  0.3104
17611W        W37145  17.402  16.439   3.823  0.3609  0.1688  0.0164
17612W        W37146   1.196   4.334  14.296  0.0832  0.2966 -0.0391
17613W        W37147  16.920   2.833  15.198  0.3523  0.0161 -0.1104
17614W        W37148  13.580  14.896   3.060  0.0736  0.1860  0.1209
17615W        W37149   3.247   3.044  12.371 -0.0555  0.0447 -0.1757
17616W        W37150  14.797  16.936  13.493 -0.0228 -0.1266  0.1607
17617W        W37151  14.800  15.874  15.035 -0.0795 -0.3176 -0.1529
17618W        W37152   2.117   5.300  16.096 -0.2458  0.0402 -0.2401
17619W        W37153  12.078  15.938  14.402  0.0867 -0.0234 -0.3558
17620W        W37154  13.654   5.284  15.277 -0.0789  0.3771 -0.2223
17621W        W37155  17.249   8.302  12.629 -0.1466 -0.0653  0.0783
17622W        W37156  16.160  13.886   2.189 -0.1167 -0.1559  0.1707
17623W        W37157   2.748   2.266   3.607  0.2695 -0.1928 -0.0622
17624W        W37158  10.387  16.955   2.983 -0.2758  0.5560  0.2796
17625W        W37159  10.845  11.818  13.778  0.1140  0.0255  0.0745
17626W        W37160  13.566  12.591  16.799  0.0111 -0.1989 -0.0827
17627W        W37161   1.499  11.582   3.919  0.3355  0.0573  0.0526
17628W        W37162   9.085   7.279  16.553 -0.1699 -0.1343  0.0425
17629W        W37163   6.339   7.522   4.410  0.1767 -0.0937  0.1258
17630W        W37164   0.738   0.823  14.844 -0.0929 -0.0143  0.2835
17631W        W37165  16.175  13.737  14.211  0.1840 -0.1850 -0.2309
17632W        W37166  12.184   5.537   1.559 -0.0600  0.0766  0.1615
17633W        W37167  13.258   8.315   1.749  0.2209 -0.4406 -0.0843
17634W        W37168   3.540  15.686  15.181  0.0652 -0.1367  0.1688
17635W        W37169   7.143  15.972  13.468  0.0035  0.2834  0.0767
17636W        W37170  10.570   1.123   0.266 -0.1817  0.4982  0.3462
17637W        W37171   6.550  11.006   0.308  0.1514  0.2907  0.1761
17638W        W37172  10.255   0.737  14.369  0.0268 -0.3155  0.2805
17639W        W37173  15.058   0.664   3.764 -0.3035 -0.1910 -0.1360
17640W        W37174  12.147   6.651   4.262 -0.0120  0.0272 -0.0463
17641W        W37175   0.031  16.468  16.118  0.0220 -0.0832 -0.0318
17642W        W37176   3.313  11.457  15.913 -0.0189  0.1279  0.2906
17643W        W37177   1.285   3.401  16.633  0.3812 -0.2707 -0.1319
17644W        W37178  15.708   4.947   2.188 -0.2256  0.0667 -0.0542
17645W        W37179   9.877   3.780   0.656  0.1557  0.0091 -0.0060
17646W        W37180   1.054   1.942   1.328  0.1209  0.0971 -0.0342
17647W        W37181   2.618  13.527  13.032  0.0304  0.0341 -0.1394
17648W        W37182  12.795   3.555  15.780 -0.3710 -0.0592  0.1168
17649W        W37183  15.951   6.716   4.009  0.3392 -0.0093 -0.1031
17650W        W37184   1.154  10.942  15.585 -0.0057 -0.3190 -0.0773
17651W        W37185   6.546  11.282   1.211  0.0555  0.0559 -0.1684
17652W        W37186   0.280  16.557  14.370  0.1399 -0.1278  0.1514
17653W        W37187   1.359   7.390   4.988 -0.1607 -0.0082 -0.3566
17654W        W37188  14.277  16.017   1.083 -0.0411 -0.2144 -0.0419
17655W        W37189  12.690  16.128   3.369  0.2015 -0.4034  0.4132
17656W        W37190   6.082  14.734  12.858  0.0017 -0.0741 -0.0901
17657W        W37191   8.959  16.613  11.064 -0.1634  0.2602  0.2484
17658W        W37192   8.374   2.915  14.840 -0.3110  0.1170 -0.1357
17659W        W37193   1.895  10.666  11.486 -0.1308  0.1611 -0.0593
17660W        W37194  12.127  13.824  12.923 -0.0062  0.0350 -0.0243
17661W        W37195  16.204   1.805  16.746  0.2045  0.0762 -0.2041
17662W        W37196  12.900  14.043  13.287  0.2426  0.1143  0.0077
17663W        W37197  15.934   7.401  16.989 -0.2722 -0.3095  0.1501
17664W        W37198  14.421   5.513  14.653 -0.2607 -0.0751 -0.2665
17665W        W37199   4.098   1.041  13.902  0.1333  0.1412  0.1420
17666W        W37200  12.192   6.975   2.265 -0.0396 -0.0913 -0.3232
17667W        W37201   7.625  15.797   4.903  0.3526 -0.3178  0.1044
17668W        W37202  11.932   1.329  14.037 -0.1501 -0.1691  0.0794
17669W        W37203  11.140  17.314  13.378 -0.2808  0.1762 -0.2068
17670W        W37204   8.439   4.740  15.901  0.2487 -0.2587 -0.0141
17671W        W37205  16.818  11.623  13.402 -0.0718 -0.3968  0.2281
17672W        W37206   6.253   9.593   1.417 -0.0805  0.0487 -0.0846
17673W        W37207   3.872   0.386  13.192 -0.0165 -0.0737  0.1378
17674W        W37208  12.169  16.417  14.046  0.5012 -0.3157  0.3138
17675W        W37209   7.018   7.935   4.846 -0.0033  0.1379 -0.0503
17676W        W37210  13.887   8.042   0.614  0.2668 -0.1428 -0.0313
17677W        W37211   4.627  14.254  13.560  0.2551  0.1921  0.1350
17678W        W37212   3.620  12.893   3.950 -0.1227  0.3405 -0.0101
17679W        W37213  10.604  11.816   0.840  0.2529 -0.1631  0.0162
17680W        W37214   9.448   6.395   3.086 -0.3570  0.1068  0.1342
17681W        W37215   8.471   2.546  16.930 -0.0089  0.2319 -0.0351
17682W        W37216  14.987  11.142   2.872  0.1423 -0.0243 -0.2340
17683W        W37217   3.633   9.956   3.184  0.1413 -0.0839 -0.2714
17684W        W37218   5.956  14.048   4.668  0.2136  0.2258  0.0751
17685W        W37219  17.554  16.587   1.646  0.2449 -0.0387  0.0671
17686W        W37220   8.339   8.395  14.070 -0.0070  0.0650 -0.0646
17687W        W37221   8.727  11.295  12.820 -0.0515 -0.1385  0.1889
17688W        W37222   9.984  10.049  12.603  0.0448 -0.5692 -0.0021
17689W        W37223   0.185   7.486   2.321  0.0589  0.0890  0.0843
17690W        W37224   1.997   6.701  12.555 -0.0632  0.3639 -0.0321
17691W        W37225   3.627  15.560   0.931  0.0249  0.0429 -0.2323
17692W        W37226   3.408  16.189   3.721 -0.1619  0.0671  0.3636
17693W        W37227   1.472  17.065   3.743 -0.0142 -0.1041  0.2391
17694W        W37228   9.928   9.611  13.762  0.1931  0.0071 -0.1344
17695W        W37229   4.360   4.187   2.393 -0.1214  0.1821 -0.0622
17696W        W37230  14.812  13.938  12.238 -0.1136 -0.2236  0.0771
17697W        W37231   1.257   2.532   1.361 -0.0759  0.1483  0.1783
17698W        W37232  16.043  14.557   3.218 -0.1584 -0.3863  0.1696
17699W        W37233  13.818  16.642  15.227  0.0639 -0.0668 -0.0786
17700W        W37234  12.753   9.588   2.526 -0.0349  0.2165  0.0991
17701W        W37235   7.378  17.309  12.401  0.2050  0.0393 -0.0361
17702W        W37236  12.304   4.918  15.928 -0.3322  0.0541  0.0373
17703W        W37237  11.930  15.200  14.747 -0.3787 -0.0551  0.1475
17704W        W37238   9.533   6.155   4.267 -0.1772 -0.3513  0.2116
17705W        W37239   8.617  17.615   3.424  0.0829  0.2676 -0.1654
17706W        W37240   2.154   8.651  15.059  0.0345  0.0282 -0.2437
17707W        W37241  13.515  10.366  12.935 -0.1212  0.2099 -0.0654
17708W        W37242  15.490   7.423   3.750  0.2254 -0.1945  0.0411
17709W        W37243   4.675   4.957   5.028 -0.2898 -0.0776 -0.2027
17710W        W37244  12.621  15.194   2.944  0.0129  0.0381 -0.0978
17711W        W37245  15.941   0.935   2.756 -0.0565 -0.0134 -0.3672
17712W        W37246   3.503  10.939  14.795  0.1914 -0.0059  0.0447
17713W        W37247   2.418   1.899  16.953  0.1357 -0.5539  0.1999
17714W        W37248  15.360  12.286   1.971 -0.1433  0.3047  0.3058
17715W        W37249   2.035  12.107  12.506 -0.1380 -0.0179 -0.3658
17716W        W37250   5.705  15.050   1.563 -0.0315 -0.1252 -0.0068
17717W        W37251   4.072  17.282  12.469 -0.0127 -0.0954  0.0014
17718W        W37252  11.462   3.515   2.699 -0.0034  0.2679  0.1118
17719W        W37253   6.607  13.525   2.523 -0.3212 -0.1035  0.0513
17720W        W37254   9.624  14.856  16.526 -0.0911 -0.1060  0.0007
17721W        W37255   6.613   9.246  14.492 -0.1277  0.3452 -0.0886
17722W        W37256  13.569   8.144  16.724 -0.0031  0.2133  0.0367
17723W        W37257  14.609   5.723   2.608 -0.1464 -0.3094  0.4548
17724W        W37258  12.711   0.994   0.341  0.0320 -0.1152 -0.0551
17725W        W37259   0.701   2.578   5.117  0.1200 -0.1863 -0.0401
17726W        W37260  15.913  15.213   1.901 -0.2314 -0.2067  0.1089
17727W        W37261   4.864   6.522   3.965  0.3699 -0.0555  0.1972
17728W        W37262  10.573   6.172   1.575  0.1665 -0.0071  0.0221
17729W        W37263   1.310   9.900   1.584 -0.1136 -0.0091  0.0872
17730W        W37264  10.306  14.584  13.171 -0.0372  0.1814 -0.2328
17731W        W37265   3.136   0.534   3.513 -0.1477  0.0229 -0.2006
17732W        W37266  11.149   5.618   0.144  0.0834 -0.0730  0.1394
17733W        W37267  10.604  15.890  16.506  0.1561  0.1004 -0.1495
17734W        W37268  11.087   8.739  16.112  0.1167 -0.1506 -0.1458
17735W        W37269  15.496   1.702   4.526 -0.1339  0.1508  0.0806
17736W        W37270  14.536   3.166   1.284  0.0531 -0.0392 -0.2619
17737W        W37271   4.860   4.309  13.664  0.1556 -0.1049 -0.0871
17738W        W37272  17.240  10.346  14.759 -0.0429  0.1032 -0.0272
17739W        W37273   5.997   1.898  13.281 -0.2554 -0.0048 -0.3053
17740W        W37274   6.473  11.315   4.292 -0.2797  0.1126 -0.1194
17741W        W37275  14.740  13.646  15.539  0.1276 -0.2199 -0.0367
17742W        W37276  10.936   0.785   0.359  0.0245 -0.0881  0.1164
17743W        W37277  16.801   2.472   4.997  0.0930  0.1382 -0.3036
17744W        W37278  15.670   8.365   3.977 -0.1384 -0.0185 -0.0162
17745W        W37279   0.930   6.958  15.323 -0.0909  0.1574 -0.0968
17746W        W37280   2.277  11.858  15.172 -0.1816 -0.1335  0.1366
17747W        W37281   6.242   4.962   4.119  0.1480 -0.3904 -0.0177
17748W        W37282   5.482  13.935  12.077 -0.0145  0.0104  0.1314
17749W        W37283   7.154  16.637  16.872  0.4269  0.0132  0.0293
17750W        W37284  16.841  14.861   4.115  0.0245  0.0033 -0.1507
17751W        W37285  11.682   4.410   1.174  0.0092  0.1210  0.1998
17752W        W37286  12.234  16.199   0.079 -0.1476  0.0722  0.0105
17753W        W37287  13.014   1.119  13.153 -0.3575 -0.0473  0.1273
17754W        W37288   0.590   8.994  14.080  0.1011 -0.3223 -0.1034
17755W        W37289   5.658  13.521  13.281 -0.2521  0.3599 -0.0153
17756W        W37290  15.206   6.040  16.887 -0.1826 -0.1597 -0.0955
17757W        W37291  12.190  17.613   1.093 -0.0761  0.1143  0.2060
17758W        W37292  11.234  16.975   4.456 -0.1216  0.1512  0.0275
17759W        W37293   2.655   7.871  12.988 -0.1634 -0.5834  0.0845
17760W        W37294  14.348   5.788   4.813 -0.0133 -0.1832 -0.0132
17761W        W37295   5.028   7.196   2.630  0.2556 -0.1846  0.1934
17762W        W37296  13.829  14.161  13.382 -0.0028 -0.1508 -0.0695
17763W        W37297  16.543  12.279   3.871  0.2016 -0.0517  0.0739
17764W        W37298   3.754   6.446   0.269  0.0134 -0.2228  0.1008
17765W        W37299   5.210   4.361   1.772 -0.0605 -0.2295  0.2980
17766W        W37300   9.730   7.769   0.840  0.2579 -0.0656  0.0341
17767W        W37301   8.992   6.255   3.067  0.0627  0.0495  0.0228
17768W        W37302   0.028   5.517   4.221  0.1635  0.0671 -0.1377
17769W        W37303  12.053  10.809   0.010  0.0801 -0.0098  0.1450
17770W        W37304   9.659  15.861   1.051  0.0389  0.1840 -0.0109
17771W        W37305  13.834  12.891  16.564  0.3252 -0.1025 -0.0749
17772W        W37306   4.928  13.946  15.848  0.0127 -0.0060  0.1480
17773W        W37307   7.709   8.747   3.971 -0.1384  0.0872  0.0161
17774W        W37308   5.931   2.873   3.585 -0.1311  0.2131 -0.0859
17775W        W37309  17.230   1.269  15.559  0.0596 -0.0425  0.2129
17776W        W37310   2.677   0.925  14.861 -0.0909 -0.1474 -0.0885
17777W        W37311   6.824   4.339  12.402 -0.0509  0.0994 -0.1676
17778W        W37312   6.210  12.950  13.768  0.2547 -0.0315 -0.0703
17779W        W37313   9.192  16.500  15.749 -0.0302 -0.1031  0.0233
17780W        W37314   8.086   1.829   0.212  0.1323 -0.0855  0.1570
17781W        W37315   3.848   6.143   2.585 -0.0454 -0.1730 -0.0231
17782W        W37316   8.293  14.359   3.786 -0.2745 -0.1526  0.0382
17783W        W37317  12.918   3.770  13.359  0.2237  0.0412  0.0930
17784W        W37318   8.963  14.909   0.921  0.0349  0.2802  0.0135
17785W        W37319  13.677  15.260  16.940  0.2481 -0.0612 -0.1894
17786W        W37320   5.487   9.904   1.310 -0.0015  0.1508 -0.1747
17787W        W37321  13.677  13.669  15.496  0.2787 -0.3910  0.0105
17788W        W37322  15.924   2.033   4.637 -0.1043  0.3047  0.3192
17789W        W37323  12.707  12.947   4.615  0.1301  0.0955 -0.0062
17790W        W37324  16.941  15.601   2.965  0.1367 -0.0807  0.2964
17791W        W37325  15.888  15.913  14.761  0.0759  0.1276  0.3616
17792W        W37326   9.257  11.283  14.261 -0.1941 -0.1921 -0.3278
17793W        W37327   2.437  13.325   2.149  0.1131 -0.1778 -0.1410
17794W        W37328  13.160   3.975   0.582 -0.1174  0.2363 -0.1579
17795W        W37329   3.612   1.828  12.827 -0.1317  0.0016  0.0883
17796W        W37330   1.905   9.282   3.763 -0.1381  0.3145  0.1265
17797W        W37331  15.041  16.336  12.771 -0.0541 -0.0054  0.0500
17798W        W37332  11.988   3.280  13.191  0.1938 -0.3084  0.1928
17799W        W37333  11.426   2.331   0.005  0.1709 -0.1163 -0.2947
17800W        W37334   2.274   1.501  16.622 -0.0083  0.0194  0.0289
17801W        W37335  11.805  12.914  16.881 -0.1854  0.0421  0.1509
17802W        W37336  12.638   8.431  13.157  0.2770  0.2459 -0.1368
17803W        W37337   4.458  13.051  16.682 -0.0398  0.2080  0.0119
17804W        W37338   1.272  11.686   4.524  0.1098  0.1853  0.1674
17805W        W37339   4.721   3.660  14.810  0.1684 -0.2630  0.1576
17806W        W37340  13.998  12.268  14.966 -0.1085  0.0108 -0.0664
17807W        W37341  17.430  16.897   0.719  0.2109  0.0285 -0.0214
17808W        W37342   6.178   7.453  13.862 -0.0690 -0.0186  0.0916
17809W        W37343   2.012   5.736  16.259 -0.2837  0.1195  0.1259
17810W        W37344   6.568  13.325  13.636 -0.0402  0.0349 -0.0487
17811W        W37345   8.485  16.934  13.642  0.0980  0.0529  0.0750
17812W        W37346   7.549  14.218   0.686 -0.0952  0.0010 -0.3333
17813W        W37347   3.130  11.154  16.871  0.0123 -0.2983 -0.1847
17814W        W37348  13.109  14.448  15.494 -0.3473  0.1937  0.2251
17815W        W37349   2.586   5.025   0.789  0.0156 -0.0617  0.2196
17816W        W37350  10.189   7.364  14.472 -0.2786  0.2474 -0.0466
17817W        W37351   1.473   8.001   1.477  0.0844 -0.0601 -0.0533
17818W        W37352   4.481   2.834  16.633  0.1009 -0.1346  0.2606
17819W        W37353  12.170   4.215   4.420  0.1751 -0.3752  0.0348
17820W        W37354  14.368  15.844   2.427  0.1215 -0.2920  0.0339
17821W        W37355  13.427   7.829   3.606  0.0974  0.2098 -0.2675
17822W        W37356  14.890   8.162  13.940 -0.1866 -0.2848 -0.0342
17823W        W37357  10.826  14.742   3.864  0.0792 -0.0549 -0.0824
17824W        W37358   3.594   3.837  13.647 -0.0026 -0.1350 -0.1167
17825W        W37359   3.282   7.002   2.272  0.1037  0.0247 -0.1492
17826W        W37360   7.421   3.413   3.042 -0.0144  0.1044  0.0781
17827W        W37361  16.003   0.842   1.403 -0.3623  0.1311  0.0519
17828W        W37362   0.547   7.213   3.047  0.3914  0.2163  0.1066
17829W        W37363   1.717  12.914  16.286  0.0832  0.2750 -0.0386
17830W        W37364   6.415   0.275   0.278  0.1428 -0.0474 -0.0575
17831W        W37365  10.756  12.223   0.543  0.0058 -0.3286  0.3383
17832W        W37366   6.493  16.567  15.685  0.0573  0.3568  0.2099
17833W        W37367  15.760  14.281  13.282  0.0938  0.2521 -0.0092
17834W        W37368   9.643  16.308   1.405  0.1127 -0.0920 -0.1144
17835W        W37369  13.148  16.505   2.223 -0.0279  0.3614 -0.1477
17836W        W37370  13.485  12.422   0.306  0.2397 -0.0541  0.1287
17837W        W37371   4.538  16.425  12.664  0.0669 -0.2054 -0.1406
17838W        W37372   3.254  14.205  12.916 -0.0496 -0.1565  0.0606
17839W        W37373  13.005  12.533   4.570  0.1467 -0.0420 -0.0858
17840W        W37374   2.348  15.141  12.948 -0.0951  0.1308 -0.1905
17841W        W37375  16.016   3.658   4.009  0.1336 -0.0442  0.1063
17842W        W37376   8.816  12.282  12.876  0.0654 -0.3237  0.1521
17843W        W37377   1.344   1.948   2.655 -0.1703 -0.0116  0.3635
17844W        W37378   2.344  15.669   2.378 -0.0560  0.2203 -0.1116
17845W        W37379   2.921  11.161  12.878  0.1290  0.1883 -0.2056
17846W        W37380  12.370   8.654  14.102 -0.0030 -0.1909 -0.1385
17847W        W37381   1.798  11.112  12.192 -0.1451  0.1573 -0.0764
17848W        W37382  14.360   0.639  13.556 -0.0131 -0.1375 -0.1016
17849W        W37383  10.076  13.565   4.196 -0.1672  0.0776  0.3373
17850W        W37384  13.403   0.543   2.251 -0.0231  0.1524 -0.1706
17851W        W37385  13.155   3.709  16.801  0.0407  0.1240  0.2763
17852W        W37386  13.472   5.486   1.373 -0.1987  0.1294 -0.1175
17853W        W37387  11.646   1.270   1.565  0.1011  0.1581  0.1119
17854W        W37388  12.874   0.671   2.216  0.0290 -0.0340 -0.3347
17855W        W37389   0.628   8.499  13.964  0.0036 -0.1703 -0.2158
17856W        W37390  16.404  10.157   1.031 -0.2801  0.0033  0.1492
17857W        W37391   1.682  13.580   4.110 -0.2094 -0.0247  0.0562
17858W        W37392   8.431  12.440  15.994 -0.1419 -0.1686 -0.0324
17859W        W37393   7.760   9.016  12.451 -0.3182  0.0651  0.2659
17860W        W37394   9.156  12.817   2.381 -0.2338  0.2912  0.1828
17861W        W37395  12.592  13.028  15.711 -0.0778 -0.0968 -0.1191
17862W        W37396  13.373   0.075   2.456 -0.1004 -0.1508 -0.0443
17863W        W37397  17.519   9.021   0.846  0.0668 -0.1404 -0.1564
17864W        W37398   1.994   0.690  15.338 -0.1861  0.1421 -0.0864
17865W        W37399  15.905   9.766  11.243  0.0520  0.1936 -0.2341
17866W        W37400  10.206   7.698   1.177  0.1781 -0.2681 -0.0737
17867W        W37401  10.086  11.605  16.650 -0.0684 -0.1944  0.0821
17868W        W37402   0.148   2.870  13.941 -0.1962 -0.0144  0.1599
17869W        W37403  17.404   2.239  14.692  0.0816  0.0641 -0.1488
17870W        W37404  11.333   2.252   3.680 -0.2249  0.0699 -0.0036
17871W        W37405   5.497  15.477  12.598  0.0743  0.1949 -0.0954
17872W        W37406  10.328  16.960   4.536 -0.3056 -0.0428  0.0475
17873W        W37407  13.887   3.234   3.907 -0.0020 -0.3090  0.0253
17874W        W37408  13.624  10.052   4.342  0.0496  0.1536 -0.0606
17875W        W37409   5.035   8.817   4.669  0.0098  0.5152  0.1418
17876W        W37410   3.156  12.722   3.944  0.2685 -0.0670 -0.0107
17877W        W37411  11.450  16.654   5.171  0.0270  0.2949  0.0974
17878W        W37412   6.499  13.604  13.230  0.1780 -0.0392  0.0137
17879W        W37413   7.605  16.526  13.681 -0.2116  0.0505 -0.0388
17880W        W37414   0.258   4.074   5.219  0.0034 -0.0412 -0.0612
17881W        W37415  13.766  10.518   4.488  0.3641 -0.4496  0.1544
17882W        W37416  15.855  15.725  13.356 -0.1319 -0.1981 -0.2190
17883W        W37417  15.320  14.102  13.593  0.1498 -0.1885 -0.0456
17884W        W37418   3.220   5.206  12.403 -0.1572 -0.1789 -0.1077
17885W        W37419  15.473   9.564   4.268  0.0146 -0.1539  0.2107
17886W        W37420  16.350   5.189  14.007  0.1328  0.1664  0.2271
17887W        W37421   8.905   6.842   1.801 -0.1329 -0.1403  0.0300
17888W        W37422  17.656   2.355   4.747 -0.2100  0.1048  0.4891
17889W        W37423  12.783   6.850   4.713  0.0344  0.2352  0.0158
17890W        W37424  10.433  13.185   4.928 -0.1249  0.1505  0.2192
17891W        W37425   2.842   6.144  16.229  0.0459  0.2436  0.3930
17892W        W37426  12.066   1.155   2.057  0.2513 -0.2000 -0.1897
17893W        W37427   3.668  14.080   1.156 -0.2478 -0.1462  0.2602
17894W        W37428  17.316   2.821   1.176 -0.2895  0.0946 -0.2376
17895W        W37429   3.983  13.977  12.213  0.1851  0.1260 -0.2268
17896W        W37430   2.724  12.322   1.226 -0.0054  0.0253 -0.0195
17897W        W37431   7.267   8.980  15.424 -0.0809 -0.3304 -0.0287
17898W        W37432   3.494  15.212   2.422  0.1986 -0.2137  0.1742
17899W        W37433  14.701   7.149  16.653  0.0531 -0.3909 -0.0134
17900W        W37434  14.549   4.540  12.640 -0.0698  0.0729 -0.1119
17901W        W37435   7.671  12.447   1.519  0.2035  0.1537  0.1738
17902W        W37436   5.337   0.695   4.249 -0.1169  0.0066 -0.2454
17903W        W37437  17.488   4.393  13.745 -0.0170  0.4549 -0.0981
17904W        W37438   0.845  11.943  16.109 -0.0892 -0.1995 -0.0151
17905W        W37439   4.099   0.571   2.017  0.0142 -0.1647  0.0220
17906W        W37440  12.091   7.038  13.910  0.3688  0.0049  0.0931
17907W        W37441   0.748  16.287   3.769 -0.0556  0.0277  0.1121
17908W        W37442   6.720   6.720   3.480 -0.2715 -0.2346  0.2831
17909W        W37443  11.536   1.068  17.028  0.1369 -0.1948  0.1910
17910W        W37444   0.790   4.022   0.492  0.0739  0.0005  0.2784
17911W        W37445  13.199  12.903   0.672 -0.0992  0.0359 -0.3500
17912W        W37446   1.114  15.229   0.448  0.0077 -0.0157  0.1555
17913W        W37447   5.437   9.607   0.918  0.1208  0.1220 -0.2514
17914W        W37448  17.148  11.018  13.161 -0.1941  0.1332 -0.0759
17915W        W37449   3.419   9.446  12.499 -0.3316 -0.2354 -0.2357
17916W        W37450  14.094  12.938  13.911 -0.0312  0.6106  0.0428
17917W        W37451   7.768  14.814   3.019  0.2256  0.1320 -0.0495
17918W        W37452  11.524  12.631   2.381  0.3644 -0.0927 -0.0492
17919W        W37453   5.883  16.712  12.487 -0.0749  0.0354 -0.0098
17920W        W37454  11.730   1.514  13.605 -0.2010 -0.0525 -0.0423
17921W        W37455   6.947   4.895  16.516  0.0865 -0.2599 -0.1457
17922W        W37456   6.287   2.791  13.873  0.0636  0.2428 -0.1190
17923W        W37457  17.157  10.190   0.542  0.1425  0.2681 -0.1668
17924W        W37458  17.150  12.863  14.393 -0.2878 -0.2048  0.2617
17925W        W37459  16.472   9.112  13.222 -0.2491 -0.1434 -0.0078
17926W        W37460   0.067   6.852   0.761 -0.1651 -0.0138  0.1956
17927W        W37461  11.391  10.552  15.005 -0.1239 -0.0994  0.2037
17928W        W37462   7.422   0.281   0.934 -0.0080  0.0429  0.0213
17929W        W37463  16.632   1.913   0.967  0.1869 -0.1308  0.1516
17930W        W37464   3.629  12.853   2.624  0.1085 -0.1086 -0.1326
17931W        W37465  12.901  16.856  12.502  0.2479  0.2595  0.1888
17932W        W37466  11.488  15.741  15.439  0.2349 -0.0115 -0.1234
17933W        W37467   4.655   0.060  15.317  0.3514 -0.0256  0.0221
17934W        W37468  15.867   7.986  13.174  0.0137 -0.1143  0.0606
17935W        W37469  10.184   5.619  15.543  0.1235  0.0808  0.2814
17936W        W37470  17.638   6.781  14.288  0.0427  0.2360  0.0445
17937W        W37471   3.227  17.552   3.251  0.0648 -0.0113 -0.2907
17938W        W37472  17.610   7.978   0.039  0.0660 -0.1491  0.0733
17939W        W37473  15.179   5.468   1.232  0.4113  0.0679 -0.4244
17940W        W37474  16.377   0.549  13.836  0.1094 -0.0310  0.0255
17941W        W37475   0.788  14.469   3.234  0.1162  0.3166 -0.0147
17942W        W37476  14.474  12.152  14.349  0.2326  0.0753 -0.1384
17943W        W37477  11.650   7.284   0.995  0.0433  0.1663  0.1517
17944W        W37478   1.830   4.880   4.959  0.3707 -0.0636 -0.3303
17945W        W37479   9.798  13.426  13.358  0.1252  0.0207  0.1602
17946W        W37480   3.289   9.878  15.027  0.0540 -0.0605 -0.0372
17947W        W37481   5.897  15.697  14.824 -0.0266 -0.2483  0.1280
17948W        W37482  12.128   3.987   3.911 -0.1372  0.1157  0.1605
17949W        W37483   1.596   8.149  12.025  0.0466 -0.1150  0.1935
17950W        W37484  16.764  12.967  16.253 -0.1310  0.0241 -0.1050
17951W        W37485  10.000   9.142  12.164  0.1359  0.2091 -0.0261
17952W        W37486   3.698   9.868   3.970  0.0970 -0.2972  0.0136
17953W        W37487  15.980   6.536  17.022 -0.0162  0.2609 -0.1996
17954W        W37488   3.121  15.961   1.998  0.2194  0.1726  0.0800
17955W        W37489   7.737   3.121   0.311 -0.1977  0.0260  0.2308
17956W        W37490   5.713   2.709  12.599 -0.0670  0.0642 -0.1538
17957W        W37491   9.146  14.286  13.333 -0.2177 -0.1699  0.0423
17958W        W37492   7.993   6.554   1.011 -0.0915  0.1502 -0.1831
17959W        W37493  14.684   2.464   3.438 -0.2082  0.0253  0.0054
17960W        W37494   9.816   9.586   2.525 -0.1353 -0.1615  0.1688
17961W        W37495  12.237   3.369  16.456 -0.0036  0.3609 -0.0662
17962W        W37496   8.636   2.681  13.067  0.2308 -0.1697  0.0881
17963W        W37497   5.170   6.245   1.049  0.1195 -0.0841  0.5682
17964W        W37498  15.820   2.655  16.550  0.3024 -0.0298 -0.2476
17965W        W37499   8.428  13.755   1.225  0.2237  0.0672  0.0610
17966W        W37500  12.419  12.130   2.237  0.1311 -0.4497  0.0437
17967W        W37501  17.145   5.285  14.537 -0.0149  0.0756  0.0028
17968W        W37502  12.525  16.946   1.870  0.0762 -0.1308 -0.0408
17969W        W37503   7.907  15.143   4.129 -0.1437 -0.1200  0.0954
17970W        W37504  11.277   5.134   1.248  0.1569  0.0463  0.0838
17971W        W37505   5.814  15.483  15.317 -0.0032  0.0494  0.1837
17972W        W37506  11.306   7.242  12.462 -0.0109  0.1183 -0.1264
17973W        W37507  16.418   1.371   1.157  0.2069  0.0772  0.1140
17974W        W37508   9.827  12.481   3.459 -0.0471 -0.1535  0.0075
17975W        W37509  11.257  16.201  15.398  0.0863  0.0846 -0.1201
17976W        W37510   9.725  14.192  14.601 -0.1438  0.2281  0.1000
17977W        W37511  17.259   7.435  12.896  0.3614 -0.2650  0.2575
17978W        W37512   9.422   9.901   2.681  0.1366 -0.3071 -0.0984
17979W        W37513  12.203   0.728  16.869 -0.0463 -0.2429 -0.1335
17980W        W37514  16.182   8.196   4.297 -0.1877  0.3519 -0.0586
17981W        W37515   7.064  10.491   1.368  0.2704  0.1219  0.0548
17982W        W37516   5.674  11.102  12.544 -0.0021 -0.1367  0.0183
17983W        W37517  10.277  17.587  14.384  0.0188 -0.2481  0.1332
17984W        W37518   4.809  15.213  12.068 -0.1160  0.0302 -0.6161
17985W        W37519   5.039   2.504   3.803 -0.0307 -0.0600 -0.1603
17986W        W37520   6.774  10.722   2.436  0.1276 -0.0253 -0.0462
17987W        W37521   1.194  10.565   3.780 -0.1648 -0.0960 -0.0536
17988W        W37522   1.930   9.595  13.344  0.2613  0.0285 -0.0508
17989W        W37523   2.296  17.051   4.196 -0.0857  0.2984  0.0459
17990W        W37524   5.657   1.437   4.895  0.2186 -0.1117  0.1334
17991W        W37525   1.324   2.999  15.809 -0.4124 -0.3534  0.0866
17992W        W37526  13.178  10.409   3.486 -0.0850 -0.0813  0.0857
17993W        W37527   9.923  11.113   6.291  0.0758 -0.2583  0.0547
17994W        W37528  12.461  13.775   1.721  0.2215  0.0100  0.2859
17995W        W37529  13.165   7.395   0.735  0.0410 -0.0080 -0.3795
17996W        W37530  11.456   4.376   2.590  0.2294 -0.2056  0.0045
17997W        W37531   2.796  16.131   4.495 -0.2747  0.0897  0.1790
17998W        W37532   4.981   1.489  12.493 -0.1000  0.1619  0.0450
17999W        W37533  15.368  12.992   0.566  0.1538  0.2985  0.2654
18000W        W37534   6.446  11.685  13.027 -0.2126 -0.2544  0.1122
18001W        W37535  13.856   6.073  16.829  0.1720  0.0407 -0.1431
18002W        W37536   2.428   7.231   4.892  0.0554  0.1486  0.0574
18003W        W37537  15.616  14.828   2.117  0.0599  0.0870 -0.2715
18004W        W37538   8.203  16.574   3.853 -0.0357 -0.1539  0.3346
18005W        W37539  15.132   7.092  16.354  0.1177 -0.2916 -0.1489
18006W        W37540  13.950   0.388   1.315 -0.1480 -0.1176  0.1594
18007W        W37541  15.618  13.404   4.989 -0.0719  0.0167 -0.3032
18008W        W37542   4.068   3.430  17.021  0.4039 -0.3234 -0.1189
18009W        W37543  16.601  15.364  15.284  0.0705  0.2889 -0.0385
18010W        W37544   5.584   2.085   2.210 -0.1515 -0.0046  0.0353
18011W        W37545  10.860   7.555   3.235 -0.1781 -0.1561  0.0014
18012W        W37546   2.239   7.223  15.188  0.2259 -0.0477  0.0324
18013W        W37547  15.139   0.144   0.275 -0.3757 -0.0205 -0.1578
18014W        W37548  12.635   7.570  16.392  0.1491 -0.0594  0.1277
18015W        W37549   9.949   2.856   1.899 -0.0547 -0.0357  0.1293
18016W        W37550   4.524  11.286   2.920 -0.2111  0.2913  0.1659
18017W        W37551  13.003   0.377   2.606 -0.1316  0.0228  0.1200
18018W        W37552  17.203   7.854   0.811 -0.2639 -0.3958 -0.1193
18019W        W37553  14.291   5.448   2.812  0.2247  0.1409 -0.0024
18020W        W37554   3.580   0.209   3.204  0.1359  0.0792 -0.1293
18021W        W37555  15.744   1.645  13.036  0.1270 -0.1623 -0.1018
18022W        W37556   8.253  14.975   0.352 -0.1248 -0.0869 -0.0420
18023W        W37557   5.928   6.083  12.665  0.1354  0.0624 -0.0545
18024W        W37558  11.114  13.814  13.936 -0.4031  0.0116  0.0730
18025W        W37559   2.542   8.299   3.280 -0.1730 -0.0603 -0.0077
18026W        W37560  14.741   1.308  12.745 -0.1504  0.2698  0.2640
18027W        W37561   3.207   0.419   0.892 -0.0366 -0.3495 -0.1491
18028W        W37562   2.801  15.037  14.200  0.0567  0.1452 -0.1838
18029W        W37563   5.382   6.614   0.304 -0.1573 -0.2521 -0.4211
18030W        W37564  10.972  17.554   3.619  0.2324 -0.0027 -0.1706
18031W        W37565  16.575   2.443   4.108  0.0029 -0.3598 -0.3635
18032W        W37566  14.814  15.143   0.706 -0.1218 -0.0192  0.0821
18033W        W37567   9.337   9.391  14.720  0.2087  0.1989 -0.0073
18034W        W37568  16.183   6.150  16.097 -0.1445 -0.0141  0.0068
18035W        W37569   5.374   1.745   3.291  0.0823  0.2776  0.0827
18036W        W37570   4.381   1.396   2.994 -0.3711  0.2070  0.1650
18037W        W37571   3.115  10.940   1.799  0.0286  0.0685 -0.0471
18038W        W37572  16.344   3.471   2.776 -0.0132  0.0196  0.1108
18039W        W37573   0.181  12.838   2.326  0.1084 -0.0755  0.2682
18040W        W37574   1.212   8.496   1.864 -0.0251  0.0029  0.2468
18041W        W37575   9.465   1.214  12.117 -0.0502 -0.2206  0.2264
18042W        W37576   2.872   6.725   3.982  0.3745  0.0436 -0.0752
18043W        W37577  10.274  11.454   4.825  0.2057 -0.2159  0.0326
18044W        W37578   7.921  14.835  16.934  0.1330  0.2320 -0.0769
18045W        W37579  12.820   4.865   4.171 -0.1450 -0.4054 -0.2395
18046W        W37580   4.963  15.749   4.812  0.2919 -0.2829 -0.0171
18047W        W37581   0.979  10.473   2.383  0.1034 -0.0786 -0.0588
18048W        W37582   3.935   8.575  14.195  0.1302 -0.4116  0.2133
18049W        W37583   1.281  16.672   4.793  0.1705 -0.1656 -0.0777
18050W        W37584  13.358  11.494   1.219  0.1570 -0.1938 -0.1045
18051W        W37585   5.186  13.654   3.522  0.1582 -0.0728  0.3299
18052W        W37586   7.201  17.383   5.149 -0.0104  0.1033 -0.0359
18053W        W37587  14.548   0.862  14.045  0.2197  0.1802  0.4456
18054W        W37588   7.950   1.025  14.866 -0.2426 -0.0292 -0.0077
18055W        W37589  15.496   3.238  15.394  0.2248  0.1957  0.1926
18056W        W37590   2.641   2.327   2.236  0.0544  0.1022 -0.0058
18057W        W37591   6.739   4.061  13.389 -0.0482 -0.1881  0.0728
18058W        W37592   9.465  10.164  13.497 -0.0984 -0.2564 -0.0670
18059W        W37593   8.550   4.168   0.492  0.1712 -0.3117 -0.1130
18060W        W37594   0.002  16.768   5.445 -0.1097 -0.0824 -0.1275
18061W        W37595   7.301  16.356   3.394  0.1601  0.4152 -0.1747
18062W        W37596  15.649   3.792  12.851  0.1740 -0.0903 -0.1622
18063W        W37597   3.268  15.425  15.871  0.1810 -0.3253  0.0943
18064W        W37598   3.528   7.084  13.379  0.3411  0.1867 -0.0657
18065W        W37599   2.848   2.073  13.356  0.3184  0.1438  0.2636
18066W        W37600  14.263  16.846  16.855 -0.0289 -0.0366 -0.0413
18067W        W37601  12.513   2.215  12.628  0.4945  0.0277  0.1199
18068W        W37602   9.874   6.727  15.635  0.0157  0.4148  0.0708
18069W        W37603  10.497   6.166   0.608  0.1883 -0.1244  0.3538
18070W        W37604   9.408  10.839   3.578  0.1240  0.0944 -0.1192
18071W        W37605  16.421  14.776   5.345 -0.1279  0.0146 -0.1946
18072W        W37606   7.868  17.013  16.548  0.0468 -0.0599  0.2721
18073W        W37607  13.331  16.775   0.818  0.0344  0.0438  0.2239
18074W        W37608   1.762   0.263  16.195  0.3193 -0.0464  0.2280
18075W        W37609  14.609   5.779   1.704  0.1774  0.0614  0.0615
18076W        W37610   8.185   9.193  15.609 -0.0623 -0.2654 -0.0618
18077W        W37611   7.412   3.805  15.545 -0.2214  0.1523  0.2617
18078W        W37612   7.108   4.650  16.104  0.0781 -0.1389  0.1061
18079W        W37613   0.193   7.665  13.601  0.2528  0.2446 -0.0284
18080W        W37614  16.860   7.363  14.259 -0.2420 -0.1106 -0.1012
18081W        W37615  12.429  16.232  12.400 -0.0982 -0.1569 -0.1383
18082W        W37616  11.835  13.227  13.021  0.2833  0.1453  0.1474
18083W        W37617   7.260   8.191  16.031 -0.1846  0.1555  0.0093
18084W        W37618  11.775  12.927  12.097 -0.1179  0.1989  0.1619
18085W        W37619  10.312   4.494   3.096  0.0916 -0.1661  0.1698
18086W        W37620  12.565   7.353  12.188  0.1135  0.1181  0.1257
18087W        W37621  10.899   5.933   2.435  0.1853 -0.3713  0.1262
18088W        W37622   4.149  13.327   3.118  0.0486  0.2942  0.0767
18089W        W37623   4.757   1.759   1.315 -0.0689  0.2275 -0.0510
18090W        W37624  14.850   6.050  13.020  0.0682 -0.0937 -0.0863
18091W        W37625   1.143   8.097   3.872 -0.0073 -0.3541 -0.0775
18092W        W37626  13.032   3.473   3.739  0.0218 -0.0746  0.1382
18093W        W37627  12.716   3.326  16.618 -0.0395  0.0105 -0.0497
18094W        W37628   4.752   2.467   2.913 -0.0298 -0.0140  0.0795
18095W        W37629  11.388   5.564   0.984  0.1580 -0.1608  0.1493
18096W        W37630   8.972   1.893   0.086  0.0974 -0.0039  0.1778
18097W        W37631   7.712  16.789   0.445 -0.2282  0.0589  0.1724
18098W        W37632  11.512  15.588   0.356  0.0564 -0.1100  0.1335
18099W        W37633   1.990   7.539  16.012 -0.0807  0.5137 -0.1578
18100W        W37634  11.763   5.990   0.928  0.3202  0.3884 -0.0537
18101W        W37635   0.720   4.814  16.914  0.0340 -0.0421  0.0274
18102W        W37636  16.185   9.697   4.002  0.1245 -0.1871 -0.1096
18103W        W37637   2.371   2.287   4.509 -0.1543  0.1419 -0.1896
18104W        W37638  12.744  16.737  14.827  0.1213 -0.1651  0.0643
18105W        W37639   0.506   3.268  14.070  0.0035  0.3720  0.1303
18106W        W37640   3.642  10.610   4.616  0.1566 -0.1398 -0.0429
18107W        W37641   5.550  16.526  14.391 -0.0674  0.0014 -0.0102
18108W        W37642   7.126   5.608  16.579 -0.0262 -0.1389  0.1762
18109W        W37643  10.829   2.731   3.394 -0.1375 -0.2440  0.0628
18110W        W37644  13.556   0.181  14.727 -0.0579 -0.0175 -0.4461
18111W        W37645  14.595   4.872  14.578 -0.1090 -0.1072  0.0973
18112W        W37646  14.982  16.499   0.468  0.0949  0.1235 -0.1279
18113W        W37647   2.305   3.506   4.684 -0.4136  0.0895  0.0686
18114W        W37648   9.228   4.272  15.557  0.0413 -0.0010 -0.4465
18115W        W37649   8.466  11.366   5.297  0.0413  0.1000  0.2337
18116W        W37650  12.755   5.733  15.771  0.0845 -0.2683 -0.1431
18117W        W37651  14.600  11.279   4.615 -0.2594 -0.2045 -0.2841
18118W        W37652  11.523  11.299   5.109  0.0832 -0.3397 -0.1413
18119W        W37653  15.647   1.274  14.325  0.0104 -0.0915 -0.0550
18120W        W37654  17.590   2.940   3.743 -0.0400 -0.1812 -0.0087
18121W        W37655   0.133   9.109   1.296 -0.0611 -0.0173  0.2067
18122W        W37656  15.370   5.165  12.183  0.0367  0.0194  0.0404
18123W        W37657   6.573  13.404   4.709  0.4152 -0.1884  0.0406
18124W        W37658   8.862  10.672  15.970  0.1649  0.0563 -0.0597
18125W        W37659   4.458   7.114  14.656 -0.3235  0.0761  0.0475
18126W        W37660  12.228  10.785   1.100  0.2171 -0.1441 -0.1702
18127W        W37661  11.239   4.370  12.814 -0.0678 -0.2201  0.3098
18128W        W37662   5.950   5.975   5.032 -0.2494 -0.2770  0.0577
18129W        W37663   3.584  13.607   3.551 -0.0233  0.1713 -0.0623
18130W        W37664  13.114   3.114   1.281 -0.0452  0.0132  0.0271
18131W        W37665   0.424   7.700  12.767  0.1594  0.2299  0.1679
18132W        W37666   5.494   3.098   3.435 -0.1560 -0.2408 -0.3066
18133W        W37667  14.676  11.622  15.927  0.1091 -0.0381  0.2105
18134W        W37668   4.056   2.482  12.869 -0.0867 -0.0002  0.0839
18135W        W37669  15.844   2.062  14.453 -0.0605 -0.1255 -0.3209
18136W        W37670   8.722   4.686  12.194  0.2034  0.1058 -0.1293
18137W        W37671  13.629   3.548  12.315  0.2345  0.2544  0.0338
18138W        W37672   8.559   2.879   1.060 -0.0830 -0.4500 -0.0417
18139W        W37673  16.614  14.581  15.373  0.2237 -0.1180 -0.1433
18140W        W37674   6.855  17.194   3.926  0.0914  0.1742 -0.1114
18141W        W37675   5.393  15.401   1.990  0.0824  0.0183 -0.1268
18142W        W37676   2.625   3.777  12.495  0.1017  0.4181  0.3782
18143W        W37677  12.276   9.337   1.658 -0.1467 -0.0160 -0.0996
18144W        W37678  10.632   9.723  13.204 -0.1070  0.0476 -0.1510
18145W        W37679   8.770  17.637  15.328 -0.0201 -0.1221  0.1341
18146W        W37680   6.369   5.909  12.068 -0.2028  0.2656  0.2439
18147W        W37681  10.685   2.251   2.554  0.2100  0.1510  0.0311
18148W        W37682   8.080  12.581   1.778 -0.2659  0.2651 -0.0642
18149W        W37683  11.597   2.318   2.262 -0.0118  0.0123  0.1896
18150W        W37684   4.232   3.816   0.231 -0.0883  0.0200 -0.1300
18151W        W37685   6.255  13.667  14.903 -0.1804  0.1347 -0.2916
18152W        W37686   6.154   4.291  16.023  0.0188 -0.3772  0.0093
18153W        W37687   6.019   9.920  14.479  0.2045  0.1679 -0.3452
18154W        W37688  11.625   6.616  14.453  0.1201 -0.1094 -0.1769
18155W        W37689   1.745   5.845   0.135  0.0494 -0.0437  0.1711
18156W        W37690   8.406  13.567   3.820 -0.0227 -0.1053  0.1947
18157W        W37691  12.151   0.700   1.490 -0.2242  0.1186  0.0199
18158W        W37692  14.990  15.146   2.997  0.0532  0.0513 -0.0035
18159W        W37693   1.541  10.797  11.804  0.0356 -0.3131 -0.2186
18160W        W37694   9.183  11.987   1.007  0.1164  0.0104 -0.1204
18161W        W37695  15.243   2.428   4.004 -0.2579 -0.2134 -0.0908
18162W        W37696   4.600   2.915   0.757  0.0671  0.0692 -0.1625
18163W        W37697   6.298  16.371   3.431  0.0352  0.0604  0.0781
18164W        W37698   5.006   5.478   5.033  0.0534  0.1376  0.2164
18165W        W37699  17.593  12.114  12.115 -0.0868 -0.2502 -0.1657
18166W        W37700   5.980  15.693   0.007  0.0990 -0.1688 -0.3376
18167W        W37701  11.428   0.236   0.436  0.3124  0.0713  0.0902
18168W        W37702   9.429  13.492   0.698  0.0314 -0.2821  0.2474
18169W        W37703   9.553   3.820  16.147 -0.1942 -0.1669  0.1947
18170W        W37704  12.261   0.252  16.885 -0.1905  0.0595 -0.0862
18171W        W37705   4.586   5.317   2.682 -0.2781  0.1408  0.2129
18172W        W37706  16.596  10.568   3.293  0.4673  0.0259  0.3302
18173W        W37707   6.512   1.633   1.024  0.1427 -0.0791 -0.1453
18174W        W37708   1.864  11.958   3.175 -0.2354  0.1314 -0.1481
18175W        W37709  14.671  10.587   3.879 -0.0923 -0.1136 -0.0905
18176W        W37710  11.871   7.489  13.802  0.0610  0.2188 -0.0818
18177W        W37711  12.984   8.098   4.045 -0.0545 -0.2021 -0.2241
18178W        W37712   5.999  11.944   2.246 -0.0276  0.0309 -0.2567
18179W        W37713   6.768  11.414   4.844 -0.2178  0.1579 -0.0190
18180W        W37714  12.515   5.393  16.232 -0.1657 -0.0088  0.0114
18181W        W37715   4.246   3.724   3.682  0.0011 -0.0788 -0.2789
18182W        W37716   0.696  15.495   1.691 -0.0448  0.0025 -0.0586
18183W        W37717   1.838   7.681   1.756  0.1676 -0.4606  0.0939
18184W        W37718  16.016  13.006   4.151  0.0553  0.3388 -0.0162
18185W        W37719  16.309  13.486   0.131  0.0221  0.1712  0.1044
18186W        W37720   6.301  12.303  12.399 -0.0139  0.2141 -0.1347
18187W        W37721  17.303   5.770   1.124 -0.1299 -0.0897  0.2774
18188W        W37722   1.432   9.761   2.043 -0.0269 -0.0298 -0.0102
18189W        W37723   0.565  17.239   3.214  0.1439  0.1703 -0.1703
18190W        W37724  11.013   9.824   1.385 -0.1893 -0.3500  0.2912
18191W        W37725  16.201   7.242   1.115  0.0123  0.0211  0.1169
18192W        W37726   9.405  16.742   0.742  0.1798 -0.0439  0.1186
18193W        W37727   8.815   8.674   0.085 -0.2839 -0.1413 -0.3219
18194W        W37728   4.213  12.336  14.560 -0.1528 -0.0054 -0.0816
18195W        W37729   7.259   2.520  15.349  0.0077 -0.1619 -0.1622
18196W        W37730   2.279  16.167   0.227 -0.1805  0.1889 -0.1465
18197W        W37731   3.452  15.967   3.223  0.1874 -0.1938  0.0651
18198W        W37732   8.395   5.635  15.273  0.2034 -0.0124  0.0428
18199W        W37733  14.019   4.295   4.926 -0.0179  0.1416 -0.0282
18200W        W37734  11.696   2.811  13.983 -0.0128 -0.1384  0.0602
18201W        W37735   2.247  10.381   4.763 -0.1763  0.0492 -0.2853
18202W        W37736  16.261  12.715  16.400  0.2220  0.0130  0.1199
18203W        W37737   6.583  15.473   4.908  0.0544 -0.0282  0.0091
18204W        W37738  15.139   0.611  12.959 -0.3497  0.1015 -0.0911
18205W        W37739   2.742   6.748  15.378 -0.0671  0.0978 -0.2586
18206W        W37740   4.738   1.153   1.154  0.0728 -0.2556 -0.0477
18207W        W37741   3.601   3.472   5.088 -0.1121 -0.2575  0.1156
18208W        W37742   2.521  14.262  16.762 -0.0689  0.1348 -0.0839
18209W        W37743  15.293  14.451  16.086 -0.0209  0.0203  0.2036
18210W        W37744  14.289   7.582   3.477 -0.2441 -0.0564  0.1845
18211W        W37745  14.168  14.235  14.944 -0.2780 -0.3421 -0.2122
18212W        W37746  15.317   9.229   4.745  0.3630  0.0841  0.0240
18213W        W37747   0.232  13.287   4.145 -0.2083  0.1732  0.0699
18214W        W37748   0.151  10.363  15.039 -0.2333 -0.2364  0.2914
18215W        W37749  10.612  12.021   3.866  0.3525  0.1733  0.0996
18216W        W37750  13.267   3.366  14.078  0.0317  0.1175 -0.2630
18217W        W37751   4.291  11.934  12.195  0.1306  0.2151 -0.3026
18218W        W37752  12.750   1.342  15.665  0.2015 -0.1901 -0.0338
18219W        W37753   9.856  11.831  13.571  0.1396  0.1747 -0.0573
18220W        W37754  12.758   3.017   4.550 -0.0675 -0.1103 -0.1497
18221W        W37755  12.554  17.366   0.712  0.2903 -0.1744 -0.1693
18222W        W37756   4.526  15.271  16.760  0.0886  0.0146  0.0823
18223W        W37757  16.899   5.219   0.509  0.0775  0.1386  0.0917
18224W        W37758   4.910  16.817  12.628 -0.0480  0.3767  0.1053
18225W        W37759   6.605   9.411  13.237 -0.0116 -0.1197 -0.1957
18226W        W37760   9.317   4.290   3.080  0.2213 -0.0553  0.0394
18227W        W37761   9.680   3.848  12.468 -0.2576 -0.3144 -0.1211
18228W        W37762   4.303   7.678   4.545  0.2070  0.1694  0.1047
18229W        W37763   9.262   2.798   4.297 -0.0552 -0.1844 -0.0717
18230W        W37764   0.977   9.679   4.632 -0.1869 -0.2757  0.0723
18231W        W37765   4.680  14.408   3.704  0.1465 -0.0555  0.0604
18232W        W37766   8.266   1.777   4.753 -0.0967 -0.2104  0.3315
18233W        W37767   6.162   9.811  13.133 -0.0294  0.0989 -0.1862
18234W        W37768   5.803  11.143  16.771  0.2345 -0.1807 -0.2131
18235W        W37769   3.469   3.896  14.133  0.1417 -0.0739 -0.0886
18236W        W37770  10.319   3.679  14.745 -0.1910 -0.0440 -0.2040
18237W        W37771  11.116  10.600   3.630  0.4377  0.0244  0.1427
18238W        W37772   4.102   8.221  12.030  0.2645  0.0275  0.1499
18239W        W37773   9.347   1.931  12.638  0.1510  0.0093  0.0058
18240W        W37774   0.469   3.531   2.560  0.3131  0.1473  0.0082
18241W        W37775   8.760  13.586   5.222  0.1388  0.0102 -0.2927
18242W        W37776   1.922   3.074  12.708  0.1301  0.1337  0.3850
18243W        W37777   4.473  12.972   4.333 -0.2349 -0.2861  0.1320
18244W        W37778  15.396  15.521   1.312  0.2330  0.1172 -0.0402
18245W        W37779   6.141  11.207  13.100  0.1275 -0.3549  0.0374
18246W        W37780   1.601  10.173  16.915 -0.1885  0.0843 -0.0216
18247W        W37781  12.761   6.586   1.706  0.0681 -0.0302 -0.0395
18248W        W37782  10.776  17.132  12.535  0.2771  0.2331 -0.0460
18249W        W37783   2.726  16.085  15.022 -0.0994  0.2156  0.0659
18250W        W37784  12.234  13.885   2.888 -0.1445 -0.0037 -0.1801
18251W        W37785  14.796  14.434   2.556  0.1030  0.2776 -0.3223
18252W        W37786   8.996  15.582  13.571  0.0261 -0.0395 -0.1599
18253W        W37787  12.441   7.419   1.285 -0.1909 -0.3195 -0.1295
18254W        W37788   9.616   2.794   0.746  0.2807  0.0653  0.2503
18255W        W37789   8.766  10.338   0.824 -0.1344  0.2746 -0.3421
18256W        W37790  14.279   0.611   0.183  0.3224  0.0681  0.1566
18257W        W37791  14.116   8.710  14.005  0.1414 -0.0616  0.1652
18258W        W37792   8.520  14.556  14.235  0.3327  0.0366 -0.0955
18259W        W37793  17.331   2.746   0.684  0.1274  0.1723  0.2615
18260W        W37794   0.756   6.874   2.343  0.0370 -0.0128  0.0312
18261W        W37795  13.502   8.671   2.232 -0.4497 -0.0717  0.1169
18262W        W37796   0.447   0.940   0.849  0.3248  0.3181  0.1430
18263W        W37797   6.539  13.419   1.132  0.1907 -0.1211 -0.0155
18264W        W37798  14.383  13.832   5.095 -0.0335 -0.0021 -0.1369
18265W        W37799  11.046   2.626   4.948 -0.0872 -0.3314  0.1050
18266W        W37800  13.343  17.560  13.481 -0.0535  0.0104  0.0650
18267W        W37801   6.264   6.580   4.515 -0.0200 -0.0892 -0.1365
18268W        W37802   6.583   7.134   1.430 -0.0547 -0.1508  0.0016
18269W        W37803  17.021  16.408  16.082  0.2334 -0.0649  0.2174
18270W        W37804   6.814  15.386   3.291  0.0443 -0.1049  0.1064
18271W        W37805  16.366   4.574  13.242 -0.2335  0.0484 -0.2129
18272W        W37806  10.783   8.857   4.241  0.2127  0.3179 -0.0391
18273W        W37807   4.012   4.463   1.999  0.2778 -0.3414 -0.0527
18274W        W37808  13.866   5.482   1.110 -0.0293  0.0672  0.2842
18275W        W37809   5.664  12.414   4.217 -0.0160  0.2064  0.1316
18276W        W37810  15.614  12.912   0.035 -0.3132  0.0465  0.1238
18277W        W37811   9.390   1.053   3.588  0.0390 -0.1470 -0.1622
18278W        W37812   6.771   9.930  13.910  0.3284  0.0398 -0.0268
18279W        W37813   8.405  14.068  12.890  0.0910  0.1299 -0.2203
18280W        W37814   9.910  12.463  16.578 -0.0486 -0.1663  0.2511
18281W        W37815  14.329  11.080  14.812  0.1132 -0.0295  0.0355
18282W        W37816  10.843   7.227   1.422 -0.4065 -0.1567 -0.1256
18283W        W37817   9.685  12.658   2.853 -0.1073 -0.3108  0.2570
18284W        W37818   0.531   0.480  15.186 -0.2695  0.1454  0.1503
18285W        W37819   0.523  17.286  12.315  0.1081 -0.1604  0.0376
18286W        W37820   4.864  13.644  12.634 -0.1592  0.0206 -0.0832
18287W        W37821  14.698   8.325   1.588  0.3401 -0.1464 -0.0201
18288W        W37822   5.708   6.510  14.700 -0.0126  0.0081  0.0001
18289W        W37823  13.136  10.751   1.286  0.1385 -0.3568  0.1388
18290W        W37824  13.725  16.651   4.259  0.2100 -0.1814 -0.3610
18291W        W37825   6.969  15.175   0.252  0.2304 -0.0583 -0.0460
18292W        W37826   6.097  13.537   0.892  0.0333 -0.0266  0.2447
18293W        W37827   9.480  15.081  15.926 -0.2441 -0.0480  0.0033
18294W        W37828   8.002   7.086  14.543  0.1181  0.0222 -0.2291
18295W        W37829   1.646  15.806   3.746 -0.0663  0.1169  0.1443
18296W        W37830   9.501   0.428   2.106 -0.2001  0.3372  0.0290
18297W        W37831  16.279  12.045   4.647 -0.0422  0.0474  0.5075
18298W        W37832  14.717   1.985  16.214 -0.0351  0.0163  0.0065
18299W        W37833   1.644   3.250  12.309  0.0907 -0.0778 -0.0016
18300W        W37834   3.281  12.614  15.636 -0.2359 -0.1857  0.0222
18301W        W37835   6.245  16.570   4.918 -0.4766 -0.1383 -0.0318
18302W        W37836  11.021   9.650   4.932  0.0349 -0.0560 -0.0105
18303W        W37837   2.205   8.117  12.901 -0.2006 -0.1645  0.0412
18304W        W37838  10.787  14.242   2.965 -0.0071 -0.0011 -0.0224
18305W        W37839   2.152  15.046   1.418 -0.0447 -0.0973 -0.0213
18306W        W37840   4.149  10.172  15.991 -0.0212 -0.3481 -0.2627
18307W        W37841  11.210  12.141   5.308 -0.2478  0.4398  0.1167
18308W        W37842  17.384   7.030   1.375 -0.0351 -0.0194 -0.2068
18309W        W37843   4.374   8.185  12.889 -0.0679  0.3397 -0.0013
18310W        W37844  11.103   7.789  10.691 -0.2878  0.0412  0.2103
18311W        W37845   1.525  11.918  13.050  0.0993  0.1987 -0.0629
18312W        W37846   0.091  13.122  13.192  0.3030  0.0107  0.3605
18313W        W37847   6.398   0.245  12.635 -0.2745  0.1290 -0.1496
18314W        W37848  16.688   7.978  14.608 -0.0163  0.0009  0.0143
18315W        W37849  16.962   7.433   0.680  0.1846  0.1978 -0.0777
18316W        W37850   2.221   4.774   3.627 -0.1983 -0.0664 -0.0647
18317W        W37851   0.791   2.808   1.278  0.1586  0.0937  0.3355
18318W        W37852   4.229  14.424   2.522  0.1799  0.0953 -0.0261
18319W        W37853  17.488  16.344  14.030  0.2440 -0.1282 -0.1343
18320W        W37854   1.641   8.990   2.549  0.0148  0.3351 -0.0058
18321W        W37855  15.867  17.088  14.140  0.1004 -0.0174  0.0978
18322W        W37856   4.676   1.234   2.604  0.1890 -0.1465 -0.0129
18323W        W37857  15.629   7.560   3.268 -0.1097  0.0719  0.1661
18324W        W37858   5.191   3.846  14.852  0.3905 -0.1476 -0.0791
18325W        W37859  12.328   1.114   4.083  0.0617  0.1217 -0.0140
18326W        W37860   4.361   2.167   5.291 -0.2663 -0.1564 -0.2421
18327W        W37861   4.035   8.382   2.192 -0.2262  0.0491 -0.0280
18328W        W37862  10.886   7.546  12.481  0.2462  0.0071 -0.2244
18329W        W37863   7.546   3.175   1.237  0.0408  0.3177 -0.0983
18330W        W37864   4.703   3.221  14.407 -0.0686  0.0504 -0.1508
18331W        W37865  15.584   6.859  13.011  0.2052 -0.0674  0.0194
18332W        W37866  14.566   1.079   2.191 -0.0919  0.2237  0.3866
18333W        W37867   1.962   4.757  15.222  0.0727 -0.1332  0.0610
18334W        W37868  13.228   9.911   3.356  0.1472  0.2992 -0.2663
18335W        W37869  16.431  11.254  13.480  0.0568 -0.0995 -0.1208
18336W        W37870  15.823  16.946   4.091  0.0741 -0.1318 -0.0530
18337W        W37871   6.194   1.536   3.242 -0.1201 -0.2281  0.1214
18338W        W37872   2.761   6.821   3.505  0.1391 -0.0264  0.0258
18339W        W37873   2.975  12.621   1.997 -0.0619  0.0272 -0.2846
18340W        W37874  13.178   6.168   2.814  0.0023  0.4346 -0.3545
18341W        W37875  13.792  12.792   1.265 -0.0436  0.1839 -0.1230
18342W        W37876  10.065   7.952  16.599  0.3112  0.2109 -0.0433
18343W        W37877   5.653   6.245   0.190  0.0914 -0.0694  0.1768
18344W        W37878  14.099   3.403  12.177 -0.4227  0.3825 -0.1634
18345W        W37879   6.655   8.889   3.957  0.0038 -0.1408  0.2097
18346W        W37880   4.809   6.202   4.416 -0.0653  0.2372  0.0302
18347W        W37881   2.597   9.727   4.722  0.1256  0.0716 -0.2062
18348W        W37882  17.183   3.730  16.492  0.0289  0.2261 -0.2798
18349W        W37883  14.671  16.908  14.042  0.0835 -0.0159  0.0354
18350W        W37884   2.081  13.387  13.005  0.2128 -0.1581 -0.0721
18351W        W37885  15.938   3.976  16.731  0.2261 -0.0359  0.0489
18352W        W37886   9.831  16.441   0.701 -0.0276  0.1244  0.0778
18353W        W37887  15.561  12.710   2.104 -0.1378 -0.0127 -0.0965
18354W        W37888  16.562   3.530   1.646  0.1178 -0.2486 -0.1953
18355W        W37889   3.601   4.852  15.173 -0.0252  0.0398 -0.0494
18356W        W37890  13.900   7.881   0.155  0.2255  0.0115 -0.1813
18357W        W37891   8.938  14.918   4.930  0.1613 -0.2026 -0.0630
18358W        W37892   8.112  12.547  12.106 -0.0030 -0.1488 -0.0262
18359W        W37893  15.253   9.679  13.025  0.1418 -0.2747  0.0213
18360W        W37894   2.587  11.146  16.712  0.1239 -0.1428 -0.0855
18361W        W37895  10.731   6.505   1.936  0.1702 -0.1471  0.2310
18362W        W37896   8.995   5.717  12.913 -0.1932 -0.0401 -0.1911
18363W        W37897   1.522  11.913   1.407 -0.3225  0.2543 -0.1509
18364W        W37898   6.767   6.450  14.216  0.2277 -0.1433  0.0016
18365W        W37899  10.349  13.606  16.245  0.1573 -0.0442 -0.1903
18366W        W37900   2.754   7.016   2.178 -0.0942  0.0244  0.3770
18367W        W37901   8.224   2.136   1.724  0.3606  0.0913  0.0176
18368W        W37902  14.178   1.263   1.382  0.2530  0.1684  0.4202
18369W        W37903   1.111  15.861  16.539  0.0917  0.2106 -0.2444
18370W        W37904   1.745  11.055   0.236 -0.1357 -0.1492  0.3091
18371W        W37905  11.390   7.262   1.701  0.0258 -0.1253 -0.4225
18372W        W37906  11.400   9.733   0.556 -0.1780  0.1322 -0.0316
18373W        W37907   2.693   3.154   4.627 -0.0065  0.0303 -0.1428
18374W        W37908  15.572  16.371  11.136 -0.0441 -0.1435 -0.0845
18375W        W37909  13.948  13.444   5.154 -0.0657 -0.0249 -0.0071
18376W        W37910  13.302   7.508  13.811  0.2546 -0.2564  0.2054
18377W        W37911   9.995  17.236   1.843 -0.1701  0.3213 -0.2876
18378W        W37912   7.142   4.686   0.892 -0.3622 -0.0708  0.2499
18379W        W37913  16.789  12.491   0.053  0.2383  0.2064 -0.0588
18380W        W37914   9.295   2.335   4.072  0.0183  0.1592 -0.0797
18381W        W37915  11.909   1.789  15.126 -0.3105  0.0701  0.2712
18382W        W37916   9.094   8.141  15.579 -0.0857  0.0844  0.2824
18383W        W37917  17.161   4.087  15.250  0.2056 -0.1393 -0.1850
18384W        W37918   3.403  12.113   3.163 -0.0228 -0.0987 -0.1217
18385W        W37919   1.699   5.250  15.343  0.2196  0.2165  0.0403
18386W        W37920  12.257   9.860   3.129 -0.1197  0.2051  0.0445
18387W        W37921  10.689  13.235  16.365  0.0665  0.0388  0.0321
18388W        W37922   3.007   9.048   0.828 -0.0237 -0.2431 -0.3451
18389W        W37923   8.652   9.596   4.759  0.1466 -0.2246 -0.1963
18390W        W37924   8.199  12.804  15.166 -0.1188  0.2891 -0.1218
18391W        W37925   4.099   4.649  15.194 -0.0781  0.0678 -0.3766
18392W        W37926   2.659  10.122  12.367 -0.0297  0.1015 -0.1899
18393W        W37927   7.263  12.740   4.669 -0.5034 -0.2391  0.0146
18394W        W37928   0.221  14.823   3.718  0.0452  0.2393 -0.3213
18395W        W37929  13.538  16.225  15.182 -0.2445 -0.0615 -0.1520
18396W        W37930   9.679  12.765  13.349 -0.1460 -0.1611  0.2013
18397W        W37931  10.755   1.102   4.271 -0.0956  0.0839  0.0617
18398W        W37932  10.487   6.645   0.695 -0.2749  0.1289  0.2287
18399W        W37933   4.005  17.136   4.820 -0.1792  0.2508  0.0766
18400W        W37934  13.148  11.993   0.245 -0.0446  0.1311  0.2211
18401W        W37935  16.507  10.883   0.468 -0.0210  0.0340  0.1468
18402W        W37936   2.888  12.171  16.394 -0.0887 -0.0437 -0.3067
18403W        W37937   2.129   3.139  12.235 -0.0680  0.1301 -0.2038
18404W        W37938  17.053  10.219   0.054 -0.2258  0.2121  0.1770
18405W        W37939   7.268  15.957  12.069 -0.0734 -0.1824 -0.1845
18406W        W37940   6.163  16.996  12.051 -0.0239  0.0119  0.1828
18407W        W37941   7.713   6.420   1.406  0.0044  0.1671 -0.1854
18408W        W37942   4.401  10.141  14.495  0.1578  0.0403  0.2553
18409W        W37943   6.412   2.507   3.770  0.2703 -0.1692 -0.1074
18410W        W37944  15.265  14.180   2.568  0.3135 -0.4406  0.0533
18411W        W37945   4.222   0.335  16.787  0.1092 -0.1826 -0.0863
18412W        W37946   5.717   1.270   2.023 -0.1649  0.1415 -0.0039
18413W        W37947  10.601   3.890  16.105  0.1565 -0.3378  0.1067
18414W        W37948  11.763   3.583  14.444  0.0268 -0.0185 -0.0749
18415W        W37949   7.075   4.156   5.175  0.1045 -0.0950  0.0409
18416W        W37950  11.029   8.563   2.449 -0.0130 -0.1821 -0.1238
18417W        W37951  13.340   7.609   4.622  0.1414 -0.0700 -0.0395
18418W        W37952  13.798  10.003  14.885  0.0009  0.0563  0.0618
18419W        W37953   2.524  13.402  12.314 -0.1660  0.2789  0.1594
18420W        W37954   9.217  17.512  11.953 -0.4883 -0.0010 -0.1220
18421W        W37955  16.862   8.365   2.697 -0.0181 -0.1839 -0.0396
18422W        W37956  15.984   2.527  15.109  0.1858 -0.0080 -0.1271
18423W        W37957  15.756  13.681   2.806  0.0547 -0.1622 -0.5371
18424W        W37958   9.947   9.007   4.845 -0.0462  0.1273 -0.1204
18425W        W37959   3.857   7.587  16.149 -0.2924  0.1585 -0.0261
18426W        W37960   8.855   3.186   1.363 -0.1253 -0.2680  0.1741
18427W        W37961  10.101   0.927  15.928  0.0025  0.1563 -0.1406
18428W        W37962  11.669  16.125  12.791 -0.0620  0.1434 -0.1192
18429W        W37963  16.476   7.950  16.315 -0.0366  0.0926 -0.0963
18430W        W37964  13.648   1.416  12.009 -0.0214 -0.2657 -0.2155
18431W        W37965   9.407  10.943  12.395  0.0804 -0.2725  0.1813
18432W        W37966   3.462   5.641  13.802 -0.1920  0.0791 -0.2760
18433W        W37967  16.726   7.807   0.488  0.2806  0.2056  0.3462
18434W        W37968  12.999  15.597  17.040  0.2307  0.2017 -0.0553
18435W        W37969  15.121  12.916  16.549  0.1384 -0.2695 -0.0605
18436W        W37970   6.498   9.382  15.964  0.1399  0.0743  0.1636
18437W        W37971  15.157   8.479   3.718  0.0124 -0.1137 -0.0727
18438W        W37972  14.156   7.522  13.714 -0.0895 -0.3657 -0.2469
18439W        W37973   1.439  17.619  16.425  0.1044 -0.0005  0.0599
18440W        W37974   0.450  14.720  14.574  0.1702 -0.0612 -0.0496
18441W        W37975  14.199   5.147   3.689 -0.3140 -0.1273 -0.0257
18442W        W37976  13.811   3.619  14.771 -0.2319  0.3129 -0.0865
18443W        W37977   3.341   1.672   2.757  0.0740  0.3787 -0.2569
18444W        W37978   4.790  12.973   0.917  0.0593  0.0801 -0.0999
18445W        W37979  12.906  11.498  15.963 -0.0256  0.0195 -0.1599
18446W        W37980   4.641   4.072   0.369  0.1030 -0.2469 -0.1579
18447W        W37981  10.214   0.456  16.703 -0.0479 -0.1371 -0.1331
18448W        W37982   1.333   3.754   3.074 -0.1495  0.3140  0.0683
18449W        W37983   7.277   6.654   1.528 -0.0553  0.0738  0.0484
18450W        W37984   2.256   9.628  15.368 -0.0827 -0.2405 -0.0392
18451W        W37985   6.845   0.612   1.663 -0.0799 -0.2224  0.2414
18452W        W37986   4.652  10.629   4.812 -0.1254  0.1232 -0.0598
18453W        W37987   5.117   0.353  16.199  0.2605  0.1101 -0.0735
18454W        W37988  14.108   2.992   1.537  0.0685 -0.1036  0.1043
18455W        W37989   8.997   1.628  13.734  0.0363  0.2711  0.1813
18456W        W37990  16.163  14.225  14.122  0.0347 -0.1349  0.0873
18457W        W37991  12.800  14.303  15.915 -0.0152  0.2457 -0.0176
18458W        W37992  16.552   1.330  15.974 -0.0477  0.2218  0.0337
18459W        W37993   3.987  13.814  12.677  0.1430  0.0334 -0.1324
18460W        W37994   4.698  10.768   0.421 -0.1209 -0.0001 -0.0845
18461W        W37995   0.465  15.783   2.126 -0.2979 -0.1349  0.0873
18462W        W37996   3.466  11.397   3.900 -0.0327  0.0396  0.0781
18463W        W37997  12.906  11.091   0.032 -0.2187 -0.4104 -0.0561
18464W        W37998   9.597   6.957   2.361 -0.1496  0.1837  0.1886
18465W        W37999   3.273  14.218   2.777  0.1873 -0.0716 -0.1581
18466W        W38000  11.743  13.292   2.078  0.2734 -0.0546  0.0153
18467W        W38001  15.203   7.585   4.635  0.4544 -0.1281  0.3823
18468W        W38002  12.492  12.841  12.472 -0.1087 -0.1824 -0.0105
18469W        W38003   5.593  11.128   2.766  0.2886  0.1468  0.1514
18470W        W38004   6.539   6.877  14.108 -0.1902  0.0558 -0.0774
18471W        W38005   2.482  13.542   4.614  0.1346 -0.1036  0.0084
18472W        W38006  11.872   8.474   3.478 -0.0274  0.0971 -0.1703
18473W        W38007   5.548  10.063  13.104  0.0608  0.0944 -0.0282
18474W        W38008   2.276   4.915   3.132  0.0289 -0.1400 -0.1608
18475W        W38009  11.474   1.413   4.202 -0.0048 -0.1853 -0.1993
18476W        W38010   1.912  16.992  13.666  0.1501  0.0454  0.0661
18477W        W38011  15.582   7.266  14.841  0.0886 -0.0596 -0.1524
18478W        W38012  14.602   6.289  13.420 -0.0928 -0.3409  0.0577
18479W        W38013  11.319   2.481   1.915 -0.0722  0.0375  0.0318
18480W        W38014   8.518   7.189   3.849 -0.0504 -0.0913 -0.1417
18481W        W38015   4.622  12.645  14.508 -0.1352 -0.2034  0.1947
18482W        W38016   3.195   1.602   3.709  0.0524 -0.1549  0.1785
18483W        W38017   1.690  12.504   2.655 -0.1689 -0.2768 -0.2137
18484W        W38018   7.244   7.630   1.036 -0.0895 -0.0856 -0.0750
18485W        W38019  15.855  16.499  16.346  0.0230 -0.0321 -0.2299
18486W        W38020  13.068  17.189   0.716  0.0281 -0.0783  0.1412
18487W        W38021   1.358   7.514   1.339 -0.0589 -0.0951 -0.0915
18488W        W38022  13.858  11.528   2.891 -0.0544  0.3670  0.1125
18489W        W38023   6.476  12.095   3.891 -0.1357 -0.1894 -0.2521
18490W        W38024   5.336   6.525   2.110 -0.3140  0.1136 -0.1224
18491W        W38025   0.933   1.097   0.887  0.1812 -0.0188  0.1622
18492W        W38026  10.799  10.703   3.061 -0.2310  0.4432 -0.2890
18493W        W38027   2.970   3.388   4.229 -0.3933  0.0778  0.0423
18494W        W38028  13.851   5.671   4.619 -0.2036 -0.1068 -0.0523
18495W        W38029   0.310   0.694  17.041  0.3345  0.0309 -0.0790
18496W        W38030  15.102  10.603   4.133 -0.2017 -0.0374  0.0407
18497W        W38031   6.188   0.899  13.292  0.3840 -0.0272 -0.1348
18498W        W38032   3.664   0.404   2.239 -0.3073  0.1551 -0.0799
18499W        W38033   4.644   0.540   1.931 -0.1069  0.2039 -0.1345
18500W        W38034  13.268   6.625  12.313  0.0761 -0.0153 -0.3337
18501W        W38035   2.574   9.238  15.752 -0.2437  0.1799 -0.0993
18502W        W38036   2.712  10.742  15.782  0.0454  0.3107  0.0581
18503W        W38037  16.838  16.504   4.221 -0.2181 -0.0222 -0.1523
18504W        W38038   3.064   4.719  15.425 -0.0160  0.1251  0.0601
18505W        W38039   6.103  12.992  15.431 -0.2527  0.0402 -0.1006
18506W        W38040   4.650   0.416   0.094 -0.0269 -0.0780  0.3066
18507W        W38041  16.508  15.771   0.718 -0.1599  0.0991 -0.1986
18508W        W38042  13.999  14.242  14.326  0.0664  0.1652  0.1640
18509W        W38043   5.370   0.322   0.985  0.1162 -0.1919 -0.0453
18510W        W38044  13.310   6.037  14.677 -0.0441 -0.1971  0.1198
18511W        W38045   1.003  11.791  15.203  0.1602 -0.0064  0.1670
18512W        W38046  10.784  17.069   3.708 -0.0101  0.0910 -0.0833
18513W        W38047   9.257  14.645  12.233 -0.2394 -0.0450 -0.1669
18514W        W38048   6.425   8.123  16.664 -0.2135  0.0617 -0.0990
18515W        W38049  14.825   9.425  14.276 -0.1146  0.0565 -0.1515
18516W        W38050   2.911   1.416   2.640  0.2875 -0.1170  0.0414
18517W        W38051  16.397   8.551   3.528  0.1018 -0.1305 -0.4017
18518W        W38052  15.486  12.907   4.863  0.0692 -0.1361 -0.0114
18519W        W38053   7.600   7.121   4.542 -0.1135 -0.2428 -0.0508
18520W        W38054   9.665   2.851  14.613  0.0533 -0.4478 -0.1448
18521W        W38055   4.568   0.737  16.824 -0.5148 -0.0596  0.1198
18522W        W38056  17.133  14.351   0.894  0.1061 -0.3106 -0.0974
18523W        W38057   0.421   6.415   3.430  0.1268  0.0383  0.0885
18524W        W38058   7.769   4.129   4.565  0.3570 -0.0842  0.0560
18525W        W38059   6.112  16.569   2.393  0.1911  0.1529 -0.0542
18526W        W38060   7.784   2.356  13.575 -0.3576  0.2011  0.1243
18527W        W38061   4.759   5.214  14.375  0.1660  0.0392  0.2553
18528W        W38062   3.044  13.264   3.118 -0.0514  0.3018 -0.4804
18529W        W38063   4.211   6.662   3.160 -0.2703 -0.0354  0.5334
18530W        W38064  13.238   6.305  16.109  0.1056 -0.2046 -0.2931
18531W        W38065   5.527  14.437   0.985  0.0918 -0.2306 -0.0428
18532W        W38066   5.857  14.713  15.092  0.0041  0.2900 -0.0749
18533W        W38067  16.724   8.672   1.959 -0.4280 -0.0361 -0.2815
18534W        W38068  15.146   3.457  12.831  0.3469 -0.1459 -0.0044
18535W        W38069   6.612  12.586   4.062 -0.1867 -0.1386 -0.0065
18536W        W38070  17.556  10.456  15.838  0.1698 -0.2767 -0.1893
18537W        W38071   0.928   9.173   0.058 -0.0999  0.2156 -0.1250
18538W        W38072   5.413   7.102  15.657 -0.3687 -0.2791 -0.0255
18539W        W38073   4.266   8.892   0.683 -0.1647  0.0156  0.2391
18540W        W38074   8.030  16.018  13.453 -0.0941  0.2090  0.0799
18541W        W38075  12.859   9.211  12.549  0.2692  0.4027 -0.1114
18542W        W38076   5.394  15.673  15.075 -0.2846  0.2401  0.2186
18543W        W38077   6.741   3.531  16.507 -0.1390  0.1753  0.1230
18544W        W38078   8.860  11.003   0.235  0.1199 -0.1189 -0.4126
18545W        W38079  15.746  11.210  15.793 -0.0079  0.3350  0.0342
18546W        W38080  10.557   6.641  12.169 -0.1019 -0.2538  0.1603
18547W        W38081   7.093   8.455  12.793  0.1725  0.3154 -0.2423
18548W        W38082  16.802  14.093  16.951 -0.1326  0.3007  0.0910
18549W        W38083  11.141   4.365  13.316 -0.0679  0.0251 -0.1498
18550W        W38084   7.179   8.224   1.536 -0.0439  0.0243 -0.0878
18551W        W38085  10.878   6.343   2.785 -0.0834 -0.0109  0.0592
18552W        W38086   0.126  14.764   0.116  0.2523 -0.0027 -0.1415
18553W        W38087   2.188  16.540   2.637  0.0334 -0.0004  0.0243
18554W        W38088   8.625  11.578   3.819  0.4100  0.0202  0.2743
18555W        W38089  10.053  10.800   1.011  0.3079 -0.1090  0.0684
18556W        W38090  16.249   3.318  14.929 -0.0074  0.3322  0.0124
18557W        W38091   4.952  12.702   4.052 -0.0557  0.0446 -0.1414
18558W        W38092   1.035   8.401  13.655 -0.1437  0.0550  0.0630
18559W        W38093  12.952   2.673   0.567  0.1214 -0.1794 -0.2378
18560W        W38094   5.051  16.661  13.622 -0.1217 -0.0002 -0.1230
18561W        W38095   0.270  15.551  16.447 -0.2143 -0.0040  0.0465
18562W        W38096   1.185  14.756  14.200  0.0624  0.0725  0.0539
18563W        W38097  16.859   9.989   4.357  0.0460 -0.0712 -0.3531
18564W        W38098   4.704   5.833   2.845 -0.2641  0.0831 -0.0070
18565W        W38099  15.297   9.958   4.591 -0.1122 -0.2232  0.0690
18566W        W38100   6.606   4.781   4.387  0.1023  0.0113  0.0802
18567W        W38101   4.607   8.207  14.400 -0.0719  0.4657 -0.1323
18568W        W38102   7.909   6.357   1.893  0.1830  0.3233  0.0412
18569W        W38103  16.160   4.932   2.436  0.1747 -0.0956 -0.1623
18570W        W38104   5.787  16.888  15.231  0.3316  0.0749  0.4216
18571W        W38105  10.852   9.771   3.020 -0.2830 -0.0810  0.0791
18572W        W38106  14.938   2.243  14.168 -0.0719 -0.0634  0.3219
18573W        W38107   8.997   9.377  13.776  0.0917  0.0269  0.1966
18574W        W38108   4.588  11.046  12.221  0.3767 -0.1598 -0.1474
18575W        W38109  17.273   9.310  16.119 -0.1682 -0.0093 -0.0986
18576W        W38110   4.885  12.422   2.366 -0.1041 -0.2208 -0.0686
18577W        W38111   0.906   9.837  14.087 -0.2136 -0.1298 -0.1818
18578W        W38112   9.613   9.794   0.784  0.0839 -0.0623 -0.0860
18579W        W38113  12.421   1.111   3.098  0.1143  0.0272  0.0809
18580W        W38114  16.959   8.726  15.302 -0.1050  0.1519  0.0302
18581W        W38115   4.514  12.256  14.933 -0.0231  0.0377 -0.0658
18582W        W38116   6.124   8.650  16.809 -0.0594 -0.0099 -0.0582
18583W        W38117   5.621   7.551   5.066  0.1241 -0.1706  0.0501
18584W        W38118  14.694   0.759  12.793  0.0904  0.0177 -0.0173
18585W        W38119   2.284   0.634   1.419  0.3154  0.1092 -0.3553
18586W        W38120  13.454   7.674  15.100  0.0001  0.2355 -0.0548
18587W        W38121  15.092  10.214  13.936  0.1745 -0.0634 -0.0901
18588W        W38122   7.249   6.054  16.379  0.1626 -0.1920 -0.0082
18589W        W38123   1.178   6.617   4.527 -0.1244 -0.0587 -0.0107
18590W        W38124   4.024  12.493   2.833  0.0352  0.2186  0.0152
18591W        W38125  17.031  16.066  14.288  0.0087 -0.0303 -0.0992
18592W        W38126  15.527  16.801  13.880  0.3887  0.1012 -0.2180
18593W        W38127  17.230   9.036  12.130  0.3505 -0.0002 -0.4403
18594W        W38128  12.066  14.620  11.742 -0.2073 -0.3504 -0.1038
18595W        W38129  17.574   4.048  13.050 -0.3229 -0.0732  0.1653
18596W        W38130   0.840  17.567   4.552 -0.4098 -0.4933 -0.2150
18597W        W38131   4.542   3.470  13.346 -0.4386 -0.2133  0.1508
18598W        W38132  12.637   7.740   2.618  0.0942 -0.0282  0.0600
18599W        W38133  16.275   8.012   0.665 -0.0634 -0.0905 -0.1537
18600W        W38134  16.908  12.371   2.421 -0.2308 -0.3823 -0.1212
18601W        W38135   3.759   1.145  14.546 -0.3584 -0.3073 -0.1260
18602W        W38136   0.844  11.770   1.131  0.0614 -0.1735 -0.4215
18603W        W38137   9.248  10.219  14.823 -0.4870 -0.2584 -0.2307
18604W        W38138  15.042  15.047  13.585  0.2907 -0.2905  0.1108
18605W        W38139   3.024   6.229   4.053  0.1795  0.2111  0.0647
18606W        W38140  17.629   9.488   5.035 -0.0542  0.3017  0.1074
18607W        W38141  14.315  11.470   0.073  0.1852  0.3423 -0.1763
18608W        W38142  15.384  12.813   3.050  0.2831  0.1747  0.3434
18609W        W38143  13.172   5.792  14.232 -0.1762 -0.1989  0.0540
18610W        W38144   4.951   1.271  16.038 -0.0274 -0.1604 -0.1073
18611W        W38145   5.345   7.447  15.275 -0.3272  0.1419 -0.0309
18612W        W38146  11.508   9.349   0.052 -0.0000  0.0278  0.1604
18613W        W38147  10.010  11.456   0.149  0.0240  0.1261  0.0562
18614W        W38148  11.397   9.301   4.597  0.2308  0.2237 -0.0011
18615W        W38149   9.119  10.369  15.680 -0.1194 -0.1405  0.3035
18616W        W38150  15.106   8.505   0.185 -0.0369  0.2170 -0.0297
18617W        W38151  15.068   9.962  12.199 -0.0534 -0.0454 -0.0366
18618W        W38152   9.926   2.563  14.196  0.1591  0.0110 -0.3013
18619W        W38153   8.032  11.128   0.800 -0.2292  0.1493 -0.0324
18620W        W38154   0.942   8.915  11.020 -0.3241 -0.0741  0.3017
18621W        W38155   4.386   1.313   0.013  0.0980  0.0294  0.0661
18622W        W38156   4.050  17.478  15.341 -0.2010  0.3510 -0.4333
18623W        W38157   1.237  17.580  15.079  0.1719 -0.0963 -0.1027
18624W        W38158  12.012   5.001   1.590  0.0636  0.0348 -0.0979
18625W        W38159   2.034   9.848  12.532 -0.0300 -0.4280 -0.4033
18626W        W38160  10.196   6.360  15.529  0.2942  0.0123 -0.2854
18627W        W38161   2.756   5.806   3.180 -0.0446 -0.3062  0.0865
18628W        W38162   2.531   5.630  16.190  0.0610  0.0665  0.2203
18629W        W38163   9.252   5.646   4.203 -0.4871  0.1543  0.1750
18630W        W38164   6.801   9.513   4.549 -0.3724  0.1768 -0.0049
18631W        W38165  17.383   5.304  16.389  0.0938  0.0961 -0.1942
18632W        W38166  11.700   4.163   4.113  0.0898 -0.3454  0.3875
18633W        W38167   3.425   5.003   0.432  0.2135  0.2069 -0.1029
18634W        W38168  14.420   1.721   4.672 -0.1351 -0.0375  0.5009
18635W        W38169  10.705   4.622  14.429 -0.1133  0.1038 -0.0105
18636W        W38170  16.007   0.856  12.540  0.2444 -0.1043 -0.2431
18637W        W38171  16.829  10.745   2.885 -0.2550  0.0735 -0.0500
18638W        W38172   7.801   2.615   0.412 -0.5909 -0.3523 -0.2615
18639W        W38173  14.382   7.869   5.007  0.0945  0.2100  0.0375
18640W        W38174   7.624  13.838   0.077 -0.2928 -0.2203 -0.2460
18641W        W38175   8.753  16.228   2.981 -0.1594 -0.1779 -0.1631
18642W        W38176  12.798   1.618   2.386  0.2987  0.0194  0.4128
18643W        W38177   9.145  10.237   4.217  0.0741 -0.1177  0.1258
18644W        W38178  12.770   0.647  13.823 -0.3290  0.0917 -0.0350
18645W        W38179   8.809  12.232  15.700 -0.0274  0.1171  0.2307
18646W        W38180  14.608   9.252  12.667  0.1500  0.0816  0.0143
18647W        W38181   6.734   7.322   0.114  0.2897  0.0554  0.1394
18648W        W38182   8.982  13.496  15.398  0.1698  0.3453 -0.0199
18649W        W38183  11.460  11.456  14.847  0.1462  0.0527  0.0362
18650W        W38184   5.926   1.265  13.074  0.1064  0.0276 -0.3151
18651W        W38185  11.449  16.428  14.464 -0.1686 -0.3357  0.1881
18652W        W38186   7.945  11.613  13.045  0.2583  0.0563  0.0839
18653W        W38187   4.824   7.726  15.955 -0.0354  0.2013  0.1635
18654W        W38188  11.125   7.431   5.386  0.0846 -0.0352 -0.0037
18655W        W38189  15.222  10.899  15.951  0.0357 -0.0989  0.2569
18656W        W38190   6.974   9.937   4.924 -0.1263 -0.0834 -0.0075
18657W        W38191  11.913  14.188  14.461  0.0592 -0.0775 -0.1265
18658W        W38192  14.753  11.292   3.781 -0.0762  0.1189  0.2401
18659W        W38193   1.009  13.319  15.432  0.1703  0.0355  0.1017
18660W        W38194   0.570  11.354   1.389 -0.0273 -0.1076  0.4250
18661W        W38195  13.918   7.760  13.219  0.2560 -0.0805 -0.0484
18662W        W38196  14.386  14.253   2.279  0.2727 -0.1566  0.0763
18663W        W38197   1.556   3.977  13.932  0.0386 -0.3238 -0.3737
18664W        W38198   3.796   0.121  11.394 -0.0946 -0.0568 -0.2828
18665W        W38199  12.476   4.379   4.058  0.0160 -0.1251  0.3005
18666W        W38200  10.597   3.811  13.132  0.0350 -0.1483 -0.0019
18667W        W38201  11.951   9.587   1.945  0.1461  0.3067 -0.0359
18668W        W38202   9.700  11.554  12.314  0.0575  0.0149 -0.0218
18669W        W38203  14.196   1.970  16.572 -0.1545 -0.1502  0.0009
18670W        W38204  15.535  14.423   0.001  0.0492  0.1591  0.2421
18671W        W38205   8.056   6.262   3.762  0.2523 -0.1708  0.0775
18672W        W38206   1.716   8.730  13.959 -0.1066 -0.0745  0.0260
18673W        W38207  14.499  12.289  16.199  0.1775 -0.0870  0.2239
18674W        W38208   3.078   1.596   4.480  0.2152 -0.1386 -0.0421
18675W        W38209   5.483  10.668   0.741 -0.1093 -0.0856  0.0730
18676W        W38210   8.022  12.685  16.371  0.0244 -0.1676  0.0564
18677W        W38211  15.127   8.670   1.217  0.0044 -0.1563  0.1570
18678W        W38212  16.034   9.253  16.661  0.4215 -0.2315 -0.0940
18679W        W38213  13.272   2.613   1.992 -0.0369 -0.2429  0.1270
18680W        W38214  15.281  11.860  16.024  0.0845 -0.1529  0.1261
18681W        W38215   5.865   1.905   2.605 -0.2243 -0.3314 -0.0473
18682W        W38216   4.140   6.104   0.374  0.2643  0.2595  0.0006
18683W        W38217  12.440   6.514   0.893  0.3292  0.4422 -0.0361
18684W        W38218   7.682  11.630   3.204  0.1980 -0.0328  0.0157
18685W        W38219  13.168   3.052  15.202  0.0185 -0.2386  0.0398
18686W        W38220   6.650  14.124  13.331  0.3665  0.0936  0.1848
18687W        W38221   6.648   4.490  15.239  0.0176 -0.0913  0.3865
18688W        W38222   3.963   8.897   4.041 -0.3748  0.1430 -0.0970
18689W        W38223   2.459  13.146  12.762 -0.1192  0.2363 -0.2649
18690W        W38224  12.627   8.979   3.969 -0.1583 -0.2167 -0.0254
18691W        W38225  15.595  11.484   4.785 -0.1529  0.1876  0.0195
18692W        W38226  13.845  12.656   3.859 -0.4806 -0.1451 -0.1662
18693W        W38227   5.152   5.190  14.864  0.1250 -0.1663 -0.1971
18694W        W38228   5.984   5.464  13.286 -0.2269 -0.0130 -0.3807
18695W        W38229   5.017  12.325   3.687 -0.2649 -0.3475 -0.2533
18696W        W38230   6.960  14.804  16.084  0.4578  0.2581  0.2145
18697W        W38231  12.132   1.347  15.404 -0.0059 -0.0665 -0.3261
18698W        W38232   3.957   8.813   3.444 -0.0157  0.1604 -0.2550
18699W        W38233   5.874   3.828   2.037 -0.2716  0.2126 -0.1789
18700W        W38234   8.313   7.601  12.466 -0.4581  0.3845 -0.0309
18701W        W38235  17.425  16.407   3.306  0.1238  0.1563 -0.1345
18702W        W38236   3.985   5.650   0.253 -0.1337 -0.2007 -0.2471
18703W        W38237   9.022  13.118  16.228 -0.0496 -0.0778 -0.0439
18704W        W38238  10.336   3.151   2.588 -0.3030  0.4687 -0.0172
18705W        W38239   6.480  12.440  16.617  0.1470 -0.0886  0.3018
18706W        W38240   2.739  10.528  14.568  0.2836 -0.3109  0.0797
18707W        W38241  16.831   6.363  14.136 -0.1820 -0.1374 -0.2359
18708W        W38242  12.048   1.781   0.377  0.1370 -0.2746  0.0370
18709W        W38243  11.308   7.569  12.855 -0.0527  0.2815 -0.1371
18710W        W38244   4.857  16.480  15.904  0.2431  0.0515  0.2018
18711W        W38245   5.674   0.357  15.432 -0.3062 -0.0962  0.0944
18712W        W38246   3.717   7.897  14.500  0.2743  0.4499 -0.0549
18713W        W38247  12.257   5.454  15.822  0.0934 -0.1152 -0.2840
18714W        W38248  11.306   5.166   2.224  0.0258 -0.1412 -0.0639
18715W        W38249   9.936   9.556   3.920 -0.1357  0.0640 -0.0400
18716W        W38250  12.716   5.226  15.778 -0.2378 -0.1387 -0.0488
18717W        W38251   2.777   8.810   0.049  0.1417  0.0540 -0.2323
18718W        W38252  14.714  10.866  14.546 -0.0724  0.0387 -0.1149
18719W        W38253  16.229  15.289  17.044 -0.2741 -0.2377 -0.0269
18720W        W38254   7.434  11.000  16.000 -0.1557  0.0396 -0.2001
18721W        W38255  13.720  14.254   4.678  0.0847  0.1419 -0.1841
18722W        W38256   7.499   2.006  13.329  0.0252 -0.0606 -0.1461
18723W        W38257   9.303   0.632   0.945  0.2852 -0.1369  0.2806
18724W        W38258  15.261  12.816   2.584 -0.3941 -0.0880  0.2226
18725W        W38259  15.707   6.801   2.568  0.3774  0.1104 -0.2247
18726W        W38260   8.513  16.377  15.385  0.1185  0.1799  0.2280
18727W        W38261   5.882   6.685  14.255  0.0488 -0.1373  0.2110
18728W        W38262  15.015   5.125   4.217  0.1189  0.0226 -0.1006
18729W        W38263   0.698   9.731   4.182  0.1591 -0.1485  0.1651
18730W        W38264  15.338   5.352  14.280  0.1260 -0.0364 -0.0526
18731W        W38265  14.509  12.583  13.118  0.0280  0.0560 -0.1209
18732W        W38266  13.295   5.065   0.160 -0.0530  0.0077  0.1224
18733W        W38267   8.160   9.942   4.910  0.0114 -0.1952  0.1928
18734W        W38268  11.431   6.048   1.787  0.0632  0.0915 -0.2751
18735W        W38269   9.211  12.624  14.361 -0.1551  0.0371 -0.1182
18736W        W38270   3.686  10.415  16.118  0.1496 -0.1066 -0.1970
18737W        W38271   7.181  14.093  13.451 -0.1243  0.1415  0.2862
18738W        W38272   8.745  17.426   0.961  0.1670 -0.0322  0.0443
18739W        W38273  11.791   9.881   4.535 -0.0201 -0.0959  0.4536
18740W        W38274   2.449   6.723   4.309 -0.0233  0.3198  0.0426
18741W        W38275  15.182  17.008   4.767  0.0165 -0.1547  0.3554
18742W        W38276  11.749  14.532  16.142  0.1240  0.0376  0.2185
18743W        W38277   5.869  12.703  14.667  0.1739 -0.0205 -0.0328
18744W        W38278   9.092   9.423  15.765 -0.1761  0.0350 -0.0580
18745W        W38279  13.431  15.432   3.491  0.0604 -0.2785  0.0720
18746W        W38280  15.537  10.849   4.257  0.1466  0.1446  0.0752
18747W        W38281  16.468   3.716  15.578 -0.0025 -0.2770 -0.0385
18748W        W38282  10.388  10.997   2.359 -0.1387 -0.0706  0.0797
18749W        W38283   2.067  12.345  16.967 -0.2146  0.2726 -0.0794
18750W        W38284   0.076   9.335  13.436  0.0030 -0.0267 -0.0958
18751W        W38285  10.870   6.782   2.381 -0.0195  0.1788 -0.4064
18752W        W38286   5.125  17.590  13.240 -0.1324  0.1252  0.0083
18753W        W38287   5.324   4.821   0.683  0.0074  0.1755  0.0287
18754W        W38288   2.810   3.412  14.815  0.1786 -0.0781  0.2268
18755W        W38289   0.184  15.436   4.686 -0.2545  0.3841  0.1410
18756W        W38290  11.467   8.644  12.048  0.0321  0.1322 -0.3238
18757W        W38291  10.228   4.935  13.776  0.3524  0.0735  0.0875
18758W        W38292   7.547  16.984  16.051  0.0672  0.2297  0.0141
18759W        W38293  16.907  10.171   0.973 -0.1796  0.3385  0.0332
18760W        W38294  14.293   5.312  13.689  0.1042 -0.2253  0.0145
18761W        W38295   0.714  15.792   4.013  0.2152 -0.1451 -0.3672
18762W        W38296   9.110   7.301  15.936  0.0075 -0.0785 -0.0310
18763W        W38297   3.028   4.911  14.066 -0.0467 -0.2202 -0.0448
18764W        W38298   5.935   1.245   3.840  0.1944  0.1287  0.1419
18765W        W38299  16.256   9.523   3.544  0.0514  0.0411 -0.1870
18766W        W38300  17.555   5.554   4.722  0.1337  0.0246  0.0665
18767W        W38301  16.316   5.779   4.600 -0.2372  0.0952  0.2441
18768W        W38302  10.762  16.907   4.261  0.2397 -0.1813  0.0167
18769W        W38303   4.908   6.784  12.984  0.0307  0.0142 -0.0910
18770W        W38304   9.121   5.707   2.374 -0.2716 -0.1434 -0.0568
18771W        W38305   7.849  13.167   5.173  0.0614  0.1729  0.0765
18772W        W38306   0.054   7.355   2.839  0.0014  0.0417  0.1824
18773W        W38307   5.117  11.545   0.563 -0.1421 -0.2234 -0.3674
18774W        W38308   6.118  11.275  16.019 -0.1006 -0.1373  0.4824
18775W        W38309   9.331   3.651   2.395  0.1387  0.1921 -0.0944
18776W        W38310  10.355   9.475   1.875  0.3724  0.2148  0.1504
18777W        W38311   5.326  16.896  16.699 -0.1715  0.3914 -0.1719
18778W        W38312   2.257  12.474  15.831  0.0452 -0.2448 -0.0373
18779W        W38313   2.614   2.919  15.935  0.0661 -0.1779  0.0114
18780W        W38314   8.658   6.499  16.425 -0.0199  0.0801  0.4041
18781W        W38315   9.142   4.112  16.069 -0.3552 -0.1620 -0.2188
18782W        W38316  13.233  17.594   4.416 -0.1665  0.0264  0.1433
18783W        W38317   1.304   0.415  16.328  0.3678 -0.1793  0.0792
18784W        W38318  13.188  12.814   2.349  0.0154  0.1494 -0.2296
18785W        W38319   2.531  14.029   4.728  0.0612 -0.2646  0.1497
18786W        W38320   7.877   6.705   4.904  0.0472  0.0928  0.4100
18787W        W38321   2.655  12.111  14.311 -0.2496 -0.1517 -0.1871
18788W        W38322  16.741   2.935   4.210  0.0386 -0.0250  0.0781
18789W        W38323  13.489   7.548  15.881 -0.0656 -0.2750 -0.0224
18790W        W38324   4.568  12.017  16.890 -0.2543  0.0559 -0.5242
18791W        W38325   6.152   9.643   2.713  0.2476  0.1832  0.2539
18792W        W38326   0.276  12.826   1.155 -0.1604 -0.1594  0.1453
18793W        W38327  12.921   7.546  16.831 -0.1266 -0.3089  0.1126
18794W        W38328   7.264  12.424   3.315 -0.1116  0.1112  0.2663
18795W        W38329  12.887   3.554   1.185  0.2614 -0.1276 -0.2378
18796W        W38330   0.636   3.519   0.663 -0.3498  0.0164  0.5907
18797W        W38331  12.227  16.559  14.942  0.3306  0.2125  0.0199
18798W        W38332   9.302   6.294   0.433 -0.1332 -0.1722  0.1329
18799W        W38333   0.135   6.277  12.552  0.1023  0.1151 -0.3529
18800W        W38334  11.126  16.976  16.330 -0.2395 -0.0124 -0.3338
18801W        W38335   2.826  13.400  16.642  0.5049  0.0095  0.2786
18802W        W38336   5.487   3.218  14.479  0.0786 -0.3854 -0.0858
18803W        W38337   6.873   2.972   2.606  0.1213  0.0090 -0.3127
18804W        W38338   5.450   3.780   3.076 -0.0010  0.1544  0.1083
18805W        W38339   4.766  16.311  13.402 -0.0736 -0.0691  0.1153
18806W        W38340  14.549   6.833   4.548 -0.2325 -0.1334  0.0628
18807W        W38341  12.662   7.391   0.853 -0.1900 -0.0910  0.0980
18808W        W38342  13.881   0.172  12.517  0.2610 -0.0427  0.2748
18809W        W38343   3.448  12.209  13.287 -0.2323  0.1194 -0.0527
18810W        W38344   4.114  12.749   4.680  0.1219  0.1893  0.3160
18811W        W38345   2.749   9.186   4.094 -0.2574 -0.0080 -0.1189
18812W        W38346   6.686  16.643   4.724 -0.1620 -0.0189 -0.0155
18813W        W38347  10.825   8.646   0.038  0.1481 -0.2984  0.2360
18814W        W38348  10.047  10.241   4.304  0.0525 -0.1513 -0.1353
18815W        W38349   3.779  13.952   1.880  0.1331 -0.1822 -0.3277
18816W        W38350   6.842   4.909  13.594 -0.2932 -0.1664 -0.1598
18817W        W38351   0.894   4.616   4.933 -0.0635  0.0674 -0.0562
18818W        W38352   9.183   8.402   0.299 -0.0854  0.1144  0.2083
18819W        W38353   5.374   5.642   3.327 -0.0632 -0.0114 -0.0358
18820W        W38354   4.201   1.837   2.838  0.2394 -0.0183 -0.0129
18821W        W38355   8.101  12.199  16.375  0.0152 -0.2109 -0.0002
18822W        W38356   8.501  15.929  16.493  0.2765  0.1623  0.1293
18823W        W38357  16.539   4.740  16.871 -0.1057 -0.1731 -0.3432
18824W        W38358  11.665  11.907  14.121  0.0182  0.0696  0.1633
18825W        W38359   6.711  16.561  16.552  0.2451 -0.2155 -0.1798
18826W        W38360  11.191  17.253   3.254 -0.0441  0.0046 -0.1855
18827W        W38361  14.213   3.473  16.183 -0.3633 -0.0498 -0.4488
18828W        W38362   4.045  15.556   3.129 -0.3015 -0.0829 -0.0598
18829W        W38363   4.628   3.239   1.343 -0.0691 -0.1168 -0.1792
18830W        W38364  17.489   1.367   2.538  0.2679  0.0113  0.1283
18831W        W38365  12.529   8.145  16.292 -0.0401  0.2090 -0.2482
18832W        W38366   2.745  13.725  11.903  0.1151  0.1110 -0.4294
18833W        W38367   1.601   1.432  13.552 -0.1815 -0.0782  0.2756
18834W        W38368   3.322  11.108   0.654  0.0539  0.0307 -0.1442
18835W        W38369  16.583   7.528   2.955 -0.2322 -0.0327  0.1266
18836W        W38370  13.550  15.402   6.088  0.0791 -0.0856 -0.0110
18837W        W38371  12.216  15.333   2.292  0.0170 -0.1062  0.1607
18838W        W38372  16.363   4.323  16.611 -0.0718 -0.0301  0.0387
18839W        W38373  15.738  17.132   1.898  0.0002 -0.3096  0.2923
18840W        W38374   6.589   1.239  13.207  0.0046  0.3353  0.2980
18841W        W38375   2.035  16.123  13.795 -0.2791 -0.0488  0.1210
18842W        W38376   4.984  10.209  16.461 -0.1747 -0.2667  0.2254
18843W        W38377  13.951   2.613   4.441 -0.2067  0.0889  0.1232
18844W        W38378  15.526  16.114  13.120 -0.0142 -0.0257 -0.1246
18845W        W38379   0.381   6.995   3.544 -0.0849  0.1855  0.0710
18846W        W38380   5.245  17.577  16.469 -0.0597 -0.1823  0.1137
18847W        W38381  10.370  11.025   1.849  0.1170  0.0497 -0.0601
18848W        W38382   6.384   5.447  14.185  0.0186  0.1096 -0.0219
18849W        W38383   7.677  13.360  16.951 -0.0242  0.5236 -0.0113
18850W        W38384   5.260   1.670  15.415 -0.3710  0.3198 -0.0057
18851W        W38385   5.871  16.213   4.643 -0.2350 -0.0323 -0.0079
18852W        W38386  14.518   8.420  12.098  0.4251 -0.1117  0.1356
18853W        W38387   4.917  11.166  13.992  0.0438  0.1022 -0.0115
18854W        W38388   8.798  12.672  16.896  0.1797  0.2368  0.1867
18855W        W38389   6.552   0.770   0.192 -0.1406  0.1405 -0.1057
18856W        W38390   8.490  11.409  13.689  0.1988 -0.1601 -0.1658
18857W        W38391  15.646  16.754   4.559  0.1572  0.1008  0.0149
18858W        W38392  10.752   4.268  12.941  0.0786 -0.2516  0.0536
18859W        W38393  16.817  12.498   3.003 -0.2262 -0.0034  0.2020
18860W        W38394  14.257  16.995  13.687  0.1556  0.1317  0.0792
18861W        W38395   4.429   7.842   5.074  0.0177  0.2464 -0.1572
18862W        W38396   0.237   2.279  16.796 -0.0180 -0.1409  0.0023
18863W        W38397   3.868  14.902   1.646 -0.1229 -0.1624 -0.2049
18864W        W38398   8.215  10.624  14.008  0.2763 -0.0263 -0.1081
18865W        W38399  16.868   0.785   3.016  0.0666 -0.1817  0.0775
18866W        W38400   9.174  17.510  14.746 -0.0652 -0.3691  0.1251
18867W        W38401   7.419  16.119   0.488  0.1955 -0.0684 -0.0133
18868W        W38402   5.334  12.974  17.026  0.0550 -0.0221  0.4444
18869W        W38403  16.209  15.399   2.332 -0.1113  0.1341  0.0063
18870W        W38404   0.424   8.612   2.199  0.3558  0.0346 -0.2049
18871W        W38405   2.102  12.471   2.041 -0.1166  0.1625  0.1569
18872W        W38406   0.217  16.694   2.115 -0.1538 -0.3109 -0.1002
18873W        W38407   5.855  12.602  12.551  0.1198 -0.0220  0.2811
18874W        W38408   9.245  11.894  12.687  0.1117  0.0499  0.0383
18875W        W38409  10.583  10.150   2.264 -0.2275  0.3054 -0.0745
18876W        W38410   7.562  14.677   4.374  0.1236 -0.1292  0.3253
18877W        W38411   8.116   7.575   3.836  0.2290 -0.0369  0.1499
18878W        W38412   4.109   6.320  16.663  0.0294  0.2040  0.0010
18879W        W38413   3.090  14.947   2.593 -0.0003 -0.1309 -0.0727
18880W        W38414  11.576   9.100  15.281  0.2123 -0.1169  0.0809
18881W        W38415   2.520  15.640   0.974  0.0356 -0.1760 -0.2599
18882W        W38416  16.386   0.521   1.190  0.0337 -0.0521  0.0021
18883W        W38417  11.306  10.076   1.096 -0.1340  0.3179  0.3642
18884W        W38418  13.366   6.944  15.853  0.0987  0.1328 -0.0218
18885W        W38419  14.383   1.051  16.044 -0.2271  0.0310  0.0114
18886W        W38420   9.782   7.314  13.540  0.2023 -0.3294 -0.2190
18887W        W38421   8.464  15.349   4.162 -0.1928  0.3876 -0.0551
18888W        W38422   4.674  12.014   4.532  0.0492  0.0378  0.1782
18889W        W38423   8.559   6.498   1.892  0.0994  0.0020  0.1219
18890W        W38424  17.420   4.397  14.907 -0.0550  0.3137 -0.2229
18891W        W38425   4.399  17.189  13.229  0.2116 -0.0780  0.1871
18892W        W38426   9.913  10.491   4.755 -0.1356  0.0935 -0.0907
18893W        W38427   6.324  14.825   2.704 -0.1005 -0.2474  0.4345
18894W        W38428   0.866   9.454   3.793 -0.2232  0.0762 -0.0088
18895W        W38429  10.710  11.845  13.256  0.0005  0.2394 -0.0810
18896W        W38430   3.912  15.883  12.345  0.2423  0.3506  0.1288
18897W        W38431   8.792   2.339  13.494  0.2787 -0.0286  0.0605
18898W        W38432   0.249  15.963  12.461 -0.0805 -0.3068 -0.2281
18899W        W38433  10.462  14.136   0.779 -0.3802 -0.1459  0.0705
18900W        W38434   3.503   9.324   3.274  0.3368 -0.2000  0.4008
18901W        W38435   2.784  13.259   3.665  0.3312  0.0305  0.2880
18902W        W38436   4.730   0.202   2.350 -0.0088 -0.0908 -0.1266
18903W        W38437   0.270   8.482   4.027 -0.0291 -0.1058 -0.1364
18904W        W38438  12.600   3.957   1.022  0.2428 -0.2091 -0.1661
18905W        W38439   2.214  14.544  15.770  0.1561 -0.1415 -0.2075
18906W        W38440  13.095  11.799  14.263  0.0269 -0.0548 -0.0967
18907W        W38441   6.536   1.719   4.512 -0.1953  0.2795  0.0427
18908W        W38442   9.065   9.467  12.711 -0.0705  0.2751 -0.3548
18909W        W38443  16.989   5.379   1.055 -0.2807  0.2374  0.0221
18910W        W38444  15.475   8.005  16.319  0.1372 -0.1938  0.0926
18911W        W38445   7.267   7.030  13.124 -0.2756 -0.0780  0.1517
18912W        W38446  15.217  13.010  12.294 -0.0460  0.1875 -0.3071
18913W        W38447   0.742  13.284   1.209  0.2037  0.0986  0.0301
18914W        W38448   6.029   4.765  16.222 -0.0513 -0.0907 -0.2247
18915W        W38449  15.529   2.101  16.070 -0.1051  0.0444  0.0183
18916W        W38450  14.810   8.658  13.731  0.2798 -0.0168 -0.2044
18917W        W38451  17.360   1.339   4.375  0.0629 -0.0366 -0.0827
18918W        W38452   1.249   1.983   4.987 -0.3937  0.1730 -0.1453
18919W        W38453  10.194   3.046  14.328  0.0639 -0.1337  0.1572
18920W        W38454  10.049  10.740  15.089  0.0865 -0.1132 -0.1202
18921W        W38455   1.314  15.093   3.327 -0.3085 -0.0171 -0.1462
18922W        W38456  11.528  14.177   2.318 -0.0244  0.0204 -0.3706
18923W        W38457  10.516   9.157  14.320 -0.1313  0.2427 -0.0188
18924W        W38458   0.833   9.767   0.135 -0.0613 -0.1362  0.0501
18925W        W38459  10.905  14.434   5.353  0.2440 -0.2760  0.3285
18926W        W38460   1.784   6.405  15.272 -0.3042 -0.1085 -0.1012
18927W        W38461   5.028  14.442  13.755 -0.0138  0.0100 -0.0316
18928W        W38462  14.330   0.363   4.524  0.1839 -0.0078 -0.2149
18929W        W38463   5.511   1.108   1.518  0.0842 -0.0415 -0.0291
18930W        W38464   4.019  11.871  13.812 -0.1049  0.0138  0.3600
18931W        W38465  16.464  13.516   4.458 -0.3794 -0.0846 -0.0645
18932W        W38466  13.425   4.693   2.293  0.1893 -0.0446  0.0526
18933W        W38467  10.437  11.513  16.955 -0.5345  0.1326 -0.3439
18934W        W38468  11.705   1.987  16.434 -0.1633  0.0439  0.2355
18935W        W38469   3.489   0.704   4.466  0.0202  0.3202 -0.1316
18936W        W38470  12.723   9.433  13.088  0.1424  0.1357 -0.1090
18937W        W38471   0.316   0.086  11.349  0.1173  0.1500 -0.1106
18938W        W38472   5.345  13.643  15.055  0.2372  0.2318  0.2595
18939W        W38473   4.888   0.489  12.500 -0.4176 -0.1263 -0.1372
18940W        W38474  15.162  12.442  15.443 -0.0456 -0.1591 -0.3704
18941W        W38475   1.164   8.200   0.597 -0.0138 -0.4887 -0.1254
18942W        W38476  11.549  17.454   4.957 -0.1509  0.0627 -0.2071
18943W        W38477  10.139  11.080  12.803  0.0630  0.3726 -0.0481
18944W        W38478   3.175   9.189   2.899  0.2705 -0.0556  0.0708
18945W        W38479   9.172  17.407  12.711 -0.0029 -0.0435  0.1002
18946W        W38480  17.661  12.247  14.710 -0.1490 -0.1251 -0.1186
18947W        W38481   0.164   8.678  15.037 -0.2616  0.4562  0.3222
18948W        W38482  10.086  14.073  13.006  0.1276 -0.0488 -0.0541
18949W        W38483  12.613  13.484  14.870 -0.0595 -0.3592 -0.3028
18950W        W38484  13.272   9.047  14.658 -0.0700  0.2853  0.1143
18951W        W38485   4.499   0.923   4.856 -0.0987  0.2362  0.0420
18952W        W38486   8.996  15.883   0.383 -0.0801 -0.1249  0.2300
18953W        W38487   3.246   2.404  13.048 -0.3398  0.0070 -0.0439
18954W        W38488   5.965   6.481   4.142 -0.0337 -0.0679  0.3528
18955W        W38489  10.758  14.645  13.933  0.1423 -0.1072  0.1327
18956W        W38490   2.443   1.695  12.775  0.0143  0.0217  0.0589
18957W        W38491  14.176   0.085   0.012  0.0977  0.2003  0.1133
18958W        W38492   1.975  13.264   4.315 -0.0444  0.1730  0.0090
18959W        W38493   8.039   5.164   2.482 -0.0269 -0.0343 -0.1046
18960W        W38494   4.122  15.735   3.745 -0.0139 -0.3944 -0.2134
18961W        W38495  15.876  10.325  14.367 -0.1134 -0.0479  0.2301
18962W        W38496  16.940   5.457  16.128  0.1252 -0.0211 -0.1807
18963W        W38497  17.151   0.045  13.813  0.0054 -0.2350  0.0022
18964W        W38498   0.794  15.751  12.958 -0.1924  0.1712  0.0820
18965W        W38499  13.237   5.106  15.002  0.0355  0.2111  0.3362
18966W        W38500  10.773   8.737  15.301  0.2231  0.1732 -0.0740
18967W        W38501  10.852  12.832   3.037 -0.1701 -0.1355  0.1645
18968W        W38502  17.138   4.220   5.227  0.2910  0.0070  0.1788
18969W        W38503   8.339   1.001  13.192 -0.1312  0.2220 -0.1144
18970W        W38504   5.539  12.556  14.254 -0.1546  0.0681 -0.3349
18971W        W38505  13.530  12.126  14.166 -0.0355  0.1564  0.0175
18972W        W38506   2.840   9.221  13.338  0.1807 -0.0129  0.1980
18973W        W38507   4.200  10.569   1.318  0.0671 -0.0651  0.0857
18974W        W38508   5.638   5.908  14.793  0.0592 -0.1320 -0.1244
18975W        W38509  17.643  16.409  14.790  0.1258 -0.2351 -0.0151
18976W        W38510   4.518   8.982   4.878  0.0931 -0.1520 -0.0419
18977W        W38511   4.099  12.800  14.400 -0.0574  0.1285  0.2596
18978W        W38512  16.813   5.918   1.074  0.0672  0.3395  0.1067
18979W        W38513  15.505   6.278  15.258  0.1118 -0.0708  0.0388
18980W        W38514  15.195   4.807  12.565  0.2815  0.0563  0.0145
18981W        W38515  11.005  16.722  12.833  0.1010 -0.0884 -0.5298
18982W        W38516  14.121  14.439   4.413  0.1880  0.1282  0.1076
18983W        W38517   7.644  12.211   0.248  0.1848 -0.1771 -0.1706
18984W        W38518   8.045   0.117  16.583 -0.0419  0.0463  0.1737
18985W        W38519  14.569   6.112  15.272 -0.2051 -0.0635  0.1848
18986W        W38520   3.678   4.728   4.577 -0.0509  0.0967 -0.4209
18987W        W38521   4.036   9.785   4.560  0.0306  0.1962  0.1412
18988W        W38522   1.896  14.915  13.219  0.1471 -0.0571  0.1732
18989W        W38523   0.688   4.136   1.335 -0.1691  0.0112  0.0193
18990W        W38524  15.194  12.161  12.115 -0.0164 -0.0460  0.1094
18991W        W38525   6.550   3.770   4.451  0.1493 -0.0537  0.0096
18992W        W38526  13.729   9.536  12.284  0.2192 -0.1627 -0.1472
18993W        W38527  16.822  15.530  12.533 -0.0458  0.0436 -0.0765
18994W        W38528  15.951   7.666   0.979 -0.0995  0.1663 -0.0376
18995W        W38529   2.339  12.737  14.990 -0.2611 -0.1485  0.1378
18996W        W38530  12.484  11.657  12.122  0.1122 -0.0637  0.4624
18997W        W38531   0.717   2.362  12.667  0.1964 -0.0223  0.1520
18998W        W38532  12.722   1.209   4.438  0.0089  0.1746  0.2245
18999W        W38533   1.837  14.915  14.822  0.2093  0.0697 -0.0241
19000W        W38534   9.929   1.257   3.764 -0.0407 -0.1731  0.1640
19001W        W38535   3.505  10.355  12.290  0.1765  0.2468  0.1813
19002W        W38536   2.362  14.742  16.593  0.1236 -0.2737  0.0028
19003W        W38537   4.411   2.856  15.158  0.0748 -0.1563  0.2442
19004W        W38538   2.309   4.961   0.362  0.1913 -0.0657  0.0945
19005W        W38539   5.436  14.471  15.334 -0.1374  0.1489  0.0628
19006W        W38540   2.997  16.228   2.398  0.0771 -0.0351 -0.3860
19007W        W38541   3.337   9.276  14.307  0.0376 -0.1386 -0.1121
19008W        W38542   1.717  10.520   1.245  0.2383 -0.0237 -0.1194
19009W        W38543   1.653   0.655  12.696  0.0827  0.0008 -0.0363
19010W        W38544  15.385  15.130  13.107 -0.2235 -0.2877  0.2547
19011W        W38545   9.365   3.295   0.526 -0.1474  0.0983 -0.1931
19012W        W38546   3.938   8.783  15.315 -0.2749  0.0632  0.0750
19013W        W38547  11.605  14.392  15.123 -0.2703  0.3479 -0.0439
19014W        W38548  14.955   8.781   4.065  0.0397  0.1982  0.0122
19015W        W38549  12.581  13.794   4.265 -0.1851 -0.0127 -0.3143
19016W        W38550   1.542  16.785  15.296  0.2285 -0.0166  0.0066
19017W        W38551   5.679   6.774   2.472 -0.1439 -0.0956  0.0181
19018W        W38552   6.192  15.109   4.340  0.1773 -0.2505  0.0182
19019W        W38553   5.042   5.646  13.064 -0.1722 -0.0871  0.0567
19020W        W38554  12.418   0.410   2.442 -0.1075 -0.5241 -0.1392
19021W        W38555   5.665  13.918   0.873 -0.0974 -0.1354 -0.0506
19022W        W38556  13.056   1.734  15.640  0.1428  0.0947  0.2882
19023W        W38557   3.741   1.840   0.473  0.1632  0.1081 -0.1650
19024W        W38558   5.765   0.954  15.952 -0.2028  0.3043 -0.0409
19025W        W38559  12.896   8.143  14.561  0.3066 -0.0573  0.2693
19026W        W38560  15.654   3.980   3.882 -0.1451  0.1120 -0.0538
19027W        W38561   4.999   0.952  15.563  0.0415  0.3184 -0.2707
19028W        W38562   0.225  15.589  14.249  0.0120  0.0439 -0.1797
19029W        W38563   4.176   6.795  12.150 -0.2592  0.0529  0.0489
19030W        W38564  10.178   3.539  16.180  0.0723  0.0629 -0.0334
19031W        W38565  12.300   0.948   0.620 -0.3175 -0.1659 -0.3625
19032W        W38566   2.109  10.705   1.959 -0.0348 -0.1232 -0.0746
19033W        W38567  14.314   6.263   3.291 -0.1563 -0.0368 -0.3236
19034W        W38568  17.494   4.272   4.856  0.0443 -0.0246 -0.1514
19035W        W38569   5.164   7.333  14.263  0.2652  0.0237  0.2268
19036W        W38570   8.936   0.846   0.043 -0.0296  0.0016 -0.2123
19037W        W38571  15.289  11.672  14.786  0.0623 -0.4223  0.0870
19038W        W38572   3.441   6.467   2.458  0.4747  0.0375 -0.1501
19039W        W38573   6.414  13.053  11.860  0.2865  0.1590  0.0626
19040W        W38574  13.629   6.741  13.620 -0.0297  0.2392 -0.0433
19041W        W38575   7.390   1.859   4.158 -0.1385  0.1491  0.0156
19042W        W38576   6.255   2.878   1.850 -0.0724  0.2578  0.0236
19043W        W38577   8.883  13.767   1.446  0.0241 -0.1185 -0.0801
19044W        W38578  16.406  17.600   3.553 -0.0094  0.1424  0.1023
19045W        W38579   6.435  13.904  13.743  0.0863 -0.2686 -0.1340
19046W        W38580  15.227  15.261   0.418 -0.1894  0.0362 -0.0480
19047W        W38581   3.189   1.033   4.220 -0.1698  0.1686  0.4156
19048W        W38582   9.016  13.235  12.011  0.0664 -0.1590 -0.3463
19049W        W38583  14.628   3.935   0.084 -0.3343 -0.0883 -0.2215
19050W        W38584   1.916   0.907   0.908 -0.0421  0.3866  0.1943
19051W        W38585  10.851   6.176  16.111  0.2204  0.0292  0.0733
19052W        W38586  12.268  11.710   2.449 -0.1232 -0.3998 -0.0220
19053W        W38587   0.506  17.574  15.406 -0.2422  0.0824  0.0455
19054W        W38588   3.034   3.206  15.821  0.3388 -0.0255  0.1003
19055W        W38589  11.172   6.440   5.910 -0.0744 -0.3396 -0.2671
19056W        W38590  17.390  11.647   4.887 -0.1842 -0.2790  0.1673
19057W        W38591  10.730  11.170  12.838 -0.2211 -0.1966 -0.3458
19058W        W38592  13.845   7.134   1.788  0.0183  0.1058  0.2378
19059W        W38593  10.195   3.605  12.482  0.0587 -0.2240 -0.2379
19060W        W38594  17.550   8.776   2.222 -0.0594 -0.1520 -0.2531
19061W        W38595   2.740   0.224  13.901 -0.2043 -0.0751 -0.3935
19062W        W38596   8.199   2.702   2.335  0.1264 -0.2702 -0.2762
19063W        W38597  16.581   3.512  14.596  0.0344  0.1012 -0.0763
19064W        W38598  13.591   2.388   1.155  0.0468 -0.2166 -0.2505
19065W        W38599   2.957   8.745  13.173 -0.0660  0.2415  0.2479
19066W        W38600  10.488   5.950  15.824 -0.0878  0.2538 -0.0272
19067W        W38601  13.846   2.678  15.516 -0.0808 -0.0428  0.0421
19068W        W38602   5.357   4.467  13.772 -0.1204  0.0656  0.0838
19069W        W38603  12.387  13.737   4.773  0.0390 -0.0699  0.0164
19070W        W38604  17.383   0.612  13.524 -0.3150 -0.4786 -0.2400
19071W        W38605  14.452  11.252  13.830  0.2285 -0.1201  0.0003
19072W        W38606  15.029   6.926  13.249 -0.0412  0.0337 -0.0090
19073W        W38607   9.023  17.004   2.748 -0.0180  0.2023  0.0184
19074W        W38608   3.964  14.502  13.343 -0.0199 -0.0585 -0.0661
19075W        W38609   6.667   8.410  13.982  0.0320 -0.0678 -0.1416
19076W        W38610   5.186   3.438  12.463 -0.0090 -0.1552 -0.1715
19077W        W38611  17.008   6.757  15.990 -0.1869  0.1595 -0.0158
19078W        W38612  14.305   3.326   5.206 -0.0550  0.0334 -0.0605
19079W        W38613  10.230   7.300  14.984 -0.2073 -0.5246  0.2719
19080W        W38614   2.640   3.677   2.316  0.0392 -0.1996 -0.4198
19081W        W38615  13.430   7.845   1.327  0.1252  0.0170  0.1374
19082W        W38616  10.984  11.337  14.925 -0.0482 -0.0889 -0.3224
19083W        W38617   3.059   1.585  13.579 -0.0017 -0.0750  0.3614
19084W        W38618  16.103   1.892   1.563 -0.0537 -0.3739  0.0882
19085W        W38619   1.709   2.829   2.843 -0.0242  0.1499 -0.1438
19086W        W38620   5.628  13.270   4.905 -0.0554  0.0561 -0.1562
19087W        W38621   4.108   8.082  15.621 -0.1292  0.1816 -0.3508
19088W        W38622  16.333   7.097   0.090  0.1848 -0.2168 -0.3137
19089W        W38623   4.918  15.066   1.949 -0.1253 -0.2505  0.0182
19090W        W38624  12.110  14.120   2.391 -0.0695  0.0620 -0.1735
19091W        W38625  14.588   3.941   4.454  0.1474  0.1403 -0.0170
19092W        W38626   5.296  10.688  13.754 -0.1076  0.0280  0.1037
19093W        W38627   9.768  16.463  13.301  0.2375 -0.1237 -0.2725
19094W        W38628  13.369   2.379   0.645  0.1250 -0.0790  0.2187
19095W        W38629  16.337  16.256   2.567  0.2273  0.0376  0.0707
19096W        W38630   4.614   7.189  15.138 -0.3437 -0.1648  0.2757
19097W        W38631  12.754  15.855   4.589  0.3440  0.0417 -0.0666
19098W        W38632   6.805   4.231  13.841 -0.2190 -0.2061  0.1164
19099W        W38633   1.180   6.986  15.996 -0.0287 -0.1965 -0.1173
19100W        W38634   8.933  14.916  16.999 -0.0191  0.1027 -0.0424
19101W        W38635   3.233   5.739   4.016 -0.2268  0.1105 -0.1413
19102W        W38636   7.305   8.070   3.537  0.1876  0.3436  0.1662
19103W        W38637  17.534  11.684   0.701 -0.2461 -0.0000  0.0036
19104W        W38638  17.092   8.270  17.029  0.1005 -0.0356  0.0793
19105W        W38639  12.241  14.048  13.402  0.2012 -0.0990 -0.0607
19106W        W38640   2.105  15.586  12.727  0.1323 -0.0020 -0.2665
19107W        W38641   3.337   6.853  12.983  0.1485 -0.1555 -0.0069
19108W        W38642   2.015  17.432  16.305 -0.2684 -0.0235 -0.3306
19109W        W38643  13.201   7.673   5.967  0.4955 -0.1364  0.0135
19110W        W38644   7.577  11.437  13.293 -0.0021 -0.1039  0.1750
19111W        W38645  11.147   5.445   4.372 -0.1165 -0.1084 -0.1443
19112W        W38646   4.750   1.261  14.718  0.0125  0.0072 -0.1948
19113W        W38647   5.766   5.223   0.316 -0.3809 -0.0919 -0.0827
19114W        W38648  12.841   2.609  15.407  0.0530 -0.0925 -0.2160
19115W        W38649   4.600  13.104   3.868 -0.2510 -0.0200  0.0820
19116W        W38650   7.408   9.240  12.762 -0.2341  0.0571  0.2198
19117W        W38651   0.987   5.387   0.684  0.1766  0.1820 -0.0070
19118W        W38652  12.410   2.469  16.783 -0.1039  0.0087 -0.0872
19119W        W38653   5.264   9.977   2.424 -0.3151  0.1349 -0.1305
19120W        W38654   7.518  15.544  16.000 -0.2509  0.1205 -0.0320
19121W        W38655   4.366   3.728  16.642 -0.0812 -0.1615 -0.2766
19122W        W38656   7.423  13.480   3.988 -0.0393 -0.0999  0.0537
19123W        W38657   7.883  16.324   3.397 -0.0570 -0.1114  0.0357
19124W        W38658   1.824   3.478  16.594  0.2279 -0.2407  0.3834
19125W        W38659  13.646   4.261   4.551 -0.0145 -0.0586 -0.2105
19126W        W38660  13.849  10.610   5.774  0.0567 -0.1295 -0.1378
19127W        W38661   7.527  14.021  14.368  0.0373  0.0518 -0.0475
19128W        W38662   5.295   3.862  15.471 -0.2060  0.0969  0.0940
19129W        W38663   1.431   7.130  15.582 -0.0767 -0.0086  0.3818
19130W        W38664   6.658   7.390  14.033 -0.0642 -0.2905 -0.0856
19131W        W38665   7.625   9.987  12.639 -0.1936  0.0862  0.1128
19132W        W38666  10.886  11.928  15.293  0.3130 -0.1905  0.0668
19133W        W38667  16.025   0.124   1.306 -0.1198  0.0430  0.0143
19134W        W38668  13.182  15.257  13.110 -0.1032 -0.2326  0.1746
19135W        W38669  14.672   9.172   2.296  0.1454  0.3097  0.3225
19136W        W38670   5.969   5.358   2.389  0.1209 -0.0200 -0.1050
19137W        W38671  13.378   2.575   5.289 -0.1570 -0.1089 -0.0299
19138W        W38672   0.359   0.985  12.669 -0.2300 -0.1861  0.1062
19139W        W38673  10.952   2.712  14.901  0.0639 -0.2217 -0.0490
19140W        W38674  12.382   2.136  13.755  0.0864  0.2670  0.1523
19141W        W38675  17.651   8.665  12.795  0.4106  0.2498  0.0853
19142W        W38676   3.615   6.440  16.836  0.4000 -0.4481 -0.1499
19143W        W38677   3.503   2.602   2.360  0.2432 -0.5192  0.1013
19144W        W38678   5.567  10.388   1.614 -0.4217  0.1231  0.3323
19145W        W38679   1.535   2.179   3.019  0.0597  0.2554 -0.2027
19146W        W38680   8.727   3.981   4.817 -0.5752  0.0319 -0.1494
19147W        W38681  15.541   4.382  14.713  0.5249 -0.1521 -0.0803
19148W        W38682  14.501  16.869   1.576 -0.0008  0.1470  0.1367
19149W        W38683   9.537   2.911   3.082  0.2216  0.1961 -0.1633
19150W        W38684  10.001   7.054  16.074 -0.2131  0.0909  0.2152
19151W        W38685   3.807   2.716   4.455  0.0501  0.1039 -0.1233
19152W        W38686  10.251   7.926  13.114 -0.0267  0.2706 -0.3065
19153W        W38687   6.550   3.303  14.473  0.0163  0.0810 -0.1503
19154W        W38688   3.601  15.626   2.133  0.3935 -0.0956  0.1323
19155W        W38689   7.717  12.412   4.714 -0.1858 -0.1584  0.0729
19156W        W38690   6.986   7.459   1.480  0.0187 -0.0459 -0.0121
19157W        W38691   6.670   3.382  12.623 -0.0803  0.1334  0.1181
19158W        W38692  11.161   6.222  13.929  0.1652 -0.0967 -0.0525
19159W        W38693   5.790   3.142  14.935  0.0907  0.0055  0.2818
19160W        W38694  16.128  12.344  13.800 -0.3506  0.0128 -0.0575
19161W        W38695   2.428   3.244   2.930 -0.2243  0.0842  0.2323
19162W        W38696   7.407  14.361   0.241  0.3272  0.0319  0.0349
19163W        W38697   0.340   8.220   2.661 -0.1657  0.0307 -0.2981
19164W        W38698  11.900  13.116   1.102 -0.2421  0.1175 -0.0086
19165W        W38699   7.363  10.435  16.530  0.1476 -0.4146  0.0327
19166W        W38700   3.626   1.744  14.591 -0.1119 -0.0579  0.0259
19167W        W38701   8.262   3.024   0.660 -0.1074  0.0506  0.0096
19168W        W38702  14.630   1.347  14.398 -0.0009 -0.1034  0.4219
19169W        W38703   9.868   7.064  12.871 -0.1580 -0.0266  0.1020
19170W        W38704   6.001  16.275   0.276  0.3272 -0.0718  0.0388
19171W        W38705   4.719   5.182  15.290 -0.0980 -0.0597  0.0623
19172W        W38706   9.483  12.187  14.217 -0.0415  0.0701 -0.1557
19173W        W38707  14.118  15.819  16.253  0.2716 -0.0325 -0.0805
19174W        W38708  13.511   6.230  12.516 -0.1406  0.1525 -0.1750
19175W        W38709   1.080   8.589  14.137  0.0094 -0.0654  0.5631
19176W        W38710   4.260   5.326  12.215 -0.3391  0.0783 -0.3062
19177W        W38711  15.239  11.546  14.237  0.0273 -0.1035  0.2247
19178W        W38712  10.024  15.149   3.516 -0.0383 -0.1429 -0.1056
19179W        W38713  16.776   9.414   1.959  0.3285 -0.0831  0.4199
19180W        W38714   4.434  11.487  13.907 -0.0421 -0.0711 -0.2087
19181W        W38715   0.184   8.063   3.187  0.0209  0.0994 -0.3365
19182W        W38716  10.090  13.079  13.559  0.1229 -0.1315  0.3353
19183W        W38717  12.994   6.629   2.632  0.0992 -0.0695 -0.1689
19184W        W38718  15.884   2.346  12.959  0.1846 -0.0485  0.0858
19185W        W38719  10.396  10.615  16.709  0.0559  0.0067  0.0714
19186W        W38720  10.651  17.565  13.617 -0.0808 -0.0116 -0.0842
19187W        W38721   8.887  13.917  13.139 -0.2184 -0.1354  0.1056
19188W        W38722   5.203   3.437   3.647 -0.2448 -0.0536 -0.2216
19189W        W38723  13.473  16.132   4.994 -0.2035  0.0662 -0.0328
19190W        W38724  14.024  12.371   4.871  0.4574 -0.1018 -0.0266
19191W        W38725   2.998  12.529  16.754 -0.2239 -0.0339  0.1922
19192W        W38726  10.830   2.336   1.600 -0.1021  0.0432  0.0005
19193W        W38727   2.156   5.085  15.577 -0.2034  0.1594 -0.0833
19194W        W38728   8.785   3.172   0.679  0.2485 -0.2866 -0.0873
19195W        W38729   8.293  11.354   0.290  0.1993  0.0431  0.3475
19196W        W38730   8.118  11.869   3.014  0.1766  0.3285  0.0774
19197W        W38731   7.469  13.291   2.764  0.0220  0.2024  0.3079
19198W        W38732  14.596  16.091   5.091 -0.0073 -0.2739  0.1353
19199W        W38733   1.245   9.796   2.593 -0.0262 -0.0117 -0.3533
19200W        W38734   6.662   7.180   4.193 -0.0787  0.1490  0.2598
19201W        W38735  11.759   8.867  15.685  0.0893 -0.1431  0.1428
19202W        W38736  15.039   0.443   1.222 -0.1668  0.1322 -0.2664
19203W        W38737   4.862  16.123   4.456 -0.1541  0.3395  0.1308
19204W        W38738  13.505  10.119   2.931  0.1881 -0.2599  0.1552
19205W        W38739   3.160   9.222   2.345 -0.0913  0.0554 -0.0759
19206W        W38740   1.594  11.579   2.848 -0.0046  0.1744  0.0923
19207W        W38741   9.126   9.592  12.265 -0.0231  0.1579  0.1362
19208W        W38742   1.125   9.042   3.591 -0.0051 -0.2691 -0.1832
19209W        W38743  15.357  15.776  14.018  0.0239 -0.1573  0.0563
19210W        W38744   1.992  11.577  13.508  0.0709 -0.0839  0.0231
19211W        W38745   8.341   5.669   0.160  0.1419 -0.1195  0.1816
19212W        W38746   3.770   6.211   0.781 -0.2703  0.0244  0.3389
19213W        W38747  17.249  16.059  14.847 -0.3152  0.1045 -0.3753
19214W        W38748  10.516  10.509   3.629 -0.3197 -0.5224  0.1549
19215W        W38749  17.461   5.849   2.865  0.0372  0.1245  0.2100
19216W        W38750  12.601  15.246  17.045  0.0268 -0.0550 -0.2704
19217W        W38751  10.525  12.536  15.337  0.1006  0.1560  0.0520
19218W        W38752   0.531   8.039  14.392  0.1413 -0.0500  0.3574
19219W        W38753   7.603   0.256   1.449  0.2808 -0.1314  0.0895
19220W        W38754  16.681   0.456   3.431  0.1404 -0.2641  0.1444
19221W        W38755   2.400  16.380   4.731  0.1215  0.0431 -0.0965
19222W        W38756  10.012   3.826   3.911 -0.2306 -0.0091  0.0496
19223W        W38757   4.294  16.025   2.386  0.0801  0.0625 -0.1987
19224W        W38758  16.299  12.523   1.774  0.2821 -0.3175  0.0858
19225W        W38759   3.470  11.247  12.797 -0.0540  0.2824  0.1826
19226W        W38760   8.936  15.400  14.062 -0.3944  0.2093 -0.0217
19227W        W38761   3.460   2.161  16.746 -0.0521 -0.0078 -0.1319
19228W        W38762  12.833  17.362   0.282 -0.1735  0.1426 -0.2634
19229W        W38763  15.815   2.864   4.941 -0.3170  0.2481 -0.0934
19230W        W38764   5.656  14.732  15.894 -0.1969 -0.2157 -0.0441
19231W        W38765  17.646   7.711  13.057  0.2357 -0.1013  0.1808
19232W        W38766   7.944  11.182  15.759 -0.3426  0.4102  0.0478
19233W        W38767  14.170   3.752  15.234 -0.0726  0.1684  0.0862
19234W        W38768   6.299   2.549   4.823 -0.3104  0.0167 -0.0639
19235W        W38769  10.209   9.296  17.019  0.0551  0.1239  0.0908
19236W        W38770  12.573  12.554  16.642 -0.0384 -0.1067 -0.0059
19237W        W38771   7.763  16.052  16.740  0.0487  0.0078  0.3306
19238W        W38772   9.511  10.520  11.262  0.0453  0.1370 -0.2234
19239W        W38773  11.063  15.102   4.113 -0.0705 -0.1011  0.3813
19240W        W38774   5.212  11.071  15.844  0.2264  0.1685 -0.1842
19241W        W38775  15.306  15.335  15.748  0.1030  0.1481  0.1009
19242W        W38776   7.156  15.620   4.096  0.1318 -0.0641 -0.0817
19243W        W38777  10.894   4.687   1.671  0.1393 -0.1294  0.1213
19244W        W38778  10.343   7.557   0.213  0.1188 -0.0981 -0.1474
19245W        W38779  11.772   3.086  16.290 -0.0492 -0.0508  0.0953
19246W        W38780   4.043   5.483   3.583  0.2924  0.0964 -0.1989
19247W        W38781  12.575   0.006   2.790 -0.0145  0.1031  0.1032
19248W        W38782   8.438  17.220  12.102  0.1006 -0.0116 -0.1078
19249W        W38783  15.633   5.984   0.580 -0.1844  0.0011 -0.0702
19250W        W38784  13.537  13.251  14.160 -0.0851  0.1114 -0.0633
19251W        W38785  17.602   2.089  13.242  0.1946 -0.1455  0.1278
19252W        W38786   7.974   5.500  16.814 -0.1158 -0.1740 -0.1766
19253W        W38787   6.334   5.775  15.506  0.2226  0.0134 -0.2166
19254W        W38788  17.566   2.673  13.129  0.2036 -0.1838  0.1620
19255W        W38789   7.714   7.659  16.103 -0.2341  0.1980  0.1893
19256W        W38790   1.936  12.690   0.797  0.1483  0.2362  0.1526
19257W        W38791  11.104  17.259  14.239  0.2743 -0.3937  0.1869
19258W        W38792   7.238  10.677  13.770 -0.1088 -0.0599  0.0353
19259W        W38793   8.702  12.097   1.797 -0.2630 -0.0523  0.0718
19260W        W38794   8.167   8.910  16.553 -0.1669  0.1699 -0.0004
19261W        W38795   7.111   9.010   3.924  0.0273 -0.0805  0.0115
19262W        W38796   0.261  13.191  12.752 -0.2303 -0.1035 -0.0746
19263W        W38797   0.651   3.979  16.503  0.0280  0.3582 -0.0768
19264W        W38798   7.951  17.266  15.802 -0.1977  0.1686  0.3145
19265W        W38799  14.158  10.328   2.011 -0.0379 -0.2326 -0.0888
19266W        W38800   1.770   7.480  13.362 -0.0965 -0.0681  0.1975
19267W        W38801  11.259   2.916   5.256 -0.0712 -0.3265  0.0219
19268W        W38802  17.236   1.059   3.408  0.2689  0.0315 -0.0848
19269W        W38803   0.956   6.747  12.639  0.3766  0.0937  0.0114
19270W        W38804  13.298   7.897  15.551 -0.2884  0.3470  0.0781
19271W        W38805  13.170   2.640  12.848 -0.0946 -0.0257 -0.1724
19272W        W38806  15.128  12.437   1.236 -0.2102  0.0726 -0.0983
19273W        W38807  14.053   4.592  16.076  0.2122 -0.0520  0.1928
19274W        W38808   2.379   0.463  13.621  0.4093  0.1050 -0.2966
19275W        W38809  12.515  14.164  12.968  0.0182  0.2235  0.0143
19276W        W38810   3.494  17.277   1.399  0.0211  0.1273  0.1022
19277W        W38811  15.025   3.101   2.843  0.0585  0.0623 -0.1530
19278W        W38812  17.540   1.424  16.538 -0.3309 -0.1841 -0.0215
19279W        W38813  10.337   1.808  15.308  0.2407 -0.2467  0.1563
19280W        W38814   0.073   5.478   3.709  0.1027 -0.1825  0.0060
19281W        W38815   0.930   0.251   0.502  0.1515 -0.0743  0.1553
19282W        W38816   0.371   5.766  13.708 -0.1771  0.3064  0.1368
19283W        W38817   6.826  16.243  16.894 -0.3387  0.0146  0.0525
19284W        W38818   1.122   9.499  14.456  0.2333 -0.2359  0.0799
19285W        W38819  13.060   5.663   3.790  0.1172 -0.1504 -0.3188
19286W        W38820   5.726   2.935  13.069 -0.2138  0.0957  0.0685
19287W        W38821  12.601   0.495   1.835  0.1918  0.0169 -0.1362
19288W        W38822   4.542  11.661   3.306 -0.1410 -0.1528  0.2795
19289W        W38823  12.995  10.114   2.508 -0.1603 -0.0885  0.0853
19290W        W38824   8.740  15.324  15.245  0.1554 -0.2898 -0.1325
19291W        W38825  13.794   3.815   4.796  0.1779  0.0019 -0.2658
19292W        W38826   9.638  12.275   1.942  0.3049  0.3394 -0.0251
19293W        W38827   5.032  13.178  12.668 -0.1148 -0.0204 -0.0750
19294W        W38828   4.758  14.493   3.211 -0.0335 -0.1150  0.2331
19295W        W38829   2.872   4.320  17.061 -0.3169  0.0765  0.0429
19296W        W38830  17.185   7.481  12.129  0.1362  0.0547  0.0577
19297W        W38831  15.752  16.902   3.494  0.0481 -0.1833  0.0834
19298W        W38832  16.715   8.462  16.684  0.1211  0.1407 -0.0372
19299W        W38833  15.271  12.053   0.989  0.3499 -0.1256  0.0469
19300W        W38834   9.447   6.172  14.898  0.4363  0.1374 -0.0029
19301W        W38835   2.127   6.329  14.117  0.1624  0.0755  0.2327
19302W        W38836   9.891   6.356  16.965  0.0188  0.2626 -0.2691
19303W        W38837   9.566   7.703   4.672 -0.1556  0.2092 -0.0294
19304W        W38838  12.456  15.589   0.949  0.1179 -0.2370  0.1927
19305W        W38839  16.573   6.255  13.283 -0.2938  0.2421 -0.2444
19306W        W38840   2.497   5.992  12.390 -0.3786  0.0706 -0.0251
19307W        W38841   7.555   7.915  13.924  0.0708  0.0010  0.2046
19308W        W38842   4.752   0.898  15.084 -0.4431 -0.0858  0.1257
19309W        W38843   2.837   5.354   3.903  0.2361  0.0318  0.0057
19310W        W38844   9.087   9.685   3.053 -0.0234  0.0935 -0.2813
19311W        W38845   2.930  13.913   3.855  0.1651 -0.2972 -0.0487
19312W        W38846  13.590  13.362  16.411 -0.1331  0.0062 -0.1219
19313W        W38847   8.318   5.680  14.776  0.2336  0.1134  0.1415
19314W        W38848   0.313  16.035   3.815 -0.0904  0.0880 -0.0157
19315W        W38849   8.730  15.993  12.822  0.0217  0.0592 -0.0572
19316W        W38850  13.277  10.487   2.189 -0.3661 -0.0847 -0.0853
19317W        W38851  11.073   5.910   5.135 -0.0729 -0.1154  0.0213
19318W        W38852   6.841  16.544   0.698  0.1538 -0.6139  0.2499
19319W        W38853  13.338   3.012  16.079 -0.0022 -0.2537  0.2025
19320W        W38854   4.433   1.044  16.013 -0.1962 -0.0899 -0.1096
19321W        W38855   0.117   0.451   2.235  0.1532  0.0586 -0.2788
19322W        W38856   0.193  13.043  13.666  0.3375 -0.2513  0.1650
19323W        W38857  12.116   7.328   3.627 -0.0493 -0.0830  0.0000
19324W        W38858   0.600   6.530   0.043 -0.0108  0.2429  0.3957
19325W        W38859  14.464   0.709   2.851 -0.2084 -0.0530 -0.1941
19326W        W38860   0.258  17.494   1.529  0.2865  0.0691 -0.1309
19327W        W38861   1.919  13.587   2.192 -0.4600 -0.1592  0.1093
19328W        W38862   0.016   0.803   1.866  0.0366 -0.0816  0.1230
19329W        W38863   7.179   1.810  14.142  0.2510 -0.0989  0.0869
19330W        W38864   1.878   6.193  14.807  0.1375  0.2552  0.1287
19331W        W38865   8.340  10.169   1.085  0.0756 -0.0964 -0.0377
19332W        W38866  16.402  14.428  12.322 -0.0099 -0.0604 -0.2390
19333W        W38867   0.179  15.445  14.961 -0.1597  0.0281  0.0256
19334W        W38868   0.488  14.679  12.909  0.3324 -0.0202 -0.3911
19335W        W38869   9.249   3.444  16.565  0.0444 -0.0486  0.1680
19336W        W38870   7.757   4.799  12.055 -0.2265 -0.4589  0.3028
19337W        W38871  12.295   1.907  14.820  0.0684 -0.1521 -0.4242
19338W        W38872   0.343   2.532  13.014 -0.1663 -0.0838  0.0077
19339W        W38873   3.058  12.272  15.942  0.0156  0.1760  0.1474
19340W        W38874   3.815  16.093   1.060 -0.4335 -0.0531 -0.2990
19341W        W38875   8.170  10.804  15.354  0.0336  0.4799 -0.1972
19342W        W38876  15.633   4.181  17.036  0.3271  0.1836 -0.1340
19343W        W38877   8.793   2.836  15.283  0.2086  0.2080  0.0876
19344W        W38878   6.022   6.873   4.852 -0.0044 -0.6614 -0.1264
19345W        W38879   4.399   2.296  16.767  0.0541  0.0717  0.2584
19346W        W38880   0.634   9.431   2.895  0.1809  0.3009 -0.0313
19347W        W38881  12.297   5.639   0.804  0.0877  0.0964 -0.3695
19348W        W38882   6.306   1.590   2.732 -0.0359 -0.3184 -0.2832
19349W        W38883  10.341  14.484  16.137  0.2310 -0.1134  0.2575
19350W        W38884  17.041   4.527  14.559 -0.1096  0.1085 -0.3181
19351W        W38885   7.168  11.425   4.562 -0.1098  0.2135  0.0950
19352W        W38886  12.017   6.289   0.655  0.1222 -0.3329 -0.0469
19353W        W38887  16.429   0.144  13.359  0.1280 -0.1201 -0.4104
19354W        W38888   3.986  10.135  12.211 -0.0752  0.1613 -0.1243
19355W        W38889   9.655   2.854  13.900 -0.2159 -0.1754  0.2274
19356W        W38890  15.175   9.884  16.844  0.0227  0.2156  0.0327
19357W        W38891   3.587   5.963   0.387 -0.1028 -0.0935 -0.0419
19358W        W38892   0.755  17.614  13.322  0.1274  0.0241 -0.2459
19359W        W38893   3.319   8.066  13.667 -0.0104 -0.0809  0.1816
19360W        W38894   4.258  12.791   0.600  0.2402 -0.0825 -0.4568
19361W        W38895   4.632  15.777   0.536  0.0767  0.1123 -0.4316
19362W        W38896   7.878   3.236  13.664  0.2511  0.0154  0.0116
19363W        W38897   3.930   2.090   3.681  0.0685  0.3073 -0.2751
19364W        W38898  17.604   0.251   1.734 -0.4095  0.0978  0.1556
19365W        W38899  16.157  17.600  15.212 -0.0328  0.0081 -0.2707
19366W        W38900   4.777   5.412  16.080  0.1364 -0.1501  0.0398
19367W        W38901  14.365  12.851   1.138 -0.0094  0.2631  0.0890
19368W        W38902  14.286  13.418  14.756  0.2143 -0.0274 -0.2073
19369W        W38903   5.414  14.681  14.873 -0.0384 -0.1263  0.0277
19370W        W38904  14.528  16.380   3.299  0.2098 -0.0501  0.2793
19371W        W38905  15.687  13.891  11.955  0.0098 -0.0483 -0.4552
19372W        W38906   1.247  12.845  16.392  0.4149  0.1437  0.0479
19373W        W38907   0.686  13.610   4.390  0.1404  0.5458 -0.0782
19374W        W38908   0.878   2.715   2.594  0.0861  0.0491 -0.3008
19375W        W38909  10.787  16.066  15.613 -0.2229  0.0804 -0.3172
19376W        W38910  10.433  11.195   2.977  0.0472  0.0691  0.1960
19377W        W38911   5.699   7.100   5.183 -0.3558  0.0465 -0.2691
19378W        W38912  16.117   3.110  12.989 -0.0508  0.0464 -0.1617
19379W        W38913   4.680   3.089   3.094 -0.0647  0.1371 -0.1384
19380W        W38914   1.323   3.477   5.073  0.1874 -0.2746  0.3889
19381W        W38915   7.845  12.492   2.261 -0.3621  0.2095 -0.0340
19382W        W38916   3.755   4.873  13.918 -0.1707  0.0850 -0.0169
19383W        W38917   7.613   6.844   1.197  0.1578 -0.0366  0.1559
19384W        W38918  15.809   6.262  13.934 -0.0754 -0.0421  0.3060
19385W        W38919   8.447   8.148   2.784 -0.3682 -0.0799 -0.1560
19386W        W38920  12.161   5.562  16.592 -0.0890 -0.1793 -0.0401
19387W        W38921  10.760  13.514   3.795 -0.0478 -0.0923  0.0301
19388W        W38922   2.762  12.932   1.048 -0.0860 -0.1836 -0.1864
19389W        W38923   9.344   1.631   2.960 -0.0968 -0.0432  0.1010
19390W        W38924   7.816   6.253   0.349 -0.1727 -0.1823  0.0264
19391W        W38925  13.852  12.620  15.719  0.1100  0.1624 -0.0973
19392W        W38926   0.706  12.403  15.580 -0.3974 -0.1323 -0.1708
19393W        W38927  14.529  11.205   0.519 -0.0901  0.2715  0.0937
19394W        W38928  11.319  11.038  15.157  0.0304 -0.0001  0.0837
19395W        W38929   2.943   6.201   2.898  0.0276 -0.1396 -0.0691
19396W        W38930   4.604  13.142   1.440  0.0119 -0.0765  0.1924
19397W        W38931   9.600  17.494  12.265 -0.3716  0.0734  0.2569
19398W        W38932  12.613   3.245  13.590 -0.0047  0.1140 -0.1354
19399W        W38933  10.309  11.902   5.142 -0.0097  0.0131 -0.1339
19400W        W38934   6.320  15.363  13.724 -0.3069 -0.1448  0.0765
19401W        W38935  11.543   8.638  14.732 -0.0288 -0.0643 -0.0888
19402W        W38936   5.382  10.923  15.395 -0.2246 -0.2829  0.0275
19403W        W38937   7.097   9.687   1.716 -0.0803 -0.1089  0.1157
19404W        W38938  16.922   9.442  14.364  0.0877  0.1787  0.1722
19405W        W38939   5.901  10.514  15.313  0.1535  0.0218 -0.3161
19406W        W38940  14.163   8.112   3.893  0.3784 -0.1582  0.0397
19407W        W38941  12.222   2.268   0.587 -0.1108 -0.0769  0.1914
19408W        W38942   4.211   7.845   3.914  0.1030 -0.0636 -0.0817
19409W        W38943  12.440   7.454   4.006 -0.1139 -0.1201  0.0961
19410W        W38944  16.384  12.910   4.503 -0.2009  0.1204 -0.0158
19411W        W38945  12.686   0.279   3.434 -0.3854 -0.1090 -0.4846
19412W        W38946   4.229  14.243   4.113 -0.0674  0.1557  0.0394
19413W        W38947  11.077   9.580  14.738  0.1907 -0.0433  0.1030
19414W        W38948   5.005  15.380   2.309  0.1431 -0.0324 -0.2712
19415W        W38949  16.363   1.744  15.615 -0.1966 -0.2750 -0.0831
19416W        W38950   1.768   2.103  16.408 -0.1442 -0.0900 -0.0406
19417W        W38951  10.165  14.019   0.352  0.1307  0.1553 -0.0166
19418W        W38952   3.740   5.707   2.743 -0.0851 -0.1567  0.0715
19419W        W38953   0.114   1.238  13.135  0.1872  0.1577 -0.2863
19420W        W38954  16.545  16.541  13.789  0.1126 -0.0536 -0.0571
19421W        W38955  15.855  10.192   2.641  0.1236 -0.2236 -0.2147
19422W        W38956   8.096   1.435  15.217 -0.0488 -0.0132 -0.2373
19423W        W38957   8.204   5.099  15.611  0.0562  0.0730 -0.1677
19424W        W38958  13.244   6.935  13.154  0.3155  0.0366 -0.0941
19425W        W38959   3.910   3.389  11.981 -0.4258 -0.1158  0.3943
19426W        W38960   8.366   0.489  14.643 -0.0348  0.0558  0.0121
19427W        W38961   9.558  12.962   0.665  0.0409  0.0599 -0.0912
19428W        W38962  13.706   2.358  15.993 -0.0040  0.1475 -0.1682
19429W        W38963   9.920   1.142  12.287 -0.1256  0.2199  0.0803
19430W        W38964   3.279   4.683  14.840 -0.1104  0.2064 -0.1371
19431W        W38965  16.394   8.443  12.465 -0.1944 -0.2071 -0.3303
19432W        W38966   4.783  15.830   2.545  0.1133 -0.2958 -0.4074
19433W        W38967  12.530  10.611   4.664 -0.2098  0.2807  0.0689
19434W        W38968  16.149   2.593   0.497 -0.1924 -0.0063 -0.2047
19435W        W38969   3.030   7.010  14.903  0.1751  0.0620 -0.0384
19436W        W38970   9.781   4.787   0.150 -0.0589  0.1706 -0.1546
19437W        W38971  15.116   4.478  15.868  0.0688 -0.4852 -0.3003
19438W        W38972  12.906  13.551  15.807  0.0416 -0.3115  0.1079
19439W        W38973  12.794   0.730  15.529  0.1054 -0.1128 -0.0015
19440W        W38974  12.097   5.703  14.315 -0.0981  0.1878  0.0005
19441W        W38975  14.921   1.415   2.790  0.1544  0.0431  0.3001
19442W        W38976  16.895   5.718  12.703  0.1360  0.2288  0.0845
19443W        W38977  11.054   0.413   0.743 -0.0818 -0.2369  0.1234
19444W        W38978   5.472   0.797   3.392  0.0961 -0.0037  0.3322
19445W        W38979  14.657  17.624   1.995 -0.1430  0.0409  0.1595
19446W        W38980   0.811  17.300  14.639 -0.0411  0.1211 -0.0376
19447W        W38981   7.271  13.621   3.093  0.0182 -0.2580  0.0908
19448W        W38982  10.187   8.413   2.831 -0.1125  0.1009 -0.1058
19449W        W38983  16.968  17.126  14.135 -0.0417  0.3341 -0.0878
19450W        W38984   3.813   9.966  14.601  0.1831 -0.1414  0.2085
19451W        W38985  13.818   5.931  14.676  0.0335 -0.0245 -0.0614
19452W        W38986   6.452   3.744   2.905 -0.0227  0.1450 -0.1235
19453W        W38987  13.195   8.040   4.524 -0.1635  0.0864 -0.0295
19454W        W38988  12.574  10.004   2.729  0.0026 -0.1633  0.1606
19455W        W38989   2.362  12.653   1.075 -0.1373  0.2477  0.0794
19456W        W38990   9.681   7.135  16.578  0.1029 -0.0973  0.1015
19457W        W38991  11.081   6.745  12.915 -0.0250  0.3453  0.1091
19458W        W38992  17.106   9.063  15.664  0.0957 -0.0949 -0.2646
19459W        W38993   7.474   2.810  15.772  0.1919  0.1661  0.0941
19460W        W38994  17.035  16.416   0.038  0.0746 -0.3941 -0.2110
19461W        W38995  17.506   5.366   1.280 -0.0707 -0.2605 -0.0437
19462W        W38996  15.935   8.644  15.124 -0.0595 -0.0899 -0.1559
19463W        W38997   5.325  17.000  15.349  0.0086 -0.2382  0.2444
19464W        W38998  11.345   2.019   1.023  0.2233  0.0085  0.1040
19465W        W38999  12.998  13.122   1.315  0.2044  0.4486 -0.4209
19466W        W39000   8.306   4.235  15.756 -0.2012 -0.2053  0.0710
19467W        W39001   4.309  11.804  16.503 -0.0455  0.0244  0.0152
19468W        W39002  14.667  17.191  16.090 -0.0509 -0.1196 -0.1512
19469W        W39003  11.441   5.053  15.231 -0.1486 -0.0651  0.1308
19470W        W39004  10.370   3.334  17.011  0.0740 -0.2176  0.3071
19471W        W39005   3.808  16.558   0.849  0.1423 -0.1196 -0.4057
19472W        W39006  14.566  12.957  14.856 -0.0783  0.1655  0.1135
19473W        W39007  14.240  16.073  12.307 -0.2795 -0.2773  0.2298
19474W        W39008  15.557   5.373   4.177  0.0902 -0.2279 -0.0909
19475W        W39009   3.951  11.427  16.660 -0.1365  0.2317  0.0853
19476W        W39010   1.505  10.918  13.127 -0.1098  0.2510 -0.1353
19477W        W39011   3.558  14.588  15.473 -0.1555 -0.1117  0.0018
19478W        W39012   7.845  12.882   2.561  0.0598  0.2594 -0.0163
19479W        W39013   9.312   7.550   0.488 -0.3134  0.0733  0.1475
19480W        W39014  14.283  15.849  12.785  0.2884  0.0545 -0.2058
19481W        W39015  15.877  11.790   1.380 -0.3403  0.1011 -0.0122
19482W        W39016   2.540   9.616   1.342  0.1526 -0.1741 -0.0154
19483W        W39017  15.985   8.454  12.897 -0.3676  0.0634  0.1199
19484W        W39018  16.877  11.366  12.011  0.1864 -0.0861 -0.3165
19485W        W39019   9.018  16.304  17.061  0.0203  0.3063 -0.0404
19486W        W39020  11.628  12.256   0.323  0.0318  0.0960 -0.0934
19487W        W39021   4.417  10.751   0.010  0.1032 -0.1564  0.0304
19488W        W39022   5.150   1.434   1.419  0.1079  0.1048 -0.0112
19489W        W39023   5.373   3.698  13.479  0.1472  0.3287  0.1946
19490W        W39024  14.395  15.328   4.369 -0.1177  0.0262 -0.0446
19491W        W39025   0.397   9.078  15.190 -0.1347 -0.0212 -0.1102
19492W        W39026   2.915  13.149  16.163  0.1798  0.0408  0.1612
19493W        W39027   1.445   1.228   4.318 -0.3417  0.0299  0.0138
19494W        W39028  12.037  13.990  16.814  0.3680  0.3601  0.2928
19495W        W39029   2.051  14.253  15.354 -0.0995 -0.2305 -0.1104
19496W        W39030  16.632  11.260  16.319  0.1726  0.3360  0.1631
19497W        W39031   5.038  11.183   2.908  0.0346  0.1170 -0.0082
19498W        W39032   9.750   9.107  13.662 -0.0502  0.0163  0.0050
19499W        W39033   2.224   9.202   2.479  0.0835 -0.1277  0.0725
19500W        W39034   3.330   4.301  13.130 -0.0349 -0.2713 -0.3045
19501W        W39035   6.834  13.477  16.588  0.0978 -0.2601  0.0601
19502W        W39036   2.632   7.645  13.450 -0.1622 -0.1267 -0.0020
19503W        W39037   1.791   2.362   2.629  0.0143 -0.0351 -0.1064
19504W        W39038   3.069  14.510  15.353 -0.1199 -0.2899 -0.2181
19505W        W39039   5.959  10.994   2.117  0.0243 -0.4318 -0.1662
19506W        W39040  15.435   6.911   0.494  0.0054  0.0860  0.1027
19507W        W39041  14.905  17.497  14.142 -0.1814 -0.0361  0.2708
19508W        W39042   4.071  15.352   1.717  0.0795 -0.1855  0.1885
19509W        W39043  15.293   7.114  13.741 -0.0606 -0.2579  0.2857
19510W        W39044  14.921  14.803  15.171  0.0523 -0.1308 -0.1123
19511W        W39045   5.063  16.547   2.527  0.2202  0.0059  0.2901
19512W        W39046   9.426   3.346   0.030 -0.0375 -0.3448  0.0019
19513W        W39047   6.558   0.517  15.977 -0.0392 -0.1099 -0.0793
19514W        W39048  11.904   4.929  13.971  0.1369 -0.1964  0.2435
19515W        W39049  12.021  17.636  14.769 -0.0695  0.1440  0.0981
19516W        W39050  11.950  16.939   3.747 -0.2360 -0.1001  0.1157
19517W        W39051   4.103   2.901   3.854  0.0644  0.1978  0.1977
19518W        W39052  13.189   5.312   3.389 -0.0931  0.2198  0.1807
19519W        W39053  12.234  13.108   3.236  0.0793  0.2708  0.0478
19520W        W39054  12.491  11.031  14.866 -0.1877 -0.0872 -0.3447
19521W        W39055   4.897  14.702   4.414  0.0542 -0.1159  0.0983
19522W        W39056   2.252   8.632  12.731  0.1891 -0.2811  0.0195
19523W        W39057   7.928   2.794  15.018  0.0328 -0.0523 -0.0750
19524W        W39058  14.361  12.977  14.410 -0.3685  0.0285 -0.1094
19525W        W39059  16.864  13.946  14.818 -0.0857 -0.0093  0.5088
19526W        W39060   1.371   8.933   3.145  0.1846  0.1249 -0.0207
19527W        W39061  15.263   9.210  14.541 -0.0634 -0.1050 -0.0372
19528W        W39062   5.864   7.004  14.651 -0.1533 -0.0165  0.0871
19529W        W39063   8.969   2.298   3.116 -0.0545  0.1954  0.1107
19530W        W39064  15.404   5.672  16.136  0.0617 -0.0496  0.1252
19531W        W39065   6.174   1.840  11.434  0.0765  0.1411  0.1776
19532W        W39066  12.958  17.263   4.756  0.0902  0.0066  0.1524
19533W        W39067   2.119   0.096   1.137 -0.0369  0.3139  0.3256
19534W        W39068   0.829   7.672  13.049 -0.2022 -0.0033  0.0780
19535W        W39069   2.266   0.689  16.986  0.0703  0.0866  0.1283
19536W        W39070   6.392  16.941  15.167 -0.2087 -0.0968 -0.3097
19537W        W39071   8.935   5.160   3.564  0.1565  0.0431 -0.1878
19538W        W39072   2.407  14.492   0.696  0.1266  0.1382 -0.1454
19539W        W39073  13.720   6.405   0.267  0.2732 -0.3423  0.0398
19540W        W39074   9.703  12.889   1.269  0.1382 -0.0329  0.0348
19541W        W39075   5.613   1.691  16.786  0.0291 -0.0291 -0.1308
19542W        W39076   6.474   2.654  15.299  0.2007 -0.2910  0.0872
19543W        W39077   8.112  13.886   4.046  0.1270 -0.5303 -0.3124
19544W        W39078  16.397  11.096   1.042  0.0073  0.0383  0.1072
19545W        W39079   8.262   9.891   0.135 -0.0612  0.3509 -0.0741
19546W        W39080  13.045  11.107  13.566  0.0100 -0.0136  0.2053
19547W        W39081  10.409  15.104   3.248 -0.1928  0.3130  0.0406
19548W        W39082  12.765  12.996   2.101 -0.1688 -0.0666  0.0171
19549W        W39083   8.510  16.425   1.770  0.2373 -0.0910 -0.0370
19550W        W39084   6.743  14.308   4.375  0.0257  0.2224  0.1143
19551W        W39085  17.606   4.968   3.208  0.0239  0.1141 -0.2113
19552W        W39086   0.914   6.038   1.842  0.1723  0.0355 -0.0480
19553W        W39087  11.973   0.379  15.997 -0.3303  0.0003 -0.2893
19554W        W39088  13.977  10.840  12.448 -0.0522 -0.1805  0.1839
19555W        W39089   3.564  17.508  14.256  0.1428  0.2203 -0.1695
19556W        W39090   0.498   3.019   4.709 -0.1208 -0.1057  0.3693
19557W        W39091  10.825   1.177  13.791 -0.1603 -0.0589 -0.1583
19558W        W39092  11.760  14.352   1.698  0.3030  0.0685 -0.0186
19559W        W39093   5.124   7.431  16.679 -0.1313  0.1476  0.0051
19560W        W39094   4.952  10.299   4.597 -0.0381 -0.2255 -0.3532
19561W        W39095  15.045   5.675   2.373 -0.2086  0.0722  0.1605
19562W        W39096   5.271   6.933   3.924  0.0543 -0.0327 -0.1157
19563W        W39097  13.275   0.891   0.729  0.0600 -0.0142 -0.1335
19564W        W39098  11.640  12.309  15.935 -0.4336  0.0316  0.1057
19565W        W39099   5.770  12.911   2.403  0.1436  0.2252 -0.1169
19566W        W39100   1.224  14.508  14.890 -0.1016  0.1225  0.0139
19567W        W39101  16.567   8.593   3.068  0.0449  0.2833 -0.2316
19568W        W39102  15.113   4.973   0.501  0.0678 -0.2532 -0.2812
19569W        W39103  17.572  11.445  16.699 -0.4546 -0.2480 -0.0538
19570W        W39104   2.552   9.906   1.917 -0.0636 -0.1221  0.1654
19571W        W39105  14.607  11.673  14.658  0.0741 -0.2461  0.3238
19572W        W39106   2.307   0.512   0.964  0.1965 -0.3345  0.2164
19573W        W39107   8.809   6.720  14.498 -0.2846  0.3851  0.0079
19574W        W39108  10.676   5.449  15.662  0.0965  0.0928  0.0970
19575W        W39109   5.223  14.818  15.653 -0.1200  0.2634  0.0016
19576W        W39110  13.293   5.575   1.827  0.0946 -0.1199  0.0340
19577W        W39111   0.849   9.676  15.207  0.1365  0.0760  0.0152
19578W        W39112  12.909  14.378  16.431  0.1731  0.0970  0.0404
19579W        W39113  14.630   1.022   0.128 -0.1853 -0.2216  0.1876
19580W        W39114   7.348   0.274  15.962 -0.0582  0.0870 -0.0037
19581W        W39115   4.106  11.419   0.818 -0.1262  0.0676  0.1686
19582W        W39116  11.221   8.229   5.043  0.1443 -0.1866  0.0995
19583W        W39117   8.517  14.081   2.614 -0.0284 -0.2921 -0.0939
19584W        W39118  12.643   9.621   1.619  0.1489  0.0488  0.1752
19585W        W39119   0.947  15.619  13.472 -0.0666 -0.0129  0.0633
19586W        W39120   4.312   0.792   1.177  0.1841 -0.0189 -0.2833
19587W        W39121   4.210   6.260   1.764  0.1946 -0.2255 -0.4004
19588W        W39122  13.177   2.286  12.456 -0.3725 -0.0488 -0.0418
19589W        W39123   0.726  11.309   2.676  0.3508 -0.0361  0.1184
19590W        W39124   4.205  10.203  13.413  0.2229  0.2979  0.0479
19591W        W39125   0.254  17.261  16.993 -0.0101 -0.0239 -0.1499
19592W        W39126   5.821   4.945  14.852 -0.0205 -0.0150 -0.3808
19593W        W39127   5.175   9.419  12.238  0.1747 -0.0584  0.0862
19594W        W39128  11.190   6.168   3.586  0.1943  0.1970  0.2923
19595W        W39129  10.726   7.563  11.972  0.2531 -0.0654 -0.1423
19596W        W39130  15.318   3.084   3.590 -0.0673 -0.0305 -0.0705
19597W        W39131  15.743   9.457  14.271  0.2585  0.0130 -0.2739
19598W        W39132  16.195   3.155   1.854  0.1371 -0.3580 -0.0843
19599W        W39133  14.232  11.342  16.642  0.0488  0.1621  0.4639
19600W        W39134  14.407  15.312   2.416  0.0012 -0.2050 -0.0283
19601W        W39135   3.146  11.306   4.801  0.1896 -0.0812  0.1605
19602W        W39136   2.064  14.466  16.907 -0.2595  0.4329  0.0749
19603W        W39137   9.532  17.655   0.089 -0.3860  0.1848  0.0631
19604W        W39138  14.668   9.734   1.137 -0.2067 -0.1931  0.0834
19605W        W39139  14.874  16.611   4.440  0.1492  0.0106  0.0750
19606W        W39140   1.992   1.517   1.434 -0.0363 -0.1367  0.0880
19607W        W39141  14.144  15.208  14.459 -0.1814  0.3217 -0.2061
19608W        W39142  16.909   0.477   1.186 -0.2389  0.0832 -0.2244
19609W        W39143  17.344  13.388   1.045 -0.2856  0.2086  0.1433
19610W        W39144   1.723   1.257   0.489 -0.2785 -0.0050  0.0575
19611W        W39145  12.762   1.168  13.621 -0.0038 -0.1549  0.0659
19612W        W39146   1.896   8.873   3.389  0.2670 -0.1324  0.0558
19613W        W39147   2.957   6.905   1.727 -0.1485 -0.0115  0.0471
19614W        W39148   5.754  10.365   2.128 -0.0882 -0.1180 -0.1356
19615W        W39149   9.796   4.476   2.249  0.2525  0.2270 -0.1154
19616W        W39150   7.474   1.253  16.880 -0.1143 -0.1513 -0.1330
19617W        W39151  11.009   0.385  14.271  0.0710 -0.1014  0.2151
19618W        W39152  16.147   9.917   1.387  0.0754 -0.1269  0.1098
19619W        W39153  12.171   2.425   4.738 -0.0639 -0.0057 -0.1050
19620W        W39154   5.051  12.875   3.131 -0.1696  0.0836  0.0924
19621W        W39155   2.287   9.611   3.929 -0.2456  0.1300  0.1469
19622W        W39156   1.259   0.199   4.408 -0.0661  0.0290 -0.3897
19623W        W39157   7.909   5.593  12.353 -0.1853 -0.3396 -0.1002
19624W        W39158   9.166   7.186   0.877  0.2565  0.0136 -0.2543
19625W        W39159  10.069   7.976   0.609  0.1753 -0.1068  0.3648
19626W        W39160  13.185  10.075   4.869 -0.0338  0.2095 -0.2977
19627W        W39161   6.570   2.331  13.939  0.0199 -0.1186  0.1968
19628W        W39162  10.125  15.825  16.357 -0.4013 -0.2455  0.0575
19629W        W39163   6.684  15.914   4.111  0.4343 -0.1552  0.0764
19630W        W39164   2.458   6.839   1.733  0.1453  0.0253 -0.1848
19631W        W39165   4.313  16.050  15.107  0.1085  0.1439 -0.0169
19632W        W39166   1.047   8.087  14.284 -0.2550  0.0634 -0.0640
19633W        W39167  16.517   9.391   0.509 -0.0980 -0.3054  0.0101
19634W        W39168  12.042   8.111   1.143  0.2325  0.1917 -0.0244
19635W        W39169  16.415  15.871  15.369 -0.0567  0.0170 -0.0029
19636W        W39170  11.825  17.266   2.369  0.1508  0.0657  0.2609
19637W        W39171   7.448   2.874  14.834  0.0006  0.3320  0.3801
19638W        W39172  11.598   5.845   0.469 -0.0167 -0.0646 -0.1458
19639W        W39173   6.458  12.020  15.416 -0.2419 -0.2880 -0.1208
19640W        W39174  13.927  13.166   2.545 -0.1167 -0.0544 -0.2050
19641W        W39175   1.845   0.956   4.350 -0.0361 -0.1570 -0.1094
19642W        W39176   0.200  14.446   1.924 -0.4713 -0.3180  0.0377
19643W        W39177  15.516  15.412  14.397  0.0001 -0.1242 -0.2943
19644W        W39178   9.495  12.304   2.435 -0.1118 -0.1694 -0.2673
19645W        W39179   1.314  15.729  12.723 -0.1808 -0.0013 -0.3098
19646W        W39180   6.244  16.429   1.435 -0.0898  0.5196 -0.1199
19647W        W39181   0.824  12.493   3.067  0.3962 -0.0852  0.1020
19648W        W39182   0.195   3.481   1.534 -0.0577 -0.3297  0.1387
19649W        W39183  13.665   5.796  15.643  0.0062 -0.2151 -0.0777
19650W        W39184  11.748  14.106   2.758  0.0703  0.1319 -0.0074
19651W        W39185  12.561   5.703  13.325  0.0948 -0.0299  0.0969
19652W        W39186   1.300   5.359   2.871  0.0423 -0.3068 -0.1138
19653W        W39187  16.493   6.844   1.713 -0.0738 -0.0611  0.1045
19654W        W39188   8.694   2.520  12.561  0.2121 -0.0964 -0.1648
19655W        W39189  10.726   6.701  13.271  0.1192  0.0938  0.0512
19656W        W39190  14.040   6.699  17.006 -0.2097  0.3817 -0.3162
19657W        W39191   3.949   9.727   3.530 -0.0467 -0.0485  0.0394
19658W        W39192   5.572  13.566   1.764 -0.4198  0.0175 -0.0273
19659W        W39193   0.950   3.752  16.847 -0.0783 -0.1255 -0.2671
19660W        W39194   2.630   5.013  17.059  0.0778  0.1254 -0.2737
19661W        W39195  13.130  16.658  15.522 -0.2598  0.0113 -0.1078
19662W        W39196   1.896   3.294   2.060 -0.1169  0.0270 -0.1380
19663W        W39197   8.086   0.370   0.497 -0.2945  0.1927 -0.1003
19664W        W39198   1.456  10.640  15.309  0.0258 -0.0303 -0.1702
19665W        W39199  14.810   6.696   4.091 -0.0783 -0.2353  0.1510
19666W        W39200  11.896   5.233   4.208  0.0873 -0.1923  0.0530
19667W        W39201  10.670  12.882  16.806 -0.2122  0.0427  0.2205
19668W        W39202   3.502  10.270   2.315 -0.2895 -0.0080  0.1186
19669W        W39203   6.375  15.434  15.742 -0.1161  0.0646  0.2028
19670W        W39204   3.022  15.643  14.865 -0.2360 -0.0498 -0.0180
19671W        W39205   3.168  10.051  13.750 -0.0226 -0.2732 -0.1615
19672W        W39206   3.360  17.213  13.091  0.2796 -0.0460  0.1136
19673W        W39207  16.913  11.688   0.719 -0.1490  0.0183 -0.2994
19674W        W39208  17.661  13.531   0.624 -0.1621 -0.1819 -0.1965
19675W        W39209  15.322   6.011  13.168  0.0980 -0.2741  0.0885
19676W        W39210   9.848   1.320   1.862  0.1103 -0.2082  0.0630
19677W        W39211   9.350  14.085   0.823 -0.1179 -0.4299 -0.1296
19678W        W39212  12.239  11.409  16.319 -0.0162 -0.0387  0.1568
19679W        W39213   9.034   3.097   1.892 -0.1658 -0.2255  0.1042
19680W        W39214  14.178   0.095   2.053  0.1688 -0.2032  0.2957
19681W        W39215   7.617   8.063  12.988  0.1135  0.0452 -0.2550
19682W        W39216  15.311  17.090  12.729  0.0379  0.2236  0.0082
19683W        W39217  10.578   7.686  16.333 -0.5225  0.0983 -0.0613
19684W        W39218   5.045  15.235  16.950  0.1091 -0.3263  0.0573
19685W        W39219   8.001   3.095   1.108 -0.0007  0.1415 -0.1210
19686W        W39220   7.424  10.369   4.366  0.0132  0.0294  0.0236
19687W        W39221  16.571  15.177   1.931 -0.0597 -0.2280  0.1329
19688W        W39222  11.134   6.442   2.227 -0.0688 -0.1363 -0.1007
19689W        W39223  10.282   7.640  15.918 -0.2793  0.0584 -0.1442
19690W        W39224  11.942   3.428   4.618  0.0502  0.2018  0.0605
19691W        W39225   3.790  11.531   1.485  0.0083 -0.0153  0.1719
19692W        W39226   0.222  14.532   2.453  0.1865  0.0802 -0.2235
19693W        W39227   2.070   7.993  16.333  0.0713  0.0370 -0.1221
19694W        W39228  10.773   7.269   2.344 -0.1454  0.0382 -0.0860
19695W        W39229   4.072  12.936  13.117  0.2578  0.2145  0.2549
19696W        W39230   4.387   8.002  14.854  0.2568 -0.1822 -0.1763
19697W        W39231   0.436  13.600  15.888  0.0873 -0.2129 -0.1409
19698W        W39232   3.532  14.664   1.946  0.2851 -0.0397  0.0946
19699W        W39233  16.657  13.142   4.853  0.0545 -0.0141  0.0106
19700W        W39234  13.031  10.713  12.561 -0.0975 -0.1292  0.0021
19701W        W39235   7.061  11.032  13.461 -0.3163 -0.2551 -0.2231
19702W        W39236   0.504  16.722   4.506 -0.2051 -0.1426 -0.0102
19703W        W39237   3.336   8.548   0.821 -0.0129  0.2159  0.1053
19704W        W39238   0.262   4.997  12.216 -0.4971 -0.0853  0.3962
19705W        W39239  10.234   5.326   4.739  0.0015 -0.0884 -0.0898
19706W        W39240  14.799   3.872   0.557  0.2735 -0.1923 -0.0620
19707W        W39241   4.795  11.560  16.705  0.1845 -0.2935  0.1630
19708W        W39242  13.403   8.789  15.525 -0.0377 -0.0476  0.4338
19709W        W39243   5.935  17.204   1.030 -0.2433 -0.2754  0.0760
19710W        W39244   4.125  17.382  16.535  0.2376  0.1105  0.0483
19711W        W39245   9.388  13.903  16.136 -0.2673 -0.1056  0.1337
19712W        W39246  12.104  13.745   4.406 -0.1927  0.2590  0.0271
19713W        W39247   1.296   7.066  12.225 -0.1711 -0.0199  0.0448
19714W        W39248  15.355   5.375   3.625  0.1746  0.0533 -0.2743
19715W        W39249   4.511  17.157   1.688 -0.5754 -0.3591 -0.0781
19716W        W39250   9.993  13.498  15.381  0.2783 -0.0346 -0.1624
19717W        W39251   6.604   8.901  13.227  0.1844  0.1996  0.2674
19718W        W39252   3.910   4.697   1.542 -0.1764 -0.3529  0.0327
19719W        W39253   3.171   3.888   2.024  0.2227  0.0437  0.2218
19720W        W39254  12.637  10.131  13.649  0.4656  0.0738 -0.2144
19721W        W39255   7.534  14.005  16.082 -0.1582  0.1050 -0.1772
19722W        W39256   6.417   2.980   4.051 -0.1494  0.0994 -0.2573
19723W        W39257  11.895   6.916  16.002 -0.2014  0.0321 -0.1911
19724W        W39258  13.470  16.735   2.583  0.3554  0.0582  0.2424
19725W        W39259  14.889  11.696   0.177 -0.3179  0.1983  0.0173
19726W        W39260  16.214   5.490   3.863  0.2282 -0.0727  0.2862
19727W        W39261   8.757   1.358  16.572 -0.2079  0.0090 -0.0162
19728W        W39262  10.910   8.893   0.687 -0.1074 -0.1950 -0.1278
19729W        W39263   0.295   5.006   3.990 -0.2113 -0.3016  0.3645
19730W        W39264  12.563  15.778   0.120 -0.0170 -0.2337  0.4586
19731W        W39265  13.794  12.923   0.013 -0.0121 -0.0725 -0.0735
19732W        W39266   7.410  16.968   5.346  0.0749  0.1014 -0.2640
19733W        W39267  16.552  16.810  14.607 -0.0562 -0.1376  0.3068
19734W        W39268  10.041   4.626   3.765 -0.0621  0.0291 -0.0448
19735W        W39269   9.630   3.842   2.807 -0.1427 -0.0442  0.0607
19736W        W39270   7.627   1.590   0.451  0.1835  0.0319  0.2194
19737W        W39271  12.961  11.675  12.171  0.1168  0.0341 -0.1577
19738W        W39272  15.503   3.795   2.845  0.0966  0.0834 -0.0596
19739W        W39273   8.136  11.480   3.857 -0.1120 -0.0084  0.1319
19740W        W39274   7.549   1.925  13.828 -0.2129 -0.1326  0.1212
19741W        W39275  16.685  15.739  16.746  0.0517  0.2318  0.0501
19742W        W39276   7.035   0.464  14.237 -0.1859  0.1494  0.1329
19743W        W39277  14.621   4.350  14.612 -0.1409 -0.0184  0.2553
19744W        W39278   6.190  12.359   1.472 -0.2803  0.3124 -0.0067
19745W        W39279  15.455  16.489   0.331 -0.0397 -0.1404 -0.1687
19746W        W39280  10.566   7.968   3.471  0.0353 -0.2661 -0.3061
19747W        W39281   0.144   5.271   0.861 -0.1430 -0.0094  0.0619
19748W        W39282  10.938   6.633  11.781  0.1945 -0.2892 -0.2350
19749W        W39283   7.772  14.644  13.337  0.3017 -0.0412  0.0305
19750W        W39284   8.682   6.453   0.327  0.2141 -0.0285 -0.1135
19751W        W39285   5.375   8.746  14.393 -0.3788 -0.1050  0.0802
19752W        W39286  13.493   3.487   0.593  0.0241 -0.1868  0.3075
19753W        W39287  11.089  13.858  12.946 -0.1103  0.1139  0.0554
19754W        W39288   3.864  15.875  14.851  0.1869 -0.2758  0.0765
19755W        W39289  15.680   6.177  16.287  0.1640 -0.2528 -0.0311
19756W        W39290  16.095  15.633   5.103 -0.1159 -0.1332 -0.1449
19757W        W39291   4.045   1.151  13.390 -0.0010 -0.2222 -0.1123
19758W        W39292   4.743   5.230   2.247 -0.0982  0.1509  0.0256
19759W        W39293   5.323   0.582   4.764  0.2123  0.0095 -0.1779
19760W        W39294   5.178  12.221  16.125  0.1512 -0.0793  0.3756
19761W        W39295  12.437   6.108  16.604  0.1049  0.0091  0.1023
19762W        W39296   1.470  17.159  12.288  0.0439 -0.3926 -0.1831
19763W        W39297  14.577  17.286   3.861  0.2529  0.2178  0.4124
19764W        W39298   6.545  12.926   3.753 -0.3401  0.0767  0.3484
19765W        W39299   9.517   6.641   1.965  0.0853  0.2789 -0.1114
19766W        W39300  13.901   6.941  16.199 -0.1111  0.1009  0.0475
19767W        W39301  15.994   7.626  12.527 -0.1977  0.2001  0.1872
19768W        W39302  11.127   7.266  14.928  0.2181  0.1339  0.2145
19769W        W39303   2.420  16.040  16.264  0.1898 -0.0127 -0.1147
19770W        W39304  15.418   3.137   0.949 -0.2531 -0.0573 -0.1474
19771W        W39305  13.487   3.572   3.945 -0.1909  0.2073 -0.0874
19772W        W39306   5.824   6.216  16.309  0.1209  0.0514  0.0285
19773W        W39307   3.538  11.846  13.909 -0.0821  0.1204  0.1798
19774W        W39308   2.252  15.547  16.585 -0.1047  0.3764  0.0099
19775W        W39309  17.151  11.901  12.044 -0.2401 -0.0343 -0.0447
19776W        W39310   7.861   6.898  16.599 -0.2523 -0.0425 -0.2315
19777W        W39311   1.028   4.169   3.499  0.0785  0.0847  0.1140
19778W        W39312   2.706  12.013  16.821  0.0684  0.0547 -0.1518
19779W        W39313   2.822  10.975  15.313 -0.0926 -0.0100  0.1024
19780W        W39314   4.060   2.550  14.156  0.0478 -0.2914  0.0214
19781W        W39315  11.338   7.944   1.896 -0.0176 -0.5348 -0.1127
19782W        W39316   8.951   0.445  13.391  0.0324  0.0637  0.2158
19783W        W39317  16.696  14.528   1.089 -0.1229  0.3209 -0.0550
19784W        W39318   1.790   8.332  14.315 -0.1448  0.1934 -0.1971
19785W        W39319   5.762   0.419  12.772 -0.2637 -0.2132 -0.0433
19786W        W39320   0.044   6.279  15.752  0.0825  0.1892 -0.1877
19787W        W39321   7.733  10.257  12.110  0.2890  0.1843  0.0233
19788W        W39322  10.595   5.682  15.206  0.0636 -0.1993  0.1662
19789W        W39323   5.422   4.623  15.031  0.2209 -0.1965 -0.1436
19790W        W39324   6.263   7.441   3.202  0.2275 -0.1851 -0.1153
19791W        W39325   5.369   7.193   4.491 -0.1147 -0.2268  0.3350
19792W        W39326  17.532   9.251   2.386 -0.1575  0.0875 -0.0074
19793W        W39327  10.547   5.095   3.897  0.1575 -0.2532 -0.0918
19794W        W39328  16.703   4.211  16.977 -0.1605  0.0632 -0.5210
19795W        W39329  10.317   5.218   1.600  0.0933 -0.1802 -0.0967
19796W        W39330   0.312   3.776  13.926 -0.0819 -0.0490  0.1547
19797W        W39331   7.410  15.628  12.431 -0.0942 -0.1882  0.3734
19798W        W39332   9.576   8.587   3.400  0.0643 -0.0456  0.2139
19799W        W39333   4.915  13.218   4.366  0.1708  0.1542  0.0771
19800W        W39334   8.430  13.009   1.803  0.1026 -0.2450 -0.1593
19801W        W39335  11.473  16.933  15.996  0.2220 -0.0381 -0.0110
19802W        W39336   4.932  16.335   3.182  0.2007  0.0248 -0.0906
19803W        W39337  13.362  16.308  13.025  0.2300  0.4609 -0.3032
19804W        W39338   9.068  16.073  15.991 -0.1765  0.0154 -0.3372
19805W        W39339  17.392   7.961  14.822  0.0028 -0.0356 -0.2520
19806W        W39340   2.896   2.008  16.802  0.0608 -0.3206 -0.0592
19807W        W39341  10.400   0.403  14.718  0.0773  0.1522  0.1532
19808W        W39342   9.918  14.234   3.446  0.1666  0.1289 -0.2106
19809W        W39343  14.060  13.102   3.740  0.0532  0.0190  0.1754
19810W        W39344   7.515   5.577  16.168  0.0570 -0.3234  0.0997
19811W        W39345  12.059  15.654   1.326 -0.2865 -0.3160 -0.1621
19812W        W39346   9.683  16.710  16.678 -0.0850  0.0683 -0.2416
19813W        W39347   3.669   0.799  13.381 -0.2412  0.2167  0.1099
19814W        W39348  15.348   6.255  14.739 -0.1221 -0.0192 -0.0942
19815W        W39349  16.373   1.287   2.849  0.0194 -0.1187  0.0896
19816W        W39350  14.127  16.274   5.226  0.0478  0.2572 -0.1578
19817W        W39351  16.975  15.685  13.720 -0.0565 -0.0983  0.0361
19818W        W39352   9.463   0.057  15.545  0.1550 -0.0126 -0.1251
19819W        W39353   7.063   5.043  14.469  0.2524 -0.0913 -0.1529
19820W        W39354   1.514  14.484  15.868 -0.2501 -0.1508  0.7062
19821W        W39355  15.011  15.235   2.120 -0.1792  0.1717 -0.2086
19822W        W39356   3.291   5.426  12.874  0.0085  0.1529  0.0001
19823W        W39357  12.956   2.131   0.562 -0.2102  0.1115  0.0818
19824W        W39358  14.509   5.411   3.997  0.0602 -0.1337  0.1782
19825W        W39359  17.123  16.892  14.561  0.1547  0.1253 -0.0666
19826W        W39360  14.015   0.525   0.785 -0.1739 -0.3460 -0.2286
19827W        W39361   6.572   2.797  16.702 -0.1051 -0.0836  0.1022
19828W        W39362  10.851   8.628   4.921 -0.0136 -0.1019 -0.0742
19829W        W39363  15.587  16.422   5.452 -0.0469 -0.2075 -0.0949
19830W        W39364   3.259  14.990  15.438 -0.1837 -0.0628 -0.1066
19831W        W39365   3.329   4.378   4.685 -0.0201  0.5053  0.1029
19832W        W39366   4.244  17.036   3.063 -0.1634 -0.1130  0.2347
19833W        W39367  11.167  10.610  13.945 -0.0470  0.2331  0.2031
19834W        W39368   9.463   8.670  11.001 -0.0378 -0.2564 -0.0369
19835W        W39369  17.518  12.043   4.622 -0.2013  0.1801 -0.0042
19836W        W39370   0.716   1.701  16.723  0.0465  0.1992  0.1642
19837W        W39371  10.828  11.139   3.518 -0.2883  0.1081  0.1345
19838W        W39372   2.573   2.148  15.270 -0.2030  0.0975 -0.0369
19839W        W39373  15.897  14.905  17.029  0.2687 -0.1817 -0.1176
19840W        W39374  11.887   2.774  13.184  0.1342 -0.1239  0.2539
19841W        W39375  13.734   4.472   2.585 -0.5238 -0.0554  0.1449
19842W        W39376  10.026   2.328   3.553 -0.2313 -0.0672  0.1827
19843W        W39377  16.264   1.630   0.663 -0.0556  0.0980 -0.2185
19844W        W39378  14.420  16.824   2.268 -0.0892  0.0669  0.1547
19845W        W39379  16.643   4.151  15.425  0.0840  0.1080  0.2800
19846W        W39380  10.086   5.963   1.607 -0.0189  0.2181 -0.1251
19847W        W39381  11.682   2.168   1.722  0.2245  0.0313  0.1710
19848W        W39382   4.978   5.904   1.617 -0.3729  0.1032  0.1701
19849W        W39383   7.122   2.461   2.470  0.1769 -0.2122  0.0928
19850W        W39384   9.031   6.099   5.032  0.0855 -0.2323  0.2610
19851W        W39385  17.506  13.803  13.676  0.1003  0.1655  0.4200
19852W        W39386   8.591  13.944   4.187 -0.0208 -0.3410  0.1928
19853W        W39387  16.797  16.244   0.502 -0.1097 -0.3650  0.1236
19854W        W39388   4.937  17.212  16.619 -0.0231 -0.0035  0.0335
19855W        W39389  10.950  13.769  17.030  0.0489 -0.1260  0.1071
19856W        W39390   4.516   6.405   4.795 -0.0859 -0.0774  0.0755
19857W        W39391   4.377   8.849  16.817 -0.1547 -0.0554 -0.0459
19858W        W39392   0.155   8.035   4.294 -0.0227 -0.0167  0.1622
19859W        W39393   5.250  15.283  15.526 -0.0728 -0.3170  0.1263
19860W        W39394  10.257   0.198   4.128 -0.1374 -0.2707 -0.3160
19861W        W39395  10.017   4.498  12.184  0.5236  0.1083 -0.1069
19862W        W39396   3.714  10.316   0.889 -0.0444 -0.3266 -0.0772
19863W        W39397   2.968  15.651   1.578  0.2885 -0.0527 -0.1423
19864W        W39398  13.238   6.265   1.234  0.0027 -0.1691  0.1497
19865W        W39399   1.737   5.011  15.915 -0.2711  0.0889  0.0173
19866W        W39400   7.092  10.318   2.285 -0.2944  0.1187  0.1017
19867W        W39401  17.370   9.865   4.314 -0.2654  0.1809  0.3428
19868W        W39402  13.332  16.675   3.571 -0.1815  0.0726 -0.3417
19869W        W39403   0.445   8.324  15.875 -0.1413 -0.0744 -0.0997
19870W        W39404  10.614   9.537   1.383  0.2090 -0.0534 -0.1470
19871W        W39405  13.140  10.142  15.777 -0.1060 -0.2310 -0.1551
19872W        W39406   5.211  14.180  16.980  0.0540 -0.1704  0.0555
19873W        W39407   8.448  12.300  15.304  0.4015 -0.0844 -0.4807
19874W        W39408   4.320  12.056   3.061  0.2436 -0.2029 -0.4502
19875W        W39409  12.923  13.396  17.056  0.0361 -0.1623  0.0169
19876W        W39410  15.771   6.102  13.411  0.0239  0.0095  0.0131
19877W        W39411  13.304   3.586   1.494 -0.0643 -0.0310 -0.1497
19878W        W39412  15.470   5.719   0.089  0.1195 -0.1874 -0.0359
19879W        W39413   6.054  14.296  16.714 -0.0521  0.3102 -0.0304
19880W        W39414   6.210   4.313  15.434 -0.0027  0.0878  0.2081
19881W        W39415  16.458   8.892  16.475 -0.0786 -0.2204 -0.0360
19882W        W39416   5.895  12.354  15.990  0.0124  0.3040 -0.0995
19883W        W39417   3.525  14.441   4.758  0.3084  0.1829 -0.1797
19884W        W39418  14.951  10.087  16.309  0.0045 -0.0932 -0.2855
19885W        W39419   2.323  15.992   1.241  0.0911 -0.0293  0.0967
19886W        W39420   3.228   9.802   2.955  0.2757 -0.3854  0.0588
19887W        W39421  15.682  17.102   2.903 -0.1100  0.0267  0.1102
19888W        W39422  16.799  17.319  15.990  0.2174 -0.0711 -0.0139
19889W        W39423  15.167   8.578   0.696 -0.3465 -0.0264 -0.1663
19890W        W39424   6.159   6.976   3.486  0.0096 -0.1928  0.3467
19891W        W39425  10.177  11.546  14.296 -0.1006  0.0981 -0.1002
19892W        W39426  16.544   9.106  16.942  0.1147  0.0815  0.1660
19893W        W39427   3.553   5.456   0.232  0.3577  0.0386 -0.1131
19894W        W39428  11.242   0.258  16.577 -0.3365  0.1711 -0.2333
19895W        W39429  10.938   4.047  12.571 -0.2289  0.1140 -0.1641
19896W        W39430   1.575   6.564   3.748 -0.0425  0.1699 -0.1313
19897W        W39431   5.053  13.995  15.310 -0.2603  0.0358 -0.0451
19898W        W39432  15.384  11.628  12.842  0.3215  0.2329 -0.1602
19899W        W39433  11.915  15.128   3.971 -0.2613  0.0103  0.0104
19900W        W39434  16.979   2.388  15.057  0.1585  0.1310  0.4639
19901W        W39435   3.214  13.852  12.058 -0.2895 -0.0435 -0.3968
19902W        W39436   6.471   2.099  13.215  0.0079  0.0217  0.1919
19903W        W39437  12.336   1.841   0.847  0.1608  0.0636  0.1714
19904W        W39438   3.555   9.007  15.503  0.0670 -0.1209 -0.1242
19905W        W39439  15.507   7.124   4.701 -0.0345  0.0389 -0.0210
19906W        W39440   4.818   5.361   4.146 -0.5625 -0.2053  0.2342
19907W        W39441   2.236  13.687   4.214 -0.0899 -0.0628  0.0954
19908W        W39442   1.132   1.216  13.818  0.0455 -0.1976 -0.1073
19909W        W39443   3.644   6.763  12.356 -0.2464 -0.1259  0.0790
19910W        W39444  11.195   8.279   4.549  0.0019 -0.3828 -0.1461
19911W        W39445   3.709   3.821  14.994 -0.0813 -0.3025 -0.2241
19912W        W39446   5.838   0.690  16.884  0.1402 -0.0282  0.0914
19913W        W39447  16.999   8.767  14.780  0.2504 -0.0172  0.4457
19914W        W39448  12.829  15.662   0.635 -0.1871 -0.0252  0.2232
19915W        W39449  10.524   3.566  15.208  0.0623 -0.1688 -0.1783
19916W        W39450  12.789   8.578   0.074  0.0080 -0.2660 -0.1533
19917W        W39451  10.059  12.929   0.381 -0.2796 -0.0144 -0.2544
19918W        W39452   5.628   7.988  13.316 -0.1662 -0.0951 -0.2504
19919W        W39453  12.131   7.851  16.356 -0.0403 -0.0945 -0.1463
19920W        W39454   8.986  16.991   2.258  0.3980 -0.1942  0.1013
19921W        W39455  12.267  17.348   3.942 -0.0436  0.1114 -0.0512
19922W        W39456   4.049   2.696  12.462 -0.0561  0.0849  0.0596
19923W        W39457  15.745  11.670   2.407 -0.1676  0.2299  0.0038
19924W        W39458   8.135   7.186  12.209 -0.2981 -0.1943 -0.5110
19925W        W39459   7.549   5.974   1.236 -0.3298  0.1023  0.2114
19926W        W39460   4.140  11.066  14.031 -0.0278 -0.2028 -0.0667
19927W        W39461   8.298   3.698   1.884  0.2193  0.1260 -0.1263
19928W        W39462  17.250   0.485   2.099  0.1408  0.0883 -0.1544
19929W        W39463  14.533  14.156  15.717 -0.1969 -0.1501  0.0519
19930W        W39464   9.548   4.848  14.395  0.0587 -0.1114 -0.2428
19931W        W39465   0.486   1.697  15.450  0.0458  0.1207 -0.2818
19932W        W39466   9.971   0.485  12.204  0.4040 -0.1527 -0.1580
19933W        W39467   2.758   8.934   2.634  0.0497 -0.0151  0.1581
19934W        W39468  13.106   9.780  13.769  0.3090 -0.1377 -0.1860
19935W        W39469   3.126  13.051  16.758 -0.0842  0.1195 -0.0588
19936W        W39470   0.734  16.821  16.484  0.0640  0.1389 -0.0174
19937W        W39471   7.458   1.096   0.320  0.2192 -0.1769  0.2579
19938W        W39472  17.419   5.618  15.825  0.0244  0.0438 -0.3021
19939W        W39473   2.637  13.664  16.134  0.2020 -0.1677  0.0035
19940W        W39474   8.798   3.154   2.781 -0.1823 -0.2688 -0.2597
19941W        W39475  16.116  14.092  16.509 -0.5408 -0.2836  0.0218
19942W        W39476  13.689   5.990   2.624 -0.0354 -0.0378  0.0573
19943W        W39477   2.620   2.574  15.603 -0.2314 -0.2651 -0.3128
19944W        W39478   6.306   8.239   3.218 -0.4652 -0.0937  0.0363
19945W        W39479  10.505   1.702  11.959 -0.0756  0.2315 -0.1226
19946W        W39480  14.062  12.799  14.785  0.3408  0.4003  0.0644
19947W        W39481  11.972   5.921  15.761 -0.0535 -0.2678 -0.0215
19948W        W39482  16.294   7.181   3.867 -0.0077 -0.1758  0.0751
19949W        W39483   8.548  12.548  16.469 -0.2648 -0.2352 -0.2067
19950W        W39484   7.119   7.349   0.609 -0.0224  0.0507 -0.1165
19951W        W39485   1.837  10.560   0.135  0.1849  0.0133 -0.2040
19952W        W39486   1.487   9.328  13.154  0.1084 -0.0201  0.3602
19953W        W39487   0.108  14.647  14.203  0.0790  0.2022  0.2195
19954W        W39488   0.555   9.331  13.605  0.0624  0.0827 -0.2751
19955W        W39489  12.047   4.095   0.209  0.0136 -0.3275 -0.0842
19956W        W39490   0.174   4.703  16.216  0.3703 -0.0325  0.3123
19957W        W39491  11.640  11.021  12.584  0.0620  0.1353  0.0874
19958W        W39492   1.649   4.420  16.327 -0.2481 -0.1586  0.3077
19959W        W39493   8.297  17.318  16.801  0.1744  0.2966  0.2833
19960W        W39494  14.901   4.070  13.950 -0.0883  0.0406  0.0198
19961W        W39495  16.531   6.897   3.504 -0.0485  0.1601  0.0889
19962W        W39496   5.636  16.567   3.881  0.0385 -0.0684 -0.1140
19963W        W39497  13.945  13.525   1.813  0.0908  0.2164 -0.0084
19964W        W39498  15.179  13.185  13.938 -0.0587 -0.0803  0.2783
19965W        W39499   3.062  16.278  12.632 -0.1010  0.0884  0.0656
19966W        W39500  13.064   7.197  12.386 -0.2093  0.4321 -0.2854
19967W        W39501   3.167   7.121  13.757  0.1898  0.2308  0.0805
19968W        W39502  16.543  15.293   1.000  0.1841  0.2178 -0.1047
19969W        W39503   0.603  10.122   0.363 -0.1526  0.0180 -0.4986
19970W        W39504   3.337   6.638  13.850  0.0453  0.2010 -0.1156
19971W        W39505   3.338  16.515   4.667  0.1708 -0.0918 -0.0032
19972W        W39506   3.022   2.541  16.754 -0.2124  0.2615 -0.2619
19973W        W39507   0.428  11.613  12.314 -0.1369 -0.0257  0.0036
19974W        W39508  17.524   9.854   0.488  0.0923  0.0993  0.1012
19975W        W39509  11.998  12.642   0.186  0.0831  0.0450  0.2568
19976W        W39510   2.809   9.243  14.135 -0.0151  0.2330 -0.1311
19977W        W39511  16.226   0.092  16.376  0.2476 -0.0414  0.0574
19978W        W39512  11.129  11.590   1.467  0.2465  0.0147  0.1512
19979W        W39513   1.517   7.064   4.016  0.0941  0.0507  0.0926
19980W        W39514   9.459  15.945  15.652 -0.4380 -0.1209  0.1375
19981W        W39515   4.881   7.698  17.005  0.0700 -0.1380 -0.0729
19982W        W39516   5.580  16.388   1.795 -0.1278 -0.0349  0.1709
19983W        W39517  15.104   3.239  16.504  0.1048  0.0026  0.0777
19984W        W39518   7.568  13.431   1.317 -0.3225 -0.2188 -0.0402
19985W        W39519  11.027   5.387   3.925 -0.1266 -0.0475  0.1412
19986W        W39520   4.336  16.827   1.966 -0.0265  0.1513 -0.1897
19987W        W39521   4.758   4.177  14.672  0.1203 -0.1699 -0.0974
19988W        W39522   8.900   8.374  15.161 -0.0185 -0.0525 -0.3309
19989W        W39523   9.067   5.031  13.442 -0.0109  0.2336 -0.0942
19990W        W39524   3.773   1.052   3.703  0.0881  0.2814  0.0594
19991W        W39525  10.386   4.007  15.279  0.0660  0.1993 -0.1058
19992W        W39526   3.925  10.803   0.955  0.0513 -0.1846 -0.3100
19993W        W39527   7.703  15.078   4.695 -0.0702  0.0383  0.0249
19994W        W39528  14.618  16.581   2.854  0.1444  0.0497 -0.2188
19995W        W39529  15.563  11.540  15.316  0.4498  0.2761 -0.1470
19996W        W39530   8.021   1.897  13.846  0.3074 -0.0373 -0.0168
19997W        W39531   7.885   6.677  16.006  0.1076  0.1890  0.2500
19998W        W39532   4.164  16.837  12.779 -0.0091 -0.0543  0.3489
19999W        W39533  10.717  10.683  13.529  0.1676  0.0882  0.0094
20000W        W39534   9.323  14.919  14.689  0.0146 -0.2984 -0.1774
20001W        W39535   5.075  13.379   1.579 -0.1620 -0.1934  0.0560
20002W        W39536   2.418   0.547   2.473  0.0490  0.0441  0.0144
20003W        W39537   8.617  15.287   0.046 -0.1002 -0.1330 -0.1297
20004W        W39538   4.759   6.999   0.918  0.2772  0.4605  0.2104
20005W        W39539  12.002   6.254   3.126 -0.0132 -0.2241  0.3687
20006W        W39540  12.975   6.431   3.210 -0.1728 -0.3720 -0.1078
20007W        W39541   3.304   1.553  15.040 -0.0393  0.1317  0.1248
20008W        W39542   1.291  16.877   1.786 -0.1040 -0.1544  0.2828
20009W        W39543  12.759   1.974   4.574 -0.1198  0.0566 -0.4026
20010W        W39544   8.114   8.765  12.187  0.2834  0.1567 -0.0606
20011W        W39545  13.903  10.769  15.497  0.4718 -0.4329 -0.0763
20012W        W39546  11.341   3.248  15.667 -0.3183 -0.4493 -0.2140
20013W        W39547   1.757   0.368  15.651  0.1172  0.0422 -0.1894
20014W        W39548  10.375  16.860   1.065 -0.0439 -0.3142  0.0614
20015W        W39549   2.054  13.231  12.442  0.1678  0.0479 -0.2720
20016W        W39550  13.881   0.529  16.977  0.2137 -0.2566 -0.0259
20017W        W39551  17.487   9.955  15.029  0.1334  0.1062  0.0420
20018W        W39552  10.737   3.762   1.845  0.2240 -0.2299 -0.1296
20019W        W39553  16.009  10.782  16.577  0.1319  0.2472 -0.0797
20020W        W39554   9.294  17.469   1.068 -0.4934 -0.0428 -0.1352
20021W        W39555  15.191   6.602  12.297  0.0066 -0.0191  0.1893
20022W        W39556  16.711   1.892   0.470  0.1511  0.0826 -0.0329
20023W        W39557   4.378  15.119   2.513  0.1705  0.1461 -0.0802
20024W        W39558  11.645  16.927   3.366 -0.0188  0.1386  0.1398
20025W        W39559   0.008   5.696   2.043  0.0543 -0.1387 -0.3995
20026W        W39560   5.491  10.856  16.296  0.2096  0.0292 -0.2261
20027W        W39561  12.791   6.581   1.230 -0.2045  0.1503 -0.3544
20028W        W39562   5.831  15.854   0.630  0.1603  0.2539 -0.2177
20029W        W39563  12.710   7.921  15.509  0.0645 -0.1588 -0.1881
20030W        W39564   3.027   6.682  14.556 -0.1188 -0.2691  0.4011
20031W        W39565  16.635   0.875   4.902 -0.1604  0.0467  0.0833
20032W        W39566   8.931   9.625   3.835 -0.2075  0.1698 -0.0412
20033W        W39567  11.305   1.915  15.838 -0.3033  0.1152  0.0901
20034W        W39568   1.337  15.131  11.953  0.1745  0.0477  0.0050
20035W        W39569   1.113   1.483   3.353  0.2089  0.1471 -0.0969
20036W        W39570   8.209   5.518  10.678 -0.1457  0.2723 -0.0185
20037W        W39571   6.450   5.830   1.235 -0.0676  0.1383  0.1381
20038W        W39572  17.163   1.065  12.373  0.0670 -0.1961  0.1535
20039W        W39573  11.509   2.726  14.909 -0.0972  0.0676 -0.0260
20040W        W39574   7.854  12.186   3.914  0.0274 -0.3471 -0.4555
20041W        W39575   7.754  17.336   1.101 -0.1051  0.0111 -0.0428
20042W        W39576   6.549  13.818  11.889 -0.0873 -0.0603  0.1613
20043W        W39577  10.679   7.074  15.074  0.2893  0.0713 -0.0998
20044W        W39578   1.446  14.410  14.442 -0.1938  0.4063 -0.0108
20045W        W39579   1.662  15.397  14.742  0.0459  0.1983 -0.0064
20046W        W39580   7.222  13.891   0.532  0.0824 -0.1828  0.4874
20047W        W39581   3.524   8.835   3.731 -0.3569 -0.3440  0.0965
20048W        W39582  16.545  11.305   3.712  0.0139 -0.0310  0.0034
20049W        W39583   4.854   2.515  13.453  0.0193 -0.0061  0.1296
20050W        W39584  11.505   2.584  16.610  0.0652  0.1659 -0.0071
20051W        W39585   7.424   4.450   3.570  0.3135  0.2659 -0.0212
20052W        W39586  13.081  16.730   4.971 -0.1846  0.0562 -0.1479
20053W        W39587  12.290   5.256  12.523  0.0615 -0.1098 -0.1726
20054W        W39588   6.829   6.847  14.616  0.0057  0.2943  0.0401
20055W        W39589   7.800   5.626   3.399 -0.1581 -0.0705  0.2248
20056W        W39590   1.596  17.376  12.791  0.0589  0.0779 -0.0373
20057W        W39591  11.297   3.596   0.896 -0.3088  0.0469  0.2207
20058W        W39592   6.833   6.714   1.319  0.0538 -0.1205  0.0849
20059W        W39593  15.296  14.852  15.641 -0.2907 -0.0109  0.1869
20060W        W39594   6.812  10.922   4.584  0.0483 -0.5617 -0.3467
20061W        W39595   2.101   4.201  13.846 -0.1499  0.3895  0.1158
20062W        W39596  11.084  15.434  14.180  0.1020  0.0554 -0.1195
20063W        W39597   1.722  10.272  12.643  0.2149  0.3638  0.0944
20064W        W39598  11.559  15.811  13.193 -0.1627 -0.0345 -0.2276
20065W        W39599   6.857   1.718  16.822 -0.0998 -0.2388  0.1815
20066W        W39600   1.785   2.177  12.353 -0.2743  0.0044  0.4386
20067W        W39601   8.222   6.554   4.125 -0.0482 -0.4683  0.1066
20068W        W39602   1.603   5.253  14.457  0.1879  0.2940  0.1804
20069W        W39603   9.959   6.105   0.310 -0.1519  0.0021  0.2437
20070W        W39604  12.332   3.635  14.455 -0.1073  0.0645  0.1268
20071W        W39605  11.748  15.596  12.778 -0.0445  0.0385  0.0292
20072W        W39606   3.656   3.778   2.246 -0.1622  0.1620  0.0776
20073W        W39607   2.889  10.945   0.854  0.1339  0.1816 -0.1181
20074W        W39608   2.180   2.504   1.351  0.2247 -0.1404  0.2449
20075W        W39609  12.928  17.463  12.679  0.0349 -0.2184 -0.4002
20076W        W39610  12.347   7.148  12.593  0.3401 -0.2580 -0.0709
20077W        W39611  17.526   6.050  14.964 -0.1589  0.0149 -0.1884
20078W        W39612   6.225   4.968  13.359  0.0297  0.0988 -0.1851
20079W        W39613   0.123   2.885   1.362  0.2001  0.2404  0.1133
20080W        W39614  12.078   7.441   4.950  0.0020  0.2447  0.6557
20081W        W39615  15.556   1.079   1.295 -0.2372  0.1466 -0.0428
20082W        W39616  16.257  14.998  15.536  0.1779  0.0410  0.2741
20083W        W39617   8.224  12.085   2.088 -0.1149 -0.1385  0.1192
20084W        W39618   7.004   3.677   3.815 -0.0346  0.0857 -0.2146
20085W        W39619   3.668   8.353   3.492 -0.1463 -0.0804 -0.0174
20086W        W39620  14.401  17.199   1.933 -0.0036 -0.0106 -0.1520
20087W        W39621  11.426   7.719   1.486 -0.1938  0.1619  0.0890
20088W        W39622  10.515  12.588   3.950  0.0452  0.0877 -0.1003
20089W        W39623   9.600   5.850   3.899  0.0329 -0.0497  0.1676
20090W        W39624  16.889   3.985   1.260  0.0042 -0.1914 -0.1199
20091W        W39625   5.072   0.490   3.287 -0.1722 -0.1685  0.1692
20092W        W39626   1.161  11.005  16.462 -0.2300  0.1764 -0.1327
20093W        W39627   7.378   8.955  14.470 -0.3416  0.0140 -0.0369
20094W        W39628   6.583   4.541  16.241  0.0456 -0.0526  0.0980
20095W        W39629  13.078   6.528  14.717 -0.1673 -0.1192 -0.1237
20096W        W39630  13.961   1.787   1.470  0.0951  0.1093 -0.3464
20097W        W39631   6.164   3.028  15.292  0.0601 -0.1087  0.1721
20098W        W39632  13.963   4.061   2.718  0.0422  0.1812  0.0102
20099W        W39633   9.524   4.124  14.079  0.0063  0.0428 -0.0324
20100W        W39634   2.509   8.505  13.580 -0.1524  0.1045 -0.1517
20101W        W39635   7.811  12.087  12.174  0.1267 -0.0020 -0.0717
20102W        W39636  13.172  13.312   4.004  0.1250 -0.0065  0.0431
20103W        W39637   4.623   9.796  14.243  0.0299 -0.1847 -0.2238
20104W        W39638   1.518  12.381   1.468  0.2089 -0.0478 -0.1773
20105W        W39639  15.489   8.023   1.443  0.0041  0.3884 -0.1205
20106W        W39640  16.379   7.167  15.876  0.2484  0.0564  0.0338
20107W        W39641   1.084   9.529  16.365  0.2111 -0.1120  0.1016
20108W        W39642   0.290   4.371  13.986  0.2195  0.0344  0.1138
20109W        W39643  13.787   8.975   3.431 -0.1873  0.0449  0.4188
20110W        W39644  16.716  12.347  12.595  0.1060 -0.1853  0.2232
20111W        W39645   6.388   0.525   0.700 -0.2819  0.0088  0.1396
20112W        W39646   4.659   8.907   2.648 -0.1068  0.2032  0.0360
20113W        W39647   2.187  12.273  14.016  0.0435 -0.0982 -0.1046
20114W        W39648   6.599  16.680   2.230 -0.2307 -0.0351 -0.0159
20115W        W39649   7.447  13.734   2.134 -0.2209  0.1988  0.1235
20116W        W39650   7.689  15.473   1.014  0.2618 -0.1514  0.0773
20117W        W39651   8.083   7.160   2.413  0.2855  0.2790  0.1596
20118W        W39652   1.189   6.283   3.595 -0.2711  0.4991 -0.0459
20119W        W39653  13.927   8.897   2.062 -0.2061  0.3039  0.0138
20120W        W39654  13.859   5.968  12.103 -0.1368 -0.0410  0.0922
20121W        W39655  10.106   8.040  16.120 -0.1654 -0.0561  0.2390
20122W        W39656   5.364   5.622   0.771  0.1832  0.0723  0.2406
20123W        W39657  15.276  15.897   5.335 -0.1670 -0.1253  0.1328
20124W        W39658   1.110  10.150   2.016  0.1659 -0.1003 -0.0736
20125W        W39659   6.714  17.603   2.074 -0.3144 -0.2207 -0.0456
20126W        W39660   5.201   4.304  15.909 -0.0252  0.1972 -0.1973
20127W        W39661   2.853   7.227   4.060  0.1664 -0.1310 -0.0544
20128W        W39662   0.165  13.232   5.668 -0.0251  0.1464  0.3032
20129W        W39663  16.468   6.202   0.816  0.1894 -0.2508  0.0264
20130W        W39664  13.724  10.335   3.485  0.0248 -0.1358 -0.3207
20131W        W39665  12.718   2.450   4.644 -0.2155 -0.2940  0.3268
20132W        W39666   8.641  10.394  16.958  0.1169 -0.0741  0.0415
20133W        W39667  16.153  12.654  15.590 -0.0563 -0.0714 -0.2893
20134W        W39668   7.365   7.909  12.619  0.0443  0.1351  0.0236
20135W        W39669   4.090   2.869  13.782 -0.0810 -0.1356  0.1735
20136W        W39670   5.424  17.660  14.684 -0.0584 -0.2582  0.0802
20137W        W39671   6.928   3.249   1.454  0.0889 -0.0633  0.0705
20138W        W39672  14.519  13.467  14.341 -0.2428 -0.0986 -0.0251
20139W        W39673  10.273  15.933  14.397  0.1334 -0.0104  0.1816
20140W        W39674  12.678   2.707  12.793 -0.1882 -0.0688 -0.1341
20141W        W39675  10.783  12.368  13.547 -0.1117  0.1384  0.2584
20142W        W39676  10.770  16.321  12.700  0.1780 -0.1649  0.0751
20143W        W39677  14.425   3.874   1.807 -0.1342 -0.3164  0.3611
20144W        W39678   2.403  10.654  16.628 -0.0956  0.0660 -0.2829
20145W        W39679   5.368  17.140   4.694  0.0548  0.0167  0.2580
20146W        W39680   6.983   2.160   5.000  0.0284 -0.2211 -0.0746
20147W        W39681   5.662  10.025   0.230  0.2107 -0.1244  0.3107
20148W        W39682   7.212   3.859  15.110 -0.0860  0.0348 -0.1830
20149W        W39683   1.124   8.797   4.619 -0.1538  0.1463 -0.0513
20150W        W39684  14.962   4.371   0.674 -0.4214  0.0603 -0.0194
20151W        W39685  11.669   7.826   1.041 -0.3044 -0.1505  0.1973
20152W        W39686  11.271  10.527  14.513  0.1744 -0.0324  0.1205
20153W        W39687   7.413   9.465  16.088  0.0315  0.2309 -0.1585
20154W        W39688  15.222  10.903  14.397  0.3959  0.2440  0.1004
20155W        W39689  10.004  13.485   2.374  0.1878 -0.0416 -0.0138
20156W        W39690  11.258   9.518  16.180  0.0659  0.0436 -0.0160
20157W        W39691   9.870   6.874   3.857 -0.2356 -0.1672 -0.1552
20158W        W39692   7.526  15.952   0.946  0.2310  0.2263 -0.2189
20159W        W39693   2.705   3.324  16.229  0.3714 -0.0605  0.0593
20160W        W39694  17.578   2.360   0.203 -0.1956 -0.0427  0.1545
20161W        W39695   0.285   2.423  15.463 -0.2174 -0.1103  0.1884
20162W        W39696  16.021   6.304   0.442 -0.2000 -0.0435 -0.2197
20163W        W39697  10.368   0.823   4.048 -0.1105 -0.1366 -0.0048
20164W        W39698   6.380   9.222   2.307 -0.1514 -0.0861  0.0830
20165W        W39699   0.568   9.448   5.810 -0.0097  0.0752 -0.1585
20166W        W39700  13.391   6.753  16.346  0.0354  0.2397  0.0383
20167W        W39701   3.321   1.847  13.235  0.1444  0.0148 -0.4168
20168W        W39702   0.375   1.253  16.961  0.2396  0.0438 -0.0135
20169W        W39703   2.759   8.857  16.085  0.0647  0.2253  0.0318
20170W        W39704   8.733  13.052  12.412  0.3005 -0.1234  0.0775
20171W        W39705   4.096  14.219   4.593 -0.0940  0.0053 -0.1289
20172W        W39706  10.469  15.144  16.855  0.0102  0.3314 -0.1099
20173W        W39707  14.859   4.980   5.101  0.1445 -0.0472 -0.1405
20174W        W39708   5.717  14.374   3.649  0.0157 -0.0930 -0.0472
20175W        W39709  11.485  15.827   2.900 -0.0403  0.0417 -0.0118
20176W        W39710   5.649   5.037  16.444 -0.0143  0.2441 -0.2501
20177W        W39711   6.804  16.459   3.236 -0.1291  0.2939  0.0678
20178W        W39712  12.361   8.476   3.285 -0.2513 -0.0460  0.1492
20179W        W39713   9.040  13.716  14.499  0.1702 -0.1002 -0.0002
20180W        W39714   2.578   4.118   2.562 -0.1900  0.3221  0.0079
20181W        W39715  17.662   7.835   3.692  0.0930  0.0204 -0.0552
20182W        W39716   7.065  17.512   2.453 -0.0903 -0.2022  0.3179
20183W        W39717  15.479   5.622   2.015  0.1719  0.0292 -0.3549
20184W        W39718  11.906   9.021  14.784  0.6010 -0.3156  0.1031
20185W        W39719   7.493  11.483  12.655 -0.2529  0.1137 -0.1411
20186W        W39720   2.592   1.129  13.488 -0.0675 -0.1099 -0.0422
20187W        W39721   5.031   6.586  16.518 -0.0545  0.0783 -0.1136
20188W        W39722  12.521   8.232   2.398  0.0366  0.1016  0.0638
20189W        W39723   6.439  14.702  16.397  0.1268 -0.1850  0.0148
20190W        W39724  17.124  13.841  16.656  0.2119 -0.1756  0.0842
20191W        W39725  10.947   3.080   4.336  0.1517 -0.0637  0.2008
20192W        W39726   8.782   5.514  14.942  0.0768  0.3116  0.1106
20193W        W39727  16.556  16.215   0.031  0.2217 -0.2021 -0.0475
20194W        W39728   9.853   5.917   1.151 -0.1990  0.1836 -0.1504
20195W        W39729  11.138  16.122   3.232 -0.3825 -0.1799 -0.1079
20196W        W39730  13.080   4.530  16.133 -0.0184  0.2250  0.0288
20197W        W39731  14.290  10.890  16.361  0.2108  0.1023  0.1672
20198W        W39732   9.667  14.408   4.678  0.2541  0.1317 -0.2873
20199W        W39733   8.617   6.816  13.022  0.1067  0.3924 -0.0856
20200W        W39734  10.577   2.684  15.246  0.3241  0.0540  0.1496
20201W        W39735   1.986   5.611  15.631 -0.1211 -0.2413  0.1436
20202W        W39736   2.933  12.112   4.768 -0.1187 -0.0799  0.0437
20203W        W39737  14.345  17.642  12.430  0.1371 -0.1083  0.0189
20204W        W39738  14.014   6.624  13.964  0.1041 -0.0352  0.3419
20205W        W39739   5.297   4.874  15.773  0.0474  0.0466  0.2008
20206W        W39740  17.556  13.338   0.176  0.0752  0.1073  0.0258
20207W        W39741  11.508  14.841   4.196 -0.0316  0.2467 -0.1087
20208W        W39742   9.341   6.005   2.738  0.0334 -0.3104 -0.3460
20209W        W39743   5.515  15.940  12.838  0.0026 -0.1191  0.0318
20210W        W39744  11.561   0.068  16.951  0.0622 -0.0469  0.2155
20211W        W39745  14.721  16.055   0.812  0.1858 -0.2205 -0.1870
20212W        W39746   3.479  15.567   4.059  0.0014  0.2072  0.0016
20213W        W39747   3.220   6.385  12.844  0.2573  0.0848  0.0339
20214W        W39748   3.446   6.106   2.049 -0.4145 -0.1605  0.2462
20215W        W39749   2.564  16.781   2.943 -0.1151 -0.0352  0.1090
20216W        W39750  11.976   1.647   1.674  0.0688  0.4391 -0.1564
20217W        W39751   0.166   1.471  15.106  0.4493  0.0406 -0.1364
20218W        W39752  14.959   5.825  13.488 -0.1487 -0.4674 -0.0207
20219W        W39753  17.448   4.209   3.803  0.1479  0.1235  0.2821
20220W        W39754   4.967   8.655   0.380 -0.0788 -0.0014 -0.2362
20221W        W39755  14.366   7.078  16.028  0.0777  0.0264 -0.5314
20222W        W39756   1.833  14.456   4.814  0.0985  0.0024  0.0040
20223W        W39757   3.266   5.256   4.085  0.1664  0.0251 -0.1659
20224W        W39758   8.031  10.867   2.983 -0.0415  0.2187  0.0451
20225W        W39759  15.557  13.163   2.721 -0.0339 -0.1926  0.2379
20226W        W39760   8.721   7.230  16.213  0.0809  0.1541 -0.1843
20227W        W39761  10.835   6.202  13.187  0.0651  0.1039 -0.0059
20228W        W39762  11.744   6.334   2.020  0.1690 -0.1217 -0.1539
20229W        W39763   1.663   9.614  15.814 -0.0165  0.1803 -0.1295
20230W        W39764  12.640  12.320   4.808  0.2054  0.2745 -0.0788
20231W        W39765  10.900   0.485  14.897  0.0914 -0.1815  0.1423
20232W        W39766   0.226  16.626  13.883  0.3997  0.4471 -0.3245
20233W        W39767  11.070   6.098  15.065 -0.2759 -0.1701 -0.0634
20234W        W39768  10.689  13.007   3.589  0.0455 -0.0521 -0.0214
20235W        W39769  11.259   0.463  17.066  0.1878 -0.0319  0.1284
20236W        W39770   8.427   7.773   0.291  0.1057  0.1427  0.0002
20237W        W39771  15.537   3.798   4.690 -0.0006  0.0497  0.3958
20238W        W39772   8.387   5.660   4.673 -0.0029 -0.3928  0.2236
20239W        W39773  13.576   2.515  14.291 -0.2444  0.3406 -0.0567
20240W        W39774  12.100   4.647   4.624 -0.2704 -0.1726  0.1383
20241W        W39775   6.956   6.959   1.779 -0.3541 -0.0273 -0.1100
20242W        W39776   7.266   8.509  14.783 -0.0975 -0.1341  0.0188
20243W        W39777  16.132   1.165  14.528  0.0304 -0.1225  0.1106
20244W        W39778  10.967  10.161  14.399 -0.0312 -0.2852  0.0682
20245W        W39779   3.442  11.185   5.872 -0.2275  0.1312  0.0590
20246W        W39780  15.911   8.609   4.432 -0.2198  0.1695  0.2498
20247W        W39781   5.217  14.191   1.807 -0.1469  0.1362  0.1342
20248W        W39782   9.571  17.047   2.902  0.1269 -0.4109  0.0040
20249W        W39783   5.690  12.271   3.599  0.1364  0.0044  0.3285
20250W        W39784   6.111   9.088  15.150 -0.1673 -0.4148  0.0022
20251W        W39785   1.743   9.103  13.485 -0.0748  0.2180 -0.0552
20252W        W39786   4.969   4.188  15.160  0.1319  0.0617 -0.0050
20253W        W39787   0.878  12.437  14.603  0.0728 -0.0696  0.0716
20254W        W39788  13.335   6.564  12.860  0.0967  0.0444 -0.3231
20255W        W39789   7.292   4.660   5.135  0.4521  0.1338  0.2373
20256W        W39790   2.728   1.320   1.719 -0.1343  0.0091  0.0025
20257W        W39791   7.337   2.764   3.560  0.2377 -0.0137  0.2252
20258W        W39792   9.670   8.089   3.577 -0.0120  0.0406  0.0222
20259W        W39793  13.459   6.887  14.520 -0.2148 -0.1375 -0.0426
20260W        W39794  15.107   4.821  15.199  0.3406 -0.2255 -0.2227
20261W        W39795  14.137  16.519  13.552 -0.1083 -0.1198  0.0997
20262W        W39796   7.318  10.278   3.884 -0.1859 -0.0325 -0.0072
20263W        W39797   0.013   0.342   4.836  0.0282  0.0299  0.1824
20264W        W39798   3.423   9.946   0.586 -0.1629  0.0410  0.1045
20265W        W39799  16.027   2.234   2.254 -0.0872 -0.0488  0.1161
20266W        W39800  11.838  14.866  15.155  0.0928  0.1510  0.0891
20267W        W39801   4.024  15.801   1.963  0.1407 -0.0379  0.0963
20268W        W39802  15.583   4.290  13.552  0.2124 -0.0219 -0.2479
20269W        W39803  11.156   7.317   4.796 -0.0450 -0.1901  0.0952
20270W        W39804  10.855   4.077  16.642  0.1166 -0.1577  0.2783
20271W        W39805  11.290   5.796  11.457  0.1044 -0.0542 -0.0147
20272W        W39806   0.077   5.703  16.249  0.0529 -0.0456  0.1362
20273W        W39807  15.522  15.233   4.522 -0.0379 -0.0552  0.1183
20274W        W39808  15.408  16.344  13.673 -0.1547 -0.0399 -0.0429
20275W        W39809  17.504   3.992  13.992  0.0901 -0.1682  0.0210
20276W        W39810  16.767  13.764   0.261 -0.2195 -0.3039  0.3680
20277W        W39811   4.629   9.253  16.125 -0.0660 -0.2881  0.4176
20278W        W39812  15.898   6.047  14.789  0.0753  0.3324  0.1741
20279W        W39813   0.289   5.111  14.749  0.0156 -0.1414  0.1366
20280W        W39814   2.242   2.597   5.083  0.0265  0.0168  0.0702
20281W        W39815   9.566   1.321  15.446 -0.1023 -0.0042 -0.1044
20282W        W39816   5.828  14.435  13.389 -0.0508 -0.1526  0.1122
20283W        W39817  10.881   5.326   2.578 -0.1815 -0.0119  0.3263
20284W        W39818   5.926   7.797   1.157 -0.0438 -0.2064 -0.5194
20285W        W39819  10.455  15.087   3.992 -0.0027 -0.2042 -0.2584
20286W        W39820   8.994  14.955   3.267  0.1956  0.0284  0.0898
20287W        W39821  13.023   8.699   4.012 -0.2111  0.2155  0.3581
20288W        W39822   5.702  12.386   2.836  0.2497  0.1265 -0.0434
20289W        W39823  12.631   1.410   0.615 -0.0203  0.0343 -0.0766
20290W        W39824   0.797  15.017   0.808  0.0477  0.1431  0.2813
20291W        W39825   9.130   6.789  14.076  0.3391  0.0315  0.0580
20292W        W39826  17.510   4.878  14.582  0.2317  0.1094  0.4160
20293W        W39827  12.938   8.950   2.982 -0.3329 -0.0060 -0.0421
20294W        W39828  10.526   2.595   0.352 -0.1497 -0.1622  0.3430
20295W        W39829   2.305  17.015  14.700 -0.0718 -0.1441  0.1487
20296W        W39830  12.820   5.233   3.814 -0.1239 -0.3026 -0.4465
20297W        W39831   5.012   1.897   4.021 -0.3301 -0.4025  0.1687
20298W        W39832   7.560   2.084   3.407 -0.1025 -0.0536 -0.1770
20299W        W39833   3.115   1.908  12.727 -0.1361  0.1028  0.1798
20300W        W39834   4.517  12.192  13.052 -0.0472 -0.2247  0.1559
20301W        W39835   2.473  17.375   1.037  0.0820 -0.0122  0.2537
20302W        W39836   2.957  14.135  12.425 -0.0844  0.2629  0.1755
20303W        W39837   4.070   8.344   4.383 -0.0703  0.2387  0.1670
20304W        W39838  17.324   6.154  15.397  0.2203 -0.1107 -0.0523
20305W        W39839   5.307  12.737   4.389 -0.1817  0.0932  0.1179
20306W        W39840   8.392   8.103  12.393  0.0912 -0.0423 -0.2087
20307W        W39841  13.436   2.424   2.681  0.2840  0.1946  0.4959
20308W        W39842   2.452  12.861   3.566  0.0587  0.2512 -0.2174
20309W        W39843  16.337   8.959   2.674 -0.0829  0.2324 -0.0049
20310W        W39844  15.831   7.245   5.520  0.2082 -0.1075  0.2140
20311W        W39845   4.378   9.473   0.515  0.0663 -0.0756 -0.1933
20312W        W39846  11.775   5.992  15.053 -0.3240  0.0435 -0.3099
20313W        W39847   0.553  11.455  14.048  0.1252  0.0379 -0.0146
20314W        W39848  14.575   8.509   3.700 -0.1876 -0.1156  0.4636
20315W        W39849   1.446  15.716  13.453  0.2243 -0.0623 -0.1629
20316W        W39850   0.078   6.585   0.067 -0.3400  0.4343 -0.2208
20317W        W39851   3.709  17.031   3.162  0.2577 -0.1037 -0.1056
20318W        W39852   2.772   4.579  13.219  0.0321  0.2259 -0.1196
20319W        W39853   3.297   7.045   4.157  0.2315  0.1774 -0.0750
20320W        W39854   1.262   2.205   1.780 -0.0210 -0.1699 -0.1081
20321W        W39855  17.448   5.064   3.815 -0.0963 -0.0406 -0.0053
20322W        W39856   0.242  13.670  11.977 -0.0612 -0.0175 -0.1955
20323W        W39857   9.173   9.869  14.524 -0.0696  0.0863  0.1923
20324W        W39858  12.967   6.333  12.595  0.1308 -0.1321 -0.1349
20325W        W39859  14.979   8.696  14.801  0.3729 -0.2915  0.1767
20326W        W39860  12.968  11.719   0.689  0.2483 -0.2300  0.2538
20327W        W39861  10.982   5.265  15.212  0.3478  0.2871 -0.1645
20328W        W39862  14.083   1.274  12.296 -0.0372 -0.2442  0.1744
20329W        W39863  12.030  14.987   5.013 -0.0114 -0.0484  0.1484
20330W        W39864   6.260  15.178  16.551 -0.0480 -0.1726  0.0187
20331W        W39865   4.614   5.963   0.786 -0.1764  0.2232  0.2129
20332W        W39866  16.453  15.583   1.593  0.0330 -0.2039 -0.1165
20333W        W39867  13.262   6.307  15.172  0.2547 -0.1842  0.0473
20334W        W39868  15.260  15.027  14.804  0.0297  0.1537 -0.4765
20335W        W39869   5.690   0.795   2.289 -0.0130  0.1130 -0.0335
20336W        W39870  15.746  11.860   1.872 -0.0390  0.0321  0.0274
20337W        W39871   6.930  11.589  12.555 -0.1076 -0.2431 -0.3928
20338W        W39872   1.479  14.944   1.827 -0.1926 -0.2815  0.0628
20339W        W39873  12.010   1.102  13.580  0.0192 -0.1875 -0.2014
20340W        W39874   2.326   0.429   1.934  0.4363  0.3010 -0.0593
20341W        W39875   6.617   7.242   3.505  0.1018 -0.0993 -0.0609
20342W        W39876   3.321   8.130  14.470  0.0701 -0.0151  0.0334
20343W        W39877  13.179   0.201  15.218 -0.4012 -0.3180  0.0730
20344W        W39878   3.290  17.106  16.308  0.2397  0.0294  0.0549
20345W        W39879  11.635  12.484   3.234 -0.0826 -0.0711  0.0538
20346W        W39880   8.308  15.546  15.324 -0.1823  0.0296 -0.0636
20347W        W39881   5.911   9.063  12.811  0.1429 -0.0268 -0.2680
20348W        W39882   5.608  10.374  12.671 -0.1501  0.0062  0.0173
20349W        W39883   2.583  16.652   4.319 -0.0425 -0.1947  0.0781
20350W        W39884  14.417   9.873  15.525  0.2246 -0.3078  0.1855
20351W        W39885   8.336   6.576  12.678  0.0074  0.1071 -0.0744
20352W        W39886   6.120  14.042  13.342 -0.2087  0.0418 -0.2157
20353W        W39887  10.526  12.044   3.289 -0.2810  0.0204 -0.0307
20354W        W39888  12.354   7.946  13.094  0.1728  0.1570  0.1564
20355W        W39889   7.813   6.747   3.957 -0.1089 -0.0392  0.0527
20356W        W39890   1.723   2.599  12.814  0.0835 -0.0527 -0.0369
20357W        W39891  10.283   8.983   2.915 -0.2080 -0.1032  0.0460
20358W        W39892   7.885   5.469  15.424  0.1404  0.2644  0.2605
20359W        W39893  15.193  14.867   2.368  0.1605  0.1560 -0.0541
20360W        W39894   7.947   0.741   1.327  0.0324 -0.2353 -0.1552
20361W        W39895  16.192  13.637  15.647  0.0564 -0.3350  0.0289
20362W        W39896   6.454  10.558   4.615 -0.3040 -0.0924 -0.0394
20363W        W39897  10.400   4.371  14.893  0.1239 -0.0099 -0.0507
20364W        W39898  16.961   5.325  15.131 -0.1334  0.1168 -0.1982
20365W        W39899   0.210  10.186  12.229  0.1500 -0.0821  0.1600
20366W        W39900  12.419  13.013   1.148 -0.3345  0.0331 -0.1036
20367W        W39901  17.660   3.022   1.844 -0.0526  0.1169 -0.1452
20368W        W39902   3.964  15.488  14.418 -0.2585  0.0617 -0.1360
20369W        W39903  12.954  11.279   1.015 -0.1690  0.1240  0.0922
20370W        W39904  12.598   3.937   1.887 -0.5096 -0.2892  0.1752
20371W        W39905   5.968  15.411  12.377 -0.3085 -0.2004  0.0607
20372W        W39906   1.985  15.038  12.677  0.0848  0.1241  0.1417
20373W        W39907  11.773   9.758   3.022  0.0377  0.1519  0.2909
20374W        W39908  17.434   0.579   1.426 -0.0125  0.0650 -0.1968
20375W        W39909  17.006  16.917   0.185  0.0705 -0.1226 -0.0636
20376W        W39910  10.732   6.003   4.322  0.0979  0.2062  0.3064
20377W        W39911   7.830   0.892  14.024  0.0362 -0.0158 -0.0536
20378W        W39912  16.449   1.622  14.623 -0.0298  0.1732 -0.0318
20379W        W39913  10.483  12.363  13.947 -0.1015 -0.2365 -0.3389
20380W        W39914  16.272   6.447  15.393  0.2722 -0.1232 -0.0411
20381W        W39915   1.696   4.520  15.759  0.1184  0.2099  0.0465
20382W        W39916   7.503  11.187   4.075 -0.2986 -0.1418 -0.2348
20383W        W39917   6.680   4.179   2.701  0.0919  0.0060  0.1301
20384W        W39918  16.785   6.582   3.078  0.1440  0.0005 -0.0528
20385W        W39919  15.021  15.443  16.210 -0.1332 -0.0022 -0.2732
20386W        W39920  10.229  11.755   1.685 -0.2147  0.0886 -0.1455
20387W        W39921   3.270   8.372   3.819 -0.0097  0.2091  0.1033
20388W        W39922   8.914  16.943  14.048 -0.2819  0.2189  0.1521
20389W        W39923   0.842  13.078  16.606 -0.0114  0.1732 -0.2234
20390W        W39924   9.715   1.504  13.770  0.1029 -0.0818  0.1648
20391W        W39925   1.144  16.006   2.792  0.3843  0.1335 -0.0885
20392W        W39926  10.522   4.543   0.800  0.0614 -0.0873  0.2092
20393W        W39927  10.489   6.733  14.667  0.1939  0.1166  0.1098
20394W        W39928   8.312   3.744   3.928  0.0235  0.1657  0.0948
20395W        W39929  10.865  14.551  16.011 -0.0356  0.0099 -0.2079
20396W        W39930   3.828   5.534   1.185 -0.0529 -0.1799 -0.1056
20397W        W39931   6.971   8.795   0.043 -0.1428  0.2902 -0.0859
20398W        W39932   6.753   7.440   4.653 -0.2740 -0.1584 -0.2670
20399W        W39933   0.186  16.702   0.106 -0.0687 -0.0072  0.2292
20400W        W39934   4.403  13.170   6.238  0.1271  0.1117  0.0293
20401W        W39935  10.737   4.837   5.226  0.1213 -0.2025  0.3246
20402W        W39936  10.922   1.054   2.662 -0.0030 -0.1158 -0.4007
20403W        W39937   1.844   9.299   4.758 -0.1208  0.1423 -0.2932
20404W        W39938  12.012   7.283   0.530 -0.0593 -0.1520  0.0416
20405W        W39939   7.179  16.158   4.125 -0.2174 -0.1646 -0.1199
20406W        W39940   0.181   8.922   4.252  0.3351 -0.0015 -0.5012
20407W        W39941  14.517   7.443   0.736  0.0278 -0.0216  0.1303
20408W        W39942   1.376  14.499   0.190 -0.2619 -0.0041  0.1039
20409W        W39943   1.701   7.637   5.797  0.2576  0.0102 -0.3588
20410W        W39944   4.780   4.425   4.201  0.3055 -0.0859  0.0976
20411W        W39945   0.688   9.447  16.737 -0.2992  0.0369 -0.3591
20412W        W39946  10.885   0.286   0.286 -0.3063 -0.2452 -0.1662
20413W        W39947   6.031   5.766  13.999  0.0387  0.0954  0.0693
20414W        W39948   9.681  10.288   0.936 -0.2745 -0.2941  0.2694
20415W        W39949   4.430   9.501  15.059 -0.2581 -0.2115  0.1485
20416W        W39950   7.673  11.341   4.607  0.4500 -0.0087 -0.0440
20417W        W39951  15.311  17.628  14.542  0.1324 -0.0564 -0.0348
20418W        W39952  17.507  12.446   1.380  0.3931 -0.2545 -0.0849
20419W        W39953   5.923  17.247   1.919  0.0695  0.0514 -0.0840
20420W        W39954   6.970   6.137   5.127  0.0778 -0.0105 -0.1120
20421W        W39955   0.348   9.495   2.469  0.3394 -0.1598  0.0505
20422W        W39956   1.261   2.601  14.376  0.0204 -0.4077 -0.1722
20423W        W39957   5.516  15.678  15.671  0.0588  0.2314 -0.1834
20424W        W39958   2.216   6.831   2.252  0.1306 -0.1373 -0.3404
20425W        W39959  14.416  15.347  15.675  0.0728  0.2504  0.0603
20426W        W39960   5.770  17.088  16.713 -0.0968  0.1553 -0.1747
20427W        W39961   1.055  12.401   3.913 -0.0064  0.0153 -0.1009
20428W        W39962  12.318   4.602   5.071  0.1965  0.2256 -0.2054
20429W        W39963  11.055  11.955   2.469 -0.2792  0.0670 -0.1446
20430W        W39964   9.722  15.777   1.542  0.2053  0.0047  0.0678
20431W        W39965  14.884  16.352  15.861 -0.0142 -0.2632 -0.0877
20432W        W39966  15.106  11.378  13.265  0.1052 -0.0400  0.2705
20433W        W39967  16.707   0.404   1.686 -0.1432  0.0756  0.1993
20434W        W39968   1.707   0.247   3.255 -0.1672 -0.0992 -0.0304
20435W        W39969   2.655  15.908  14.527  0.2344  0.0582 -0.2074
20436W        W39970   6.999  13.300   4.460  0.2674  0.1438 -0.0162
20437W        W39971  13.941   6.608   0.999  0.0803  0.2544 -0.3696
20438W        W39972   2.507   0.820   4.245  0.1280 -0.0132  0.1309
20439W        W39973   6.072  13.281   0.320 -0.2595 -0.0379  0.1013
20440W        W39974   6.728   0.578   5.058 -0.0670 -0.0428  0.1719
20441W        W39975   6.408  12.936   0.278  0.0865  0.0323  0.2453
20442W        W39976   0.550   5.579  15.426 -0.4201 -0.0634 -0.1151
20443W        W39977  11.441  13.581  14.801  0.1117 -0.1938 -0.0446
20444W        W39978   2.222   8.375  14.633 -0.1962  0.1466 -0.2263
20445W        W39979   7.845   5.886   1.696  0.0915 -0.1861  0.1022
20446W        W39980  15.285   6.748   1.036 -0.2517  0.7494 -0.3833
20447W        W39981   1.636  12.413  12.708 -0.0616  0.1829  0.0436
20448W        W39982  11.262  10.691   1.243  0.0234 -0.0407  0.0597
20449W        W39983  16.024  10.133  13.778  0.2028 -0.0269 -0.2974
20450W        W39984  12.302  13.067   0.663 -0.1752 -0.2468 -0.5825
20451W        W39985  14.157   6.066  16.363 -0.3412 -0.0958  0.0302
20452W        W39986   7.928   8.421   1.129  0.0501 -0.1433 -0.1166
20453W        W39987   0.131   4.555   2.974  0.2012 -0.0454  0.1339
20454W        W39988  13.356  16.037   5.496 -0.0926 -0.2853 -0.1952
20455W        W39989  13.989   5.131  16.224  0.2808  0.1095 -0.1445
20456W        W39990  10.275   5.831   4.428  0.0557 -0.2001  0.4022
20457W        W39991   7.539  10.935  13.395 -0.0972  0.2097 -0.0201
20458W        W39992   9.627   5.530  16.487  0.3536 -0.3055 -0.3280
20459W        W39993   6.435   6.595  16.748 -0.0850 -0.0372 -0.0264
20460W        W39994   1.538   5.372   0.587 -0.1563  0.1430 -0.2611
20461W        W39995   4.605  16.779  13.039  0.0592  0.0666  0.0977
20462W        W39996   1.398   6.142  15.047 -0.1578 -0.0901  0.0148
20463W        W39997   4.731   3.223  16.315  0.1108  0.2971  0.0193
20464W        W39998  14.542  14.662  12.242  0.1553  0.0279  0.1808
20465W        W39999  12.865   9.062  13.427 -0.2884 -0.1289 -0.0130
20466W        W40000   0.374   5.751  12.549 -0.1006  0.0380  0.0718
20467W        W40001   0.406   7.356  15.828 -0.1778 -0.2959  0.1907
20468W        W40002   5.008   7.679   2.431 -0.0708  0.3841 -0.0234
20469W        W40003   2.369   4.185   0.806  0.0331 -0.3142 -0.1847
20470W        W40004  10.532  15.157  13.995  0.0882  0.1539 -0.0214
20471W        W40005   3.723   1.719   4.464 -0.0849 -0.1494  0.0962
20472W        W40006   1.969   6.204   3.641  0.1466 -0.0173  0.0159
20473W        W40007   4.558   2.801  14.658  0.0624  0.0473  0.0487
20474W        W40008  12.280  10.213  16.419  0.4704  0.0739  0.1062
20475W        W40009  16.371  10.790  13.066 -0.0400  0.1699  0.2557
20476W        W40010   3.974   0.698   4.601 -0.0643  0.3072  0.2041
20477W        W40011   5.413  10.380  15.307 -0.0977 -0.0752  0.2351
20478W        W40012  12.567   9.078   3.326  0.0338  0.2009  0.1662
20479W        W40013   8.471   9.159  14.579  0.1846 -0.1450 -0.1757
20480W        W40014  13.187  17.068  14.757 -0.2038 -0.0178  0.0047
20481W        W40015  13.242   4.215  12.586 -0.0328 -0.0311 -0.2054
20482W        W40016   0.332   0.016   5.062  0.0985 -0.1870 -0.2086
20483W        W40017  11.904   8.554  15.100  0.2829  0.0548 -0.1388
20484W        W40018  10.091  14.731   2.700 -0.1100  0.0212 -0.0251
20485W        W40019   7.798   1.731   4.535 -0.2354 -0.0632  0.2873
20486W        W40020   8.748  10.415  14.155  0.0663 -0.3167 -0.3841
20487W        W40021   3.928   5.006   1.041  0.0372  0.2320 -0.1439
20488W        W40022   5.595   2.741  15.167  0.2608  0.0504 -0.0018
20489W        W40023   7.008  14.285  12.986  0.0576 -0.2218  0.0360
20490W        W40024  12.388  13.297  16.115 -0.0946  0.2506 -0.0555
20491W        W40025  11.216  10.584   4.945  0.2078  0.0846 -0.0642
20492W        W40026  13.545   0.873  16.975  0.0119  0.1650  0.3174
20493W        W40027  13.346  13.578   4.508  0.2111 -0.0044  0.1053
20494W        W40028   2.177   4.212  13.104  0.0460 -0.0691 -0.2704
20495W        W40029  13.602   4.741   1.130  0.0875  0.0724  0.1216
20496W        W40030  13.020   2.966  16.423  0.1662 -0.3310 -0.0148
20497W        W40031   4.458   4.762   1.806 -0.2327 -0.3763 -0.0651
20498W        W40032   4.241  12.703  12.185 -0.0783  0.0408  0.1047
20499W        W40033   8.047   0.291   3.952 -0.3413  0.2732 -0.2316
20500W        W40034  14.509  13.982   0.094  0.2719  0.2095 -0.1061
20501W        W40035   4.034   6.359  12.375  0.0020 -0.0478 -0.1108
20502W        W40036   5.156   5.510   3.807 -0.2208  0.0936 -0.0198
20503W        W40037  16.002  12.127   0.547  0.0274 -0.0941 -0.0023
20504W        W40038  13.310   3.602  15.056  0.0594  0.3439  0.2983
20505W        W40039   3.944   5.069  14.342 -0.0633 -0.1934 -0.2638
20506W        W40040  13.884  14.089  16.302  0.2123  0.1551  0.3607
20507W        W40041  12.586   0.901   1.385  0.0635  0.1706 -0.1959
20508W        W40042  10.029   3.956  16.004 -0.1309 -0.2044  0.0457
20509W        W40043   9.161   2.254   1.255 -0.0944  0.2057 -0.1249
20510W        W40044   4.817  11.596   2.574 -0.0001  0.1298 -0.3328
20511W        W40045  15.298  13.809   4.576 -0.0193  0.2409 -0.1033
20512W        W40046   3.853  12.175   3.822  0.1253 -0.3507  0.0588
20513W        W40047   4.785  15.921   1.370  0.1115  0.0159  0.0816
20514W        W40048  15.729  14.184   0.657  0.3263 -0.0439 -0.1465
20515W        W40049   7.373   0.950  14.235  0.0820 -0.2945 -0.1207
20516W        W40050   7.938   4.074  11.068 -0.0688  0.0174 -0.0430
20517W        W40051   0.045  17.064  12.386 -0.1904  0.0849  0.1019
20518W        W40052   6.329   8.584   4.154 -0.2245  0.0138  0.1721
20519W        W40053  10.057   6.885  14.516 -0.1205 -0.2007  0.0237
20520W        W40054   4.090   0.735   5.078  0.2738 -0.1150 -0.1793
20521W        W40055   1.210  13.862   4.202 -0.1137 -0.0421  0.2950
20522W        W40056   0.991   2.620  16.550  0.2608 -0.0517 -0.1464
20523W        W40057   0.464   8.880  16.528  0.2869  0.0174  0.0494
20524W        W40058  15.207  16.438   1.460 -0.0169 -0.1204  0.1708
20525W        W40059  14.469  12.886  13.507 -0.1764  0.1330 -0.0556
20526W        W40060  16.463  12.505  15.973 -0.1012  0.0170 -0.0193
20527W        W40061   7.851   4.267   6.041  0.3071  0.0423  0.1117
20528W        W40062  14.307   7.058  13.830  0.2129  0.1107 -0.0419
20529W        W40063  14.235   7.256   4.662 -0.0222 -0.1045  0.1374
20530W        W40064   1.414  14.639  11.959 -0.1338 -0.0598 -0.1055
20531W        W40065   8.942   9.061   4.649 -0.0902 -0.1975  0.0250
20532W        W40066   4.678  16.446   3.644  0.1824  0.1059  0.2306
20533W        W40067   8.892  14.242  15.459  0.2419 -0.0819  0.0460
20534W        W40068   7.321  12.535  11.534 -0.0348 -0.2676  0.1054
20535W        W40069   2.477  15.435   0.469 -0.3245 -0.1799 -0.2076
20536W        W40070  15.925   5.752   1.809 -0.2074 -0.1967  0.1080
20537W        W40071   8.160  16.775  12.290  0.3059 -0.0900 -0.0764
20538W        W40072   0.011  10.031  16.146  0.0225  0.2030 -0.1703
20539W        W40073   6.876  11.706  16.987 -0.0024  0.1298  0.0297
20540W        W40074   9.798  16.154   4.657 -0.1273 -0.2181 -0.1395
20541W        W40075   9.393  10.751   2.887  0.0279 -0.0441  0.1797
20542W        W40076   7.547   3.010  12.523  0.0683 -0.0351 -0.2565
20543W        W40077  16.649   1.851   3.970  0.4160  0.0109  0.2030
20544W        W40078  17.489   0.888  12.742  0.0018  0.2775 -0.3184
20545W        W40079  12.022   1.507  13.150  0.0248  0.3594  0.0754
20546W        W40080  13.101  15.604   2.138  0.1526 -0.3474 -0.3310
20547W        W40081   6.718   5.342  16.344  0.1207 -0.0345  0.0910
20548W        W40082   6.202  12.017   3.498 -0.0948  0.0393  0.3428
20549W        W40083  12.617  13.068  16.524  0.2260  0.3092  0.1166
20550W        W40084   3.477  11.587  16.825  0.1334  0.0744  0.4281
20551W        W40085   4.721  10.785  15.178 -0.0979  0.0595 -0.0406
20552W        W40086   6.274   2.027  12.783  0.0851  0.2021  0.1013
20553W        W40087   8.022   2.276   3.243 -0.3759 -0.2243  0.0316
20554W        W40088  13.875   0.796  14.775 -0.2930 -0.0582 -0.0447
20555W        W40089   3.535   7.191  15.677 -0.2044  0.0914 -0.2742
20556W        W40090   5.125   9.214   0.359 -0.1487  0.3834  0.0497
20557W        W40091   1.752  15.147   3.057  0.2952  0.0041  0.1122
20558W        W40092   0.391  16.828  14.816 -0.1827 -0.0500  0.2347
20559W        W40093  11.523   4.598  16.566 -0.0034 -0.2045  0.2965
20560W        W40094  13.722  11.912  15.598  0.1407 -0.1264  0.1330
20561W        W40095   5.969   6.070  14.419  0.1179 -0.0245  0.1957
20562W        W40096   3.119   1.358   1.440  0.1286  0.2219 -0.1552
20563W        W40097  16.233   9.888  15.537  0.4026  0.0972 -0.0964
20564W        W40098   2.914   0.467   2.429  0.0703  0.0087 -0.0289
20565W        W40099   8.559   2.707  14.413 -0.1301  0.0470  0.1365
20566W        W40100  16.360   0.700   3.065 -0.1405 -0.2235 -0.5582
20567W        W40101   0.684   5.082   1.679 -0.2510 -0.1114  0.1034
20568W        W40102   8.103   6.951  14.019  0.0773 -0.1362 -0.2528
20569W        W40103   2.687  16.977  16.870  0.1401 -0.0341  0.1652
20570W        W40104  10.806  11.206  16.903  0.2555 -0.1520 -0.1599
20571W        W40105   5.400   2.358  12.630  0.0852  0.2902 -0.2292
20572W        W40106   9.331   1.606  13.380  0.0487  0.0883  0.1369
20573W        W40107  15.556   7.428  14.343  0.0156  0.0632  0.0140
20574W        W40108   0.183  10.717   3.775 -0.1542 -0.1408  0.2668
20575W        W40109   0.477   0.920  13.261 -0.2562  0.0972  0.1620
20576W        W40110  13.690  15.692   5.245  0.1254 -0.1048 -0.0851
20577W        W40111   5.594  13.924   2.117  0.1278 -0.0146  0.2350
20578W        W40112   7.416   4.123   2.407  0.0577  0.0855 -0.0127
20579W        W40113  10.389   9.848  13.721 -0.3431  0.1817  0.2468
20580W        W40114   5.038   4.791  15.252  0.0837  0.1050 -0.0734
20581W        W40115   9.037   5.924  14.982  0.4297  0.1313 -0.0078
20582W        W40116  13.335   3.517  14.553  0.2153 -0.1700 -0.1745
20583W        W40117  11.378   5.021   4.092  0.2986  0.0745  0.0690
20584W        W40118   6.866   7.984   3.188 -0.3899 -0.3276 -0.0608
20585W        W40119   9.017  11.495   4.126 -0.1015 -0.1467  0.1278
20586W        W40120   4.894   2.187   1.057  0.1153 -0.0367  0.0089
20587W        W40121   3.438   8.909  14.964 -0.1124  0.0868 -0.2353
20588W        W40122  11.901   6.139   4.859  0.0400  0.1629 -0.0666
20589W        W40123  12.098  17.475   2.935  0.0195 -0.0717 -0.0580
20590W        W40124   4.268  11.016  13.443  0.0095  0.0974 -0.0196
20591W        W40125  13.761   4.111  14.582 -0.2121  0.0521  0.1183
20592W        W40126  17.529   8.485   4.359  0.2173 -0.0150 -0.1357
20593W        W40127  14.908   3.394  13.360 -0.1270  0.1105  0.3243
20594W        W40128  14.995   4.316  14.936  0.0202  0.1498 -0.0399
20595W        W40129  14.200  16.574   1.887 -0.2965  0.0352 -0.1217
20596W        W40130   6.910   7.610  13.404 -0.3304 -0.1320 -0.1369
20597W        W40131  16.713   3.808   4.802  0.2326 -0.0769  0.1706
20598W        W40132   3.523   3.589  12.663 -0.4117 -0.2153  0.0972
20599W        W40133   4.296  14.344   0.928 -0.2083 -0.2715  0.2867
20600W        W40134   5.513   2.041  15.624  0.0762  0.3583 -0.0534
20601W        W40135  12.701   0.522   0.481  0.0295  0.0016 -0.1571
20602W        W40136  16.187  10.838   3.291  0.1585  0.0284 -0.0399
20603W        W40137   6.349   1.425   1.869  0.0773 -0.1531  0.1303
20604W        W40138  13.655   1.255   0.141 -0.3013  0.2908 -0.1260
20605W        W40139  10.964   9.153  14.563 -0.1606 -0.3320  0.3307
20606W        W40140   1.796   7.215  12.374 -0.0044 -0.1056 -0.1013
20607W        W40141   5.554  10.893   1.242  0.0222 -0.2391  0.3000
20608W        W40142   4.670   5.326   4.636  0.1436  0.0208 -0.0981
20609W        W40143  12.739   3.418   0.119 -0.1877 -0.0198  0.0979
20610W        W40144   3.472   0.986  13.865 -0.1051  0.1145  0.0837
20611W        W40145   0.922   1.419   0.069 -0.1485  0.0143  0.0736
20612W        W40146  16.617  14.514  16.241  0.0455  0.1568 -0.0902
20613W        W40147  15.110   2.371  16.160  0.0456 -0.2115 -0.0095
20614W        W40148   0.006   9.334   3.448  0.0656  0.1913 -0.1390
20615W        W40149   2.912   6.783   1.229 -0.0480  0.0974  0.2226
20616W        W40150   5.391   9.096  12.671  0.1098  0.0708 -0.0813
20617W        W40151  11.245  13.083  10.944 -0.0337  0.2143  0.1388
20618W        W40152  10.505  16.756  12.848 -0.1343 -0.1022 -0.0530
20619W        W40153   3.095   7.686  13.329 -0.0767  0.1634  0.1678
20620W        W40154   2.718   6.410  15.052  0.0004 -0.1511  0.0610
20621W        W40155   1.514  11.361   3.355 -0.1552 -0.2117  0.1096
20622W        W40156   9.443   1.914   0.398  0.0652  0.3112  0.1423
20623W        W40157  13.808   4.250   4.056 -0.1491  0.1344  0.2102
20624W        W40158   3.199   0.975  16.681 -0.0703  0.1137 -0.0024
20625W        W40159   6.046   9.709   0.068 -0.0772 -0.0461 -0.3089
20626W        W40160  16.314  13.180  15.485 -0.1585  0.0500 -0.1392
20627W        W40161  13.373  13.462  15.158  0.0592 -0.0929 -0.2768
20628W        W40162  11.901   5.985   2.344 -0.1976  0.1392 -0.1041
20629W        W40163  13.401   9.919  15.188 -0.3586 -0.3836 -0.0311
20630W        W40164  12.861   1.247   3.472 -0.2472 -0.0128 -0.2569
20631W        W40165  10.454  14.319   3.470 -0.1602  0.2035 -0.0537
20632W        W40166  10.360  10.993   0.120 -0.0390  0.0335 -0.0062
20633W        W40167   0.919  10.253   1.522 -0.0249  0.3429  0.0933
20634W        W40168  10.108   4.200  16.956 -0.1461  0.1063  0.1957
20635W        W40169  15.197   4.942  15.721  0.2482 -0.0262 -0.1833
20636W        W40170  16.288  12.441   5.402 -0.0932  0.0605  0.0257
20637W        W40171  16.866  17.604  13.407  0.0295 -0.5098 -0.0911
20638W        W40172   5.969   0.648   4.618 -0.2513 -0.1517 -0.4053
20639W        W40173  11.632  11.333   1.423 -0.0304  0.1192  0.1343
20640W        W40174  14.759   9.610  13.399 -0.0214  0.0474  0.0984
20641W        W40175  15.880   5.148  14.256 -0.1712 -0.2149 -0.0774
20642W        W40176   4.135   1.480   3.510 -0.0255 -0.0096  0.0262
20643W        W40177   1.164   8.030   2.018 -0.1479  0.0425  0.3166
20644W        W40178  13.375   9.403  14.307 -0.1392 -0.2544  0.0321
20645W        W40179  13.842  11.319  17.047 -0.1014  0.1655  0.2158
20646W        W40180  13.971   2.724   3.880 -0.0711 -0.0485  0.0075
20647W        W40181   9.205   8.875   2.716  0.0683 -0.3262  0.0030
20648W        W40182   2.682  14.661   4.465 -0.4176 -0.0153 -0.0488
20649W        W40183   9.330  17.017  14.446 -0.0665 -0.0647  0.1235
20650W        W40184  15.130   5.050   4.693 -0.0587  0.2800 -0.0787
20651W        W40185   3.952   3.332  16.096 -0.0179  0.0235  0.2061
20652W        W40186   4.097  11.190   1.295 -0.2969  0.0075 -0.1106
20653W        W40187   5.880  14.317   0.533 -0.0076  0.0900 -0.1973
20654W        W40188  12.617   1.022  15.167 -0.0577  0.1570  0.2196
20655W        W40189   4.406   8.492   2.544  0.1278  0.1646 -0.1011
20656W        W40190   0.018  15.783  16.794  0.1341 -0.2848 -0.0838
20657W        W40191  16.777  11.427   4.241 -0.1882 -0.0459  0.3661
20658W        W40192   8.864  16.559   4.922  0.1259  0.0798 -0.0744
20659W        W40193   4.203   5.609  16.102 -0.2380 -0.1394 -0.2555
20660W        W40194   3.235  15.713  16.290  0.2960  0.1187  0.0358
20661W        W40195   4.311  13.650   5.137 -0.1443 -0.0310  0.0584
20662W        W40196   0.166   0.966   3.067 -0.3137  0.2506  0.2185
20663W        W40197   5.936   0.865   1.202  0.1435  0.0741 -0.1965
20664W        W40198  13.103   0.506   3.184 -0.0410  0.2854  0.3658
20665W        W40199  16.822  10.377  14.346  0.1338 -0.0754  0.0122
20666W        W40200  14.942   0.924   2.834  0.1267 -0.1731 -0.1126
20667W        W40201  15.707  15.750  15.779  0.0313  0.1094  0.0450
20668W        W40202  14.445   8.623  14.705 -0.1112  0.2614 -0.1632
20669W        W40203  16.477   2.601  13.346  0.2126  0.3118 -0.0084
20670W        W40204   1.459  10.942   4.898 -0.0112  0.1128  0.0734
20671W        W40205   3.488  11.152   0.161 -0.0260  0.2124 -0.0231
20672W        W40206   5.917  13.567   4.503  0.0709  0.0243 -0.1535
20673W        W40207   0.359  14.870   1.102  0.0641  0.3976 -0.0097
20674W        W40208  16.606   8.556   4.946  0.4956 -0.0069 -0.2166
20675W        W40209   1.977   5.010  12.333  0.1523 -0.0620  0.0405
20676W        W40210   7.420   4.303  16.867  0.4517  0.0204 -0.0299
20677W        W40211   0.946   1.693   2.432 -0.3179  0.0988 -0.0100
20678W        W40212   8.812  11.626  16.338 -0.1924 -0.0729  0.2590
20679W        W40213   8.152   4.452  11.392 -0.3211 -0.1641 -0.0795
20680W        W40214   3.806  13.611  14.644 -0.2560  0.1132 -0.1701
20681W        W40215  12.475  17.349   1.502 -0.0860 -0.3141 -0.1776
20682W        W40216   4.088  16.518  15.052 -0.1451  0.1159  0.0199
20683W        W40217   6.220   9.136   3.379 -0.0824  0.0470  0.1478
20684W        W40218   6.620  14.991  15.728  0.0710 -0.0943  0.0191
20685W        W40219   4.388   5.847   3.339 -0.0167  0.0851 -0.3530
20686W        W40220   0.801  11.966  16.595  0.1354 -0.2425  0.0683
20687W        W40221   0.766   5.688   0.318 -0.0321 -0.3045 -0.1090
20688W        W40222   6.307   7.034  15.917  0.1460  0.0698  0.0101
20689W        W40223   0.715   1.305  15.064  0.1277  0.0491  0.0592
20690W        W40224   5.416   1.896   2.838  0.0697  0.4988 -0.1115
20691W        W40225  11.672  15.600   2.527  0.1773 -0.1939 -0.0576
20692W        W40226  14.440   7.820  12.457  0.2660 -0.1768 -0.0850
20693W        W40227   4.121   8.079  14.085  0.1031 -0.1678 -0.1108
20694W        W40228  12.216  14.804   0.231 -0.0575  0.2832  0.2427
20695W        W40229  14.541   3.695  16.624  0.1653 -0.0147  0.3600
20696W        W40230  17.023  15.559  14.255 -0.2734  0.3276  0.0554
20697W        W40231  10.077   6.210  12.207 -0.0332  0.2143 -0.3267
20698W        W40232  10.555  16.626  13.919  0.1826  0.1251  0.4247
20699W        W40233   0.543   4.315   3.251 -0.0228  0.1116  0.0503
20700W        W40234   8.936  14.528  14.962 -0.3432 -0.0001 -0.0094
20701W        W40235  15.857   9.626  15.201  0.2320 -0.0621 -0.0404
20702W        W40236   7.394   8.406  13.290  0.0970 -0.0523 -0.1441
20703W        W40237  14.781   2.242   2.257 -0.3218  0.0983  0.0491
20704W        W40238   8.932   3.031   4.815  0.5250  0.2169 -0.2802
20705W        W40239   3.326   8.215  15.798 -0.0926  0.2992 -0.0724
20706W        W40240  14.890   9.486   0.692  0.3222  0.0401  0.2552
20707W        W40241   5.670  17.142   2.866  0.3233 -0.3952  0.0548
20708W        W40242  13.528  13.824  16.060 -0.0415 -0.1767  0.0423
20709W        W40243  15.150   7.098  11.976  0.1665 -0.1730  0.3438
20710W        W40244  10.251   3.039  12.537  0.0607  0.3032 -0.0092
20711W        W40245   7.483  16.484  12.862 -0.0653 -0.2829 -0.0693
20712W        W40246   0.025  10.851   0.689  0.3636 -0.0206  0.1592
20713W        W40247   3.455   6.625   4.832  0.3190  0.4992 -0.2030
20714W        W40248   4.581   7.020   1.883 -0.3857 -0.1001  0.2008
20715W        W40249   4.086   7.079  15.058  0.2359  0.0236 -0.4937
20716W        W40250   1.006   8.919   1.637  0.1380 -0.2054 -0.0959
20717W        W40251   7.006  16.904   3.487 -0.2041 -0.1180 -0.0161
20718W        W40252   0.860  12.833  14.269  0.0368 -0.1370 -0.0312
20719W        W40253   6.664  12.895   1.431  0.2457  0.0996  0.2134
20720W        W40254   1.632   8.097  16.573 -0.1958 -0.0080 -0.0641
20721W        W40255   6.559  12.424   1.040  0.0365 -0.3639 -0.0495
20722W        W40256   7.895   0.548  13.655 -0.1058  0.1889 -0.3280
20723W        W40257   5.705  16.237   2.283  0.0207  0.1424 -0.1477
20724W        W40258  11.958  16.920  15.259  0.0127 -0.0161 -0.0493
20725W        W40259   1.314   0.751   1.820 -0.3129  0.2403 -0.0683
20726W        W40260  16.019   1.310  16.565  0.1945  0.0133 -0.2514
20727W        W40261   7.676  13.109  15.751 -0.0077  0.2094  0.3660
20728W        W40262  12.027   3.124  15.363 -0.2391  0.0414 -0.0686
20729W        W40263   5.428  14.076   0.383 -0.0293 -0.0884 -0.0359
20730W        W40264  10.474   5.414  13.644 -0.2359 -0.2794  0.0440
20731W        W40265  17.639   4.146   0.838  0.2521 -0.0727 -0.0182
20732W        W40266  11.638  10.455  12.385  0.1717 -0.1282 -0.0805
20733W        W40267   5.722  12.329   0.158  0.0166  0.3136 -0.0026
20734W        W40268   1.634   0.512   2.143 -0.1879 -0.1898  0.2678
20735W        W40269   6.470   4.950  16.593 -0.1202 -0.0396 -0.0306
20736W        W40270  16.840   2.621   1.291  0.2878  0.4320 -0.0805
20737W        W40271   0.941   6.011  11.499 -0.0553 -0.1445  0.0244
20738W        W40272   6.437  17.001  12.490  0.0596 -0.1877  0.0392
20739W        W40273   2.645   8.245   4.674  0.0651 -0.1275  0.0612
20740W        W40274   4.943   7.025  14.654  0.1494 -0.1740  0.2072
20741W        W40275   4.783   3.781  13.684 -0.0802  0.2798 -0.0728
20742W        W40276   6.447   9.793   2.300 -0.0882 -0.1661 -0.0387
20743W        W40277  11.792   7.005   4.740  0.2074 -0.3692  0.0247
20744W        W40278   8.504   7.484   2.264  0.1919  0.0875 -0.0755
20745W        W40279  10.474  15.954  15.258 -0.3393 -0.0654  0.2256
20746W        W40280  13.268  14.883  14.980  0.1167  0.0457 -0.0285
20747W        W40281  15.189   1.732   3.512 -0.2266  0.0683 -0.1127
20748W        W40282  17.577  10.540   2.395 -0.0869 -0.0791 -0.2581
20749W        W40283  16.057   1.026   4.291 -0.0346 -0.0172  0.0025
20750W        W40284  15.547  12.402   2.855  0.3197  0.0065  0.0278
20751W        W40285   8.751   1.475  13.321 -0.0436  0.2311 -0.3319
20752W        W40286   4.232  13.246  16.216  0.0571  0.0513  0.0323
20753W        W40287  16.739   6.896   3.969 -0.0224 -0.0513  0.1332
20754W        W40288   0.881   9.355   1.419  0.0850  0.0359 -0.2626
20755W        W40289   7.234  14.178   2.647 -0.0192 -0.0575 -0.2810
20756W        W40290   2.859  11.198   0.436 -0.0486  0.0290  0.1199
20757W        W40291   7.497   0.969   4.478  0.0783  0.4914 -0.0361
20758W        W40292   1.255   1.257  15.598  0.1636  0.2053 -0.2335
20759W        W40293   5.267   9.869  13.530  0.0031 -0.0023  0.0156
20760W        W40294   1.579  12.172  11.695 -0.0024  0.2653 -0.0241
20761W        W40295  16.325  10.394   4.112  0.0468  0.2204  0.0068
20762W        W40296   9.463   3.022   2.600  0.1939  0.2363  0.0041
20763W        W40297  11.320   2.590   3.182 -0.0199 -0.1918 -0.1398
20764W        W40298  11.919  14.116  12.547  0.0141  0.3065 -0.0720
20765W        W40299   0.671  14.877   0.312 -0.0846  0.0440  0.0570
20766W        W40300   7.252  11.654  11.999 -0.0351  0.1306 -0.0724
20767W        W40301   6.567  13.253   4.173  0.3655  0.1261  0.0890
20768W        W40302  14.561   3.246  16.960 -0.4293  0.2245 -0.0168
20769W        W40303  12.218  12.255  13.374  0.1551 -0.0721  0.1015
20770W        W40304  14.042   2.411   5.374 -0.2432  0.4491  0.0427
20771W        W40305  17.478   0.851   2.423 -0.1544 -0.1126  0.2215
20772W        W40306  14.341  10.804  15.265  0.0740  0.1361  0.0194
20773W        W40307   2.520  10.882  14.294  0.3218  0.0466 -0.1667
20774W        W40308  15.574   0.237   4.052 -0.0025 -0.0003 -0.0790
20775W        W40309   3.129   3.569  16.426 -0.2623 -0.0773  0.1160
20776W        W40310  15.300   8.649   4.404  0.0484 -0.1364  0.2028
20777W        W40311   5.711  11.135  15.789  0.3618 -0.2283 -0.1522
20778W        W40312  14.438   2.163   3.057  0.0154  0.1898 -0.0149
20779W        W40313   2.400  14.292  13.930  0.0332 -0.2275 -0.0166
20780W        W40314  16.536   3.350  12.664  0.1680  0.1113 -0.2488
20781W        W40315   0.183  14.532  12.446 -0.3419 -0.0083  0.0352
20782W        W40316   3.798  14.818  14.991 -0.4052  0.0330 -0.0820
20783W        W40317   6.204   4.966   1.317 -0.2092  0.2445  0.4733
20784W        W40318   5.219   7.303   4.950  0.0729 -0.0389  0.4096
20785W        W40319   9.225   8.814  15.056  0.2557 -0.1300  0.1325
20786W        W40320   5.887   2.872   4.106  0.1917  0.2579 -0.0682
20787W        W40321   2.717  15.261   0.063 -0.1856  0.1102 -0.0711
20788W        W40322  11.881   5.509  13.896 -0.0457 -0.4517  0.1701
20789W        W40323  16.905   7.236  16.160  0.1238  0.1868  0.1021
20790W        W40324  10.547  14.127  16.972  0.0662  0.1920  0.2317
20791W        W40325   2.469   2.756   4.456  0.2255 -0.1281  0.0273
20792W        W40326   6.985   9.092  14.164 -0.1173 -0.1692  0.1637
20793W        W40327   7.563  14.203  14.942 -0.0845  0.4325 -0.2305
20794W        W40328   4.326  12.318  13.602 -0.2110  0.0058 -0.1656
20795W        W40329  12.131   4.484  12.582 -0.0794  0.1813  0.2761
20796W        W40330  15.475   3.349   2.578  0.1300 -0.1657  0.1062
20797W        W40331  14.042  12.077   2.303 -0.1455 -0.0561  0.0719
20798W        W40332   9.150  15.762   4.532  0.2272 -0.2073  0.0931
20799W        W40333   1.075   6.564   0.231  0.1558  0.0248 -0.1963
20800W        W40334   2.714   7.374  16.650 -0.1472  0.2492  0.2801
20801W        W40335  14.184  16.215   0.161 -0.0366 -0.0391 -0.1436
20802W        W40336   2.675   6.252   0.434  0.1750 -0.0005  0.2093
20803W        W40337   3.167   5.753  12.465  0.0553  0.1398 -0.3789
20804W        W40338   2.803  14.686  16.884 -0.2281 -0.1112 -0.1370
20805W        W40339   9.718   6.352   2.507 -0.3559 -0.0794 -0.2603
20806W        W40340   7.692   1.724  15.587  0.1926 -0.0531  0.0932
20807W        W40341  14.274   6.341  12.171 -0.1011 -0.0480  0.0824
20808W        W40342  16.590   6.582  15.004  0.3080  0.1433 -0.1368
20809W        W40343   2.027  10.526  16.257  0.1091 -0.1844 -0.1548
20810W        W40344  15.918  16.391  12.880  0.0180  0.1634 -0.0629
20811W        W40345   7.252  12.294  16.518  0.1891 -0.0342 -0.1495
20812W        W40346  15.886   6.973  15.143  0.0072  0.1947  0.1817
20813W        W40347  10.654  16.681  15.078 -0.0340  0.1664  0.0503
20814W        W40348   9.315   9.650  16.978 -0.0990  0.0070 -0.0824
20815W        W40349  15.161   0.031   2.859  0.2467  0.2853  0.2567
20816W        W40350   6.575  13.135   1.896 -0.0732 -0.0875 -0.0452
20817W        W40351   9.354  13.091   2.905  0.0745 -0.1430  0.2787
20818W        W40352   8.825  12.753   3.065 -0.1151 -0.2542  0.0568
20819W        W40353  12.714  10.147  16.106 -0.4841 -0.1973  0.1384
20820W        W40354   0.229   3.157  12.577 -0.1241  0.1945 -0.1340
20821W        W40355  12.828   1.014   3.961 -0.0487  0.1743 -0.0364
20822W        W40356   8.330   7.937   1.651 -0.4472  0.2235 -0.3321
20823W        W40357  15.074   6.036   0.346 -0.2864  0.1054 -0.2382
20824W        W40358  17.214   3.248   0.555  0.1828 -0.2535  0.0678
20825W        W40359  10.431   7.730   1.611  0.0049  0.3430  0.1490
20826W        W40360  11.893   6.331  15.498  0.1515  0.2249 -0.4161
20827W        W40361  17.140   9.270   1.134 -0.0377 -0.1340 -0.0817
20828W        W40362  13.757  11.238   3.812  0.1642 -0.0485 -0.2523
20829W        W40363   8.860  10.045   4.839 -0.1209  0.1090 -0.0057
20830W        W40364  17.179   6.237   3.766 -0.0747  0.3802  0.0965
20831W        W40365   0.733   8.606  16.837  0.1270 -0.0277 -0.0547
20832W        W40366  15.107   7.356   1.405 -0.1641  0.1038  0.1584
20833W        W40367   6.782  12.205  16.340 -0.1577  0.0664 -0.1177
20834W        W40368   0.620  13.488   0.720  0.0706  0.2800 -0.1561
20835W        W40369   7.856   3.313   3.390  0.1581 -0.2635  0.1136
20836W        W40370   2.725   4.256  12.349 -0.1489 -0.2873 -0.2142
20837W        W40371   8.493  12.895  16.056  0.0531 -0.0168 -0.2677
20838W        W40372   6.081  13.596  13.556 -0.1757 -0.0629 -0.3174
20839W        W40373  11.440   0.722   0.404 -0.1742  0.0157 -0.2842
20840W        W40374   3.420  13.112  15.912 -0.1932 -0.0756 -0.5959
20841W        W40375  11.778   2.580  16.178 -0.1654  0.1689  0.1430
20842W        W40376   7.810   7.619  13.255  0.1816 -0.1928 -0.0250
20843W        W40377   9.567   9.606  16.406  0.1755  0.0535  0.1154
20844W        W40378   5.999   4.594   3.842  0.1102 -0.1301  0.0445
20845W        W40379   9.911   7.726  14.815  0.2223  0.2846 -0.3174
20846W        W40380   7.548   9.792   1.154 -0.1008 -0.0203  0.0066
20847W        W40381   1.736  16.811  14.735  0.0943  0.0220 -0.0525
20848W        W40382  11.425   9.088   1.919 -0.3389  0.0220  0.1379
20849W        W40383   5.836  13.814   2.919 -0.0431 -0.1611  0.0236
20850W        W40384  13.984   9.259   0.266  0.1852  0.0252 -0.0263
20851W        W40385  11.944   4.294  12.100 -0.2529  0.1229  0.0076
20852W        W40386  12.650  16.664  14.337  0.3610  0.1347  0.1662
20853W        W40387   5.575   8.745   3.617  0.0769 -0.0221  0.1418
20854W        W40388   5.856  10.453  16.217  0.1067  0.1890  0.0004
20855W        W40389  12.198  14.624  15.305  0.2322 -0.0173  0.2220
20856W        W40390  11.884   5.243   1.998 -0.0176 -0.1564 -0.1197
20857W        W40391   6.219   7.400   3.801 -0.2210  0.0874 -0.0183
20858W        W40392   2.817  14.502  13.038 -0.2430 -0.0116  0.2626
20859W        W40393  12.418   3.890  15.830 -0.0975 -0.1278 -0.1441
20860W        W40394  14.109   1.411   0.268 -0.0533 -0.0328  0.0166
20861W        W40395  11.134   3.205   3.531  0.2881 -0.0389  0.1716
20862W        W40396  10.062  13.747   3.339 -0.0622 -0.2001  0.1598
20863W        W40397  13.295  12.025   1.599 -0.0226  0.1274  0.0200
20864W        W40398   9.381   1.978  15.388  0.3979  0.0199 -0.0289
20865W        W40399  13.419   0.607  16.072  0.1164 -0.1749  0.0882
20866W        W40400  12.430   5.076   4.684 -0.3308 -0.2376 -0.3819
20867W        W40401  15.282   6.283   3.436 -0.2278 -0.2483  0.1634
20868W        W40402   2.853  17.047  13.088 -0.2043  0.1880  0.0637
20869W        W40403   4.310  13.924   2.562 -0.0528  0.0856  0.1598
20870W        W40404  17.268  15.637   3.851 -0.1378  0.2918 -0.3721
20871W        W40405   8.857  12.139   3.843 -0.1922 -0.0355  0.3143
20872W        W40406  13.453   2.294   4.155 -0.0577  0.1066  0.2311
20873W        W40407   2.849  16.116  13.436  0.0609 -0.0502 -0.3077
20874W        W40408  15.299   6.267  15.917 -0.1543 -0.1856  0.0780
20875W        W40409  12.158  10.179  15.948  0.0900  0.2340  0.0836
20876W        W40410   5.618  14.450  11.957 -0.0284  0.1699 -0.1818
20877W        W40411  15.427   8.860   3.638  0.0833 -0.1609  0.1768
20878W        W40412   3.013   0.364  13.517  0.4220  0.1322  0.1073
20879W        W40413   6.609   3.174  13.969  0.0983 -0.1707  0.2741
20880W        W40414   1.342   3.111   3.709  0.0930  0.1770 -0.1356
20881W        W40415   7.752  14.462  15.902 -0.2069  0.1875  0.0867
20882W        W40416  10.609  16.155   4.052 -0.2610  0.0830 -0.3020
20883W        W40417   9.297   1.400   1.001 -0.1225 -0.0046 -0.0801
20884W        W40418   4.292  13.501   2.294 -0.1945  0.1209  0.3231
20885W        W40419  11.142   0.396  15.553  0.0119  0.1774  0.1159
20886W        W40420   9.884  13.374   0.562  0.2157 -0.0707 -0.2397
20887W        W40421   6.892   8.568   1.267 -0.2633  0.0045 -0.0862
20888W        W40422   3.845  15.901  17.022 -0.0199 -0.2069 -0.0808
20889W        W40423   8.718  11.325  14.127  0.3240  0.1610 -0.1644
20890W        W40424   1.293  10.309  12.339  0.0988 -0.2009 -0.1745
20891W        W40425  10.767   9.990   3.936 -0.1998  0.0440  0.1137
20892W        W40426  16.013  12.132   2.737 -0.0259 -0.0362  0.1119
20893W        W40427  15.497  17.444  14.042 -0.3505 -0.1953  0.5012
20894W        W40428   8.341   1.641  13.037  0.1930 -0.3296  0.1023
20895W        W40429   8.318   8.712   5.284 -0.1068 -0.1349  0.0102
20896W        W40430   9.242  14.609  16.750 -0.3256  0.1654  0.2355
20897W        W40431  10.220  15.462  15.780 -0.0739 -0.0637 -0.1221
20898W        W40432   3.638  12.622  16.087 -0.1263 -0.1710 -0.0207
20899W        W40433   5.178   6.615  14.809  0.0865  0.0954  0.0840
20900W        W40434  16.960  17.475   0.167  0.2596  0.1124  0.2477
20901W        W40435   7.735  16.077  14.512 -0.3954  0.0580 -0.0273
20902W        W40436   3.602   7.970  12.257  0.0963  0.3437 -0.0533
20903W        W40437   0.011   2.142   6.338 -0.3065 -0.0335 -0.0208
20904W        W40438  16.981   5.003  16.342  0.0448 -0.1265 -0.0988
20905W        W40439   7.983   0.176  14.657  0.1378 -0.0644  0.0090
20906W        W40440  12.817   1.474   0.066  0.2366 -0.1460  0.0469
20907W        W40441   7.537  12.746   0.503  0.2497 -0.1191  0.2270
20908W        W40442   5.309  15.676   2.876  0.0533  0.1197 -0.4115
20909W        W40443   8.369  15.588   1.502 -0.2838 -0.0813  0.1206
20910W        W40444  10.945   9.002  12.316 -0.1597  0.1571  0.0280
20911W        W40445   6.454  13.891   2.035 -0.1008 -0.0562  0.3540
20912W        W40446  10.888  12.434   2.697  0.1346  0.0430  0.1653
20913W        W40447   3.061  13.251  14.935  0.0394 -0.1235 -0.1027
20914W        W40448   3.842  13.648   1.395  0.2314  0.1176  0.1075
20915W        W40449   8.071  14.349   1.944  0.0470 -0.1133 -0.0339
20916W        W40450  16.931  10.392  13.417 -0.0414 -0.1632 -0.3175
20917W        W40451   7.223  16.878  12.000 -0.0861  0.0072 -0.1379
20918W        W40452   0.840  16.137  13.258  0.0194 -0.1374 -0.2494
20919W        W40453  13.222   3.301   2.964 -0.1308  0.0321  0.1541
20920W        W40454   0.835  14.772  16.035 -0.0837 -0.2579 -0.0357
20921W        W40455  13.597   9.891  13.850  0.1220  0.3642  0.0275
20922W        W40456   7.647  16.490  15.914  0.1380 -0.0038 -0.2736
20923W        W40457  10.237  12.342   0.282  0.1043  0.1338  0.0327
20924W        W40458   3.719  13.091  16.366 -0.0112 -0.3575  0.0415
20925W        W40459  14.606  14.498  12.884  0.2262  0.2206 -0.1649
20926W        W40460  15.197   9.935  13.511  0.2015 -0.0572 -0.1566
20927W        W40461   5.388   3.331  16.765  0.1749 -0.0348 -0.1804
20928W        W40462   6.189  11.561   1.457 -0.0600  0.0728 -0.2223
20929W        W40463   9.751  13.756   0.164  0.3456 -0.1174 -0.0085
20930W        W40464   1.065   3.398  13.919 -0.1913 -0.0340 -0.0364
20931W        W40465   2.137  16.728   0.678 -0.1734 -0.0576 -0.1411
20932W        W40466  14.273   1.945  13.290  0.5905 -0.0037  0.1718
20933W        W40467  11.294   2.751   3.648  0.3373  0.0732  0.1083
20934W        W40468   1.674  15.139   1.234  0.3268 -0.1199  0.0672
20935W        W40469   7.774   5.155   4.602 -0.1419  0.0591  0.4101
20936W        W40470   5.744   1.344  14.202  0.0736  0.0122 -0.0396
20937W        W40471  14.856   0.026   2.443  0.3270 -0.0153  0.0728
20938W        W40472  10.937  10.352   0.870  0.0468 -0.1913 -0.0753
20939W        W40473   8.402   1.907   3.672  0.3003 -0.1582 -0.3503
20940W        W40474   3.457   6.743  16.466 -0.1603  0.0278  0.2726
20941W        W40475  10.702   8.907   3.175 -0.0394 -0.2594 -0.2952
20942W        W40476  11.079   5.426   4.857 -0.1969  0.1209 -0.0730
20943W        W40477   1.422   5.028  12.449 -0.1516  0.2078 -0.1278
20944W        W40478   9.867  10.598  16.328 -0.1565  0.0200 -0.2226
20945W        W40479   0.419  13.175  16.198 -0.1570 -0.3683  0.1435
20946W        W40480  12.532  15.894  14.197 -0.1815  0.1202 -0.1862
20947W        W40481   9.800   1.141   2.742  0.0745  0.0650 -0.0079
20948W        W40482  16.382   0.047   1.963  0.0250  0.1316  0.0669
20949W        W40483   6.821   5.608   3.567 -0.2003 -0.2379  0.1824
20950W        W40484  16.914  14.655   0.514 -0.0534 -0.0627 -0.0996
20951W        W40485   1.574   6.748   0.807  0.1925  0.3544  0.1482
20952W        W40486   8.732   5.971  16.334 -0.0406 -0.0203  0.0649
20953W        W40487   8.404  16.628   1.225 -0.1801  0.1476  0.0001
20954W        W40488   3.206   8.845  12.383  0.3023 -0.0524  0.1985
20955W        W40489   2.137   9.676  12.061  0.0484 -0.1065 -0.0972
20956W        W40490   5.368  10.096   1.936  0.0128 -0.0006 -0.3079
20957W        W40491   9.496   7.760  11.899  0.3110  0.1871  0.0762
20958W        W40492   5.937  11.946   1.113 -0.1095  0.0692  0.0799
20959W        W40493  14.297  10.832   4.581 -0.3728  0.0534  0.0298
20960W        W40494   4.587   5.444   3.213  0.0231 -0.0034  0.1372
20961W        W40495  10.058  13.592   1.847 -0.2780  0.0238 -0.1205
20962W        W40496   9.844   9.249   3.537  0.1716  0.0629 -0.1805
20963W        W40497  16.899  11.093  12.468 -0.0889  0.1655  0.0864
20964W        W40498   5.298   9.120   0.819 -0.0865  0.2387 -0.2422
20965W        W40499   0.956   3.137   0.425 -0.1697  0.0162  0.1306
20966W        W40500  10.964   9.207  15.060  0.1941  0.0025  0.0450
20967W        W40501  10.300  14.588  15.582 -0.2346  0.1688  0.1078
20968W        W40502   5.795  14.278   2.624 -0.1674  0.0884 -0.1271
20969W        W40503  13.550  12.542   6.462  0.0244 -0.1720  0.0726
20970W        W40504   1.277  12.373   2.303 -0.0240  0.0883  0.2773
20971W        W40505  12.050  17.419   0.647 -0.0300  0.0302  0.1496
20972W        W40506  14.932  11.900  15.059  0.0161  0.5459 -0.3514
20973W        W40507   7.661   1.001   1.700  0.1482 -0.2359  0.0075
20974W        W40508   2.514  10.196   0.546  0.0056 -0.1384  0.1078
20975W        W40509  15.110   7.512   3.053  0.1339 -0.0958 -0.2086
20976W        W40510   5.216  13.333  13.666  0.1947  0.2132 -0.2375
20977W        W40511  10.537  16.811   0.580  0.0241  0.0966 -0.1394
20978W        W40512   0.297   9.677   0.414  0.2490 -0.1085  0.1126
20979W        W40513  16.678  10.076  15.855  0.1240 -0.0587 -0.2305
20980W        W40514   9.745  10.395  12.188 -0.1416  0.0609 -0.0635
20981W        W40515   8.850   1.272   4.723 -0.1679 -0.0271 -0.0940
20982W        W40516  17.663   3.009   4.669 -0.2268  0.3459  0.0634
20983W        W40517  17.255  10.378   4.383 -0.2105  0.2417 -0.1236
20984W        W40518   9.892   0.783   0.205  0.0998  0.2423  0.1817
20985W        W40519  14.156   4.038  11.271 -0.1069 -0.1504  0.1861
20986W        W40520  17.060  17.438   2.961 -0.0403  0.0852  0.0717
20987W        W40521  16.376   9.693  15.988  0.1263  0.1622 -0.1675
20988W        W40522  10.100   0.519   0.706 -0.1653  0.0427 -0.0867
20989W        W40523  13.048   6.332   0.679  0.0150 -0.0299 -0.2180
20990W        W40524   4.806   2.682   1.120  0.4655 -0.1505 -0.0896
20991W        W40525   3.556   3.165  15.573 -0.2053  0.0173  0.0077
20992W        W40526  12.042  11.389  12.408  0.1171  0.3234  0.0868
20993W        W40527   8.634   1.784   0.983 -0.0892  0.0824  0.0634
20994W        W40528  14.990  11.946  15.658  0.0831 -0.0390 -0.1404
20995W        W40529  16.817   6.588   0.716  0.2714  0.3150 -0.0623
20996W        W40530  14.223  15.017  12.334  0.1325 -0.0135 -0.1497
20997W        W40531   3.703   0.911   2.911 -0.3061 -0.3037 -0.0929
20998W        W40532   0.961  14.140  12.491  0.3398  0.0505  0.1269
20999W        W40533  12.035  14.893  12.969  0.2500  0.0179  0.1287
21000W        W40534  14.370   5.597  16.345  0.1003 -0.1365 -0.3113
21001W        W40535  14.753   1.766   6.074 -0.1947 -0.3047 -0.1667
21002W        W40536   6.011  14.202   2.198 -0.3189 -0.0181  0.0534
21003W        W40537   4.534  11.644   1.687 -0.0571 -0.2682 -0.1466
21004W        W40538   4.187   4.695   2.439  0.4706  0.0742  0.1322
21005W        W40539   3.854   2.869   3.431 -0.1212  0.2383  0.1490
21006W        W40540   6.416   2.974   3.469 -0.0156  0.0634  0.1024
21007W        W40541  14.037  16.358   3.387  0.0262 -0.0320 -0.1060
21008W        W40542  17.194   5.851   1.986 -0.1758 -0.4970  0.0709
21009W        W40543  16.619   5.336  16.530 -0.0220 -0.0064  0.1053
21010W        W40544  10.282   4.653  14.173  0.1565  0.1491 -0.2027
21011W        W40545   0.997   4.149   1.905  0.5852  0.0684 -0.1335
21012W        W40546   7.359  12.768   2.157  0.0320  0.1875 -0.2576
21013W        W40547   1.676  14.073   3.282 -0.1050  0.1926 -0.0330
21014W        W40548   0.960   1.586   4.846  0.2739  0.0082  0.0532
21015W        W40549   0.227  11.983   3.911 -0.0227  0.0330 -0.0780
21016W        W40550  17.525  12.817   4.305 -0.1282 -0.0056 -0.0594
21017W        W40551   2.659   4.082  13.058  0.1209 -0.0375  0.1567
21018W        W40552   7.183  15.969  14.441 -0.2505  0.0040  0.0935
21019W        W40553   0.403  17.598  13.738 -0.2542  0.0570  0.2526
21020W        W40554  12.610   4.983   2.885 -0.0949 -0.3436 -0.0702
21021W        W40555   0.738  14.458  16.403 -0.1783 -0.2721  0.1338
21022W        W40556   4.761   2.373  12.082  0.1106  0.0835  0.0511
21023W        W40557   6.623   2.547   1.744 -0.3648  0.0748 -0.2545
21024W        W40558  10.689  12.690   1.564  0.2154 -0.2255  0.1052
21025W        W40559  16.023   6.909  12.692 -0.0467  0.0170 -0.0163
21026W        W40560   6.743  10.342   1.010  0.0807  0.0725  0.3039
21027W        W40561  14.891  16.917   3.075  0.0427  0.0440 -0.4750
21028W        W40562  10.585   2.291  17.037  0.3043  0.0758 -0.1389
21029W        W40563   1.753   2.897  13.377 -0.2291 -0.1200  0.0545
21030W        W40564  14.204   3.255   2.346 -0.3912  0.0329 -0.0453
21031W        W40565  10.809  10.238   0.240 -0.0770 -0.0227  0.1422
21032W        W40566   0.384   5.801   4.049  0.3519  0.1152  0.1492
21033W        W40567   0.965  15.076   1.965 -0.3740 -0.1305 -0.0845
21034W        W40568   0.123   3.321  17.050 -0.1414  0.1333  0.3217
21035W        W40569   6.615  12.399  15.163 -0.1400  0.0565  0.2906
21036W        W40570   8.829   9.864   2.616 -0.0372  0.0136 -0.0449
21037W        W40571   2.508   7.971  13.843 -0.1635 -0.0639  0.0510
21038W        W40572   1.216  12.681  12.722 -0.0987  0.2583  0.1024
21039W        W40573  13.174   4.828  16.530  0.0302 -0.0281 -0.1731
21040W        W40574   4.582   8.200   2.917 -0.1398  0.0748  0.1024
21041W        W40575   2.317  15.024   4.107 -0.0586  0.1343  0.4258
21042W        W40576  13.301  16.262  12.165 -0.0686 -0.0497 -0.0837
21043W        W40577  13.079  12.919   3.268 -0.2731  0.0639 -0.0639
21044W        W40578  17.024  16.284   1.340 -0.1666  0.0583  0.2905
21045W        W40579   5.444   1.713   1.825 -0.0312 -0.1726 -0.1823
21046W        W40580   0.726  16.685   4.905 -0.0593 -0.2098 -0.3652
21047W        W40581   2.901   1.792  11.347 -0.1119 -0.0298  0.1730
21048W        W40582  11.882   4.916  15.698  0.0298 -0.1051  0.0738
21049W        W40583   1.708   3.335  13.625 -0.0289 -0.0114  0.2640
21050W        W40584  14.228   9.562  16.741  0.0265 -0.2283  0.2485
21051W        W40585   8.936   3.006  16.943  0.0971  0.1674  0.1413
21052W        W40586  12.091  14.154   4.718 -0.0619 -0.1737  0.1645
21053W        W40587   1.480  13.117  16.741  0.1907 -0.0347 -0.0232
21054W        W40588  17.617   1.739  12.934 -0.1528  0.1090  0.0053
21055W        W40589   9.142   7.252   3.473 -0.1304  0.1221 -0.2824
21056W        W40590  17.390   7.535   0.423 -0.2841 -0.0487 -0.1250
21057W        W40591   6.956   5.064   4.057 -0.2382 -0.1326 -0.1058
21058W        W40592   0.873   3.868  12.817  0.2290  0.0268  0.2649
21059W        W40593  14.204  12.680   1.569 -0.1265 -0.4954  0.3131
21060W        W40594  10.521  12.552   3.312 -0.1435  0.0781 -0.1373
21061W        W40595  14.337   7.085   1.734  0.0860 -0.0301 -0.1531
21062W        W40596  16.985  10.826   1.322  0.2388  0.0716 -0.0808
21063W        W40597  13.256   7.266   4.230  0.0145  0.0090 -0.1089
21064W        W40598   5.664  13.780  13.717  0.1279  0.0040 -0.0531
21065W        W40599  16.355  12.159  12.882 -0.0282 -0.0501 -0.1240
21066W        W40600   8.251   7.406   1.820  0.0333  0.0720 -0.1166
21067W        W40601   8.519   2.026  14.102 -0.0944 -0.2689  0.0265
21068W        W40602  17.212   0.143  14.291 -0.1371 -0.0835  0.2174
21069W        W40603  17.222  12.602   0.556 -0.0105  0.2778  0.1799
21070W        W40604  12.825  15.342   4.902 -0.4578 -0.1211  0.0785
21071W        W40605   6.829   7.933   1.419  0.2573  0.0770 -0.0307
21072W        W40606   2.710   5.519  12.578  0.0188  0.0178  0.2153
21073W        W40607   6.213  11.060   1.693 -0.0993  0.1085  0.3835
21074W        W40608   3.942   4.635   4.187 -0.0947 -0.0356  0.3120
21075W        W40609  10.859   9.825   4.433 -0.2617 -0.1485  0.0515
21076W        W40610   9.133   0.728   2.341 -0.1990 -0.2364  0.0255
21077W        W40611   2.515   7.331   1.853  0.1045 -0.1122 -0.0784
21078W        W40612  13.254   2.572  14.657 -0.2085 -0.2395 -0.1925
21079W        W40613  15.763  12.098  16.329  0.0908 -0.0562 -0.3714
21080W        W40614  17.208   0.652  16.780  0.2898 -0.0583  0.0905
21081W        W40615   7.127   1.658  16.383 -0.1408 -0.1752  0.1576
21082W        W40616   8.211  12.467  16.815  0.1128 -0.2120 -0.1433
21083W        W40617   9.144   0.167   3.374 -0.0282 -0.0932 -0.4415
21084W        W40618  15.988   3.831   2.562  0.5001 -0.0293  0.0359
21085W        W40619  12.730   6.128   3.561  0.3403 -0.0689 -0.0073
21086W        W40620   1.161   6.899   0.574 -0.0202 -0.1678  0.0983
21087W        W40621  15.197   2.257  13.716 -0.0720  0.0781 -0.0875
21088W        W40622  13.550   6.498  16.871 -0.0099 -0.2847  0.0909
21089W        W40623   1.421   7.476   0.268  0.2412 -0.1444  0.0694
21090W        W40624  17.291   2.199   1.667  0.2181  0.0959 -0.1599
21091W        W40625   7.547  10.372  13.519  0.2666 -0.4248 -0.0202
21092W        W40626   6.576  17.613   3.963  0.0783  0.3010  0.0449
21093W        W40627   5.293  15.550   0.862  0.1778 -0.3932 -0.0192
21094W        W40628   7.454   6.639   0.240 -0.0361  0.1881 -0.1980
21095W        W40629   5.194   1.144   2.339  0.0555  0.0985  0.4154
21096W        W40630  15.876  10.855   1.163  0.2131 -0.1364 -0.2114
21097W        W40631  10.621   1.347  16.288 -0.1342 -0.2396  0.1295
21098W        W40632  16.052  16.468   4.520 -0.0699  0.1452  0.0550
21099W        W40633   5.319  11.482  16.700  0.0716  0.3305 -0.3079
21100W        W40634   9.928  16.691  16.234 -0.0456  0.0626  0.1209
21101W        W40635   2.132   2.150   5.287 -0.0030  0.0409  0.0021
21102W        W40636   7.978   7.209  13.596  0.1856 -0.2271 -0.3851
21103W        W40637  14.165  16.733   3.034 -0.4657 -0.0982 -0.2586
21104W        W40638  13.805  15.832   3.155  0.1348 -0.2701 -0.0242
21105W        W40639   9.881  15.452  16.624  0.3429 -0.0723  0.0079
21106W        W40640   1.851  13.593   0.399 -0.0420  0.2378  0.0318
21107W        W40641   7.737  12.981   4.700  0.6913  0.1374  0.1598
21108W        W40642  10.274   3.495   0.758 -0.0979 -0.0712 -0.0480
21109W        W40643  15.623   6.912  17.054  0.2308 -0.2265  0.0520
21110W        W40644   3.616  15.231   1.343 -0.1407  0.2110  0.2611
21111W        W40645   9.869   4.040  16.503  0.1450  0.0009 -0.1103
21112W        W40646  17.518   4.306   2.505 -0.1945 -0.1403 -0.1913
21113W        W40647   2.916   4.378   3.578  0.2490  0.0969  0.1061
21114W        W40648   1.405  14.871   2.718  0.0979 -0.0978 -0.1027
21115W        W40649  11.021   8.406   0.558  0.1167 -0.0115  0.1092
21116W        W40650   7.110  16.415  11.861 -0.1012  0.1450 -0.0314
21117W        W40651   1.249  14.333   3.996  0.4275 -0.2008 -0.3712
21118W        W40652   2.387  10.724  15.183  0.0185  0.2327 -0.0091
21119W        W40653   3.198  15.122   1.593 -0.2399 -0.0531  0.3261
21120W        W40654  15.653  10.129   1.345  0.1208  0.2761 -0.3712
21121W        W40655  12.318   4.649  14.172 -0.0062 -0.0731  0.0754
21122W        W40656   0.693   7.860   1.806 -0.1248  0.0785  0.0192
21123W        W40657  13.391  13.325  15.893  0.0530  0.1428  0.1716
21124W        W40658   2.732   9.966   3.001  0.1088  0.2127  0.0320
21125W        W40659  13.910  14.748   5.313 -0.0804 -0.2890  0.2804
21126W        W40660   5.147   9.801  15.251 -0.0615  0.1555 -0.0655
21127W        W40661   3.928  11.952  14.348 -0.1717  0.3576  0.0950
21128W        W40662   8.531   2.240   4.557  0.0743  0.1534  0.0354
21129W        W40663   8.022   3.773  15.550  0.2430 -0.1455  0.0304
21130W        W40664  12.346  11.683   0.562 -0.0506 -0.1799  0.1106
21131W        W40665   7.161   8.924   0.460 -0.3316  0.1746 -0.2094
21132W        W40666  13.927   2.327  15.116  0.0187  0.2409 -0.0886
21133W        W40667   1.946  12.490   1.259 -0.0823  0.0630  0.2091
21134W        W40668   3.065  10.672  14.108 -0.1920 -0.0097 -0.1503
21135W        W40669  11.499   6.908  15.082 -0.1847 -0.0982 -0.4529
21136W        W40670  10.409  17.114  15.128 -0.1880  0.1188  0.0472
21137W        W40671   3.080  12.162   1.890 -0.0479 -0.0235 -0.1810
21138W        W40672  12.897  16.804   4.536 -0.1907 -0.1618  0.5645
21139W        W40673   5.561   9.488  15.350  0.1453 -0.0486 -0.0965
21140W        W40674   5.285  13.644  15.659 -0.3121 -0.1305 -0.1918
21141W        W40675   0.653   3.156   3.511 -0.2080 -0.4054  0.0188
21142W        W40676   8.549   5.192   1.740  0.1384 -0.2276 -0.0891
21143W        W40677   6.440   9.456   3.064  0.1241  0.0033  0.0113
21144W        W40678   6.937  13.144   2.363 -0.1316  0.1754  0.1564
21145W        W40679   7.489  14.035  15.559 -0.2295 -0.1101  0.1807
21146W        W40680  14.364   8.277  16.576 -0.3290 -0.4174  0.4255
21147W        W40681   7.298   6.859   0.709  0.1962  0.3885 -0.0807
21148W        W40682   7.176   1.205   2.948 -0.3419  0.0607  0.0828
21149W        W40683  12.829   6.452  12.117 -0.0860 -0.2196  0.1311
21150W        W40684   7.703  15.084   3.490  0.2194 -0.0600  0.1269
21151W        W40685  16.298  14.958   3.967 -0.4196  0.0987  0.2515
21152W        W40686  13.629   2.561  12.439  0.2175  0.0938  0.2314
21153W        W40687   1.957   5.840   3.247 -0.4279  0.0168  0.2097
21154W        W40688  11.808   9.432  16.263  0.1106  0.1913 -0.2666
21155W        W40689  15.596  13.396  14.893 -0.0759  0.1263  0.0122
21156W        W40690   9.982  12.614   3.977 -0.0837 -0.1489  0.2574
21157W        W40691   2.706   1.348   1.064  0.0883 -0.1214 -0.0244
21158W        W40692  14.809   0.204  15.380  0.0113  0.1578  0.3283
21159W        W40693   7.290  14.816  13.090 -0.1652  0.0574  0.1758
21160W        W40694   0.906   2.168   0.504  0.1415  0.0030  0.1901
21161W        W40695   5.375  14.733   1.777 -0.0503  0.2776 -0.3916
21162W        W40696  10.490   7.243  16.194  0.2745 -0.0144  0.2539
21163W        W40697   7.685  16.954  12.308 -0.0963 -0.1475 -0.0285
21164W        W40698   3.611   5.803   3.676  0.3381  0.0300  0.1027
21165W        W40699  10.071   4.482  16.289  0.0906 -0.0324  0.0038
21166W        W40700   5.442   7.677   2.022  0.2404  0.0906  0.1474
21167W        W40701  11.137   0.831   3.095  0.0707  0.0963 -0.0054
21168W        W40702  13.014   0.976  17.028  0.0629 -0.0866 -0.1047
21169W        W40703   8.151  12.729   4.904  0.4349 -0.2065  0.2099
21170W        W40704  11.734  14.543  15.624  0.1898  0.3171  0.1868
21171W        W40705   7.312   1.647  15.270 -0.0449 -0.0300  0.0405
21172W        W40706  16.942   0.217   4.423  0.1507  0.0531 -0.2085
21173W        W40707   6.190  12.557  13.338 -0.0167 -0.1634  0.1273
21174W        W40708  16.222  14.489   3.662  0.3763 -0.2031  0.1801
21175W        W40709  17.088   1.806   0.823  0.1353  0.0699 -0.5461
21176W        W40710   9.332  13.695   1.247 -0.1878  0.0658 -0.1735
21177W        W40711   9.008   4.153  13.711 -0.1777 -0.0489  0.3364
21178W        W40712   6.947   3.989   2.321  0.2124  0.0429 -0.1115
21179W        W40713   7.243   2.028   0.543  0.3614 -0.1155  0.0445
21180W        W40714   0.025  15.002  12.290  0.1235 -0.3052  0.2329
21181W        W40715   5.623   0.543   2.738  0.0051 -0.2254  0.1449
21182W        W40716   2.579  12.330   2.037 -0.1209 -0.0075  0.0361
21183W        W40717   6.510  12.172   3.153 -0.0766 -0.0655  0.1123
21184W        W40718  13.550   1.143  16.151 -0.3751 -0.2134 -0.1165
21185W        W40719  17.094   7.807   0.147 -0.0123 -0.3664 -0.1866
21186W        W40720   5.841   1.822  14.460  0.0890  0.0709  0.1767
21187W        W40721  13.607   3.436  13.200  0.2151 -0.2273  0.0711
21188W        W40722   9.259  12.826  13.652 -0.0002 -0.2307 -0.1434
21189W        W40723   2.728  12.655   2.427 -0.0797 -0.0798  0.2887
21190W        W40724   1.989   7.990   3.370 -0.1334 -0.0441  0.2443
21191W        W40725   9.353  14.366  15.375  0.2693 -0.0762 -0.0182
21192W        W40726  14.779   4.419  11.920  0.2213  0.1434 -0.2243
21193W        W40727  12.211   6.567   1.935  0.0697  0.0013  0.0048
21194W        W40728   6.242  16.142  15.979 -0.0185  0.3660  0.0487
21195W        W40729   6.591   9.821   1.019 -0.0077  0.0590  0.1327
21196W        W40730   5.871  16.062  13.764 -0.0984  0.0060 -0.1065
21197W        W40731  17.152   3.130   2.058  0.1822 -0.0038 -0.0015
21198W        W40732   5.461  12.328  14.708 -0.0358  0.0567 -0.0675
21199W        W40733   8.598  12.672  14.952 -0.1083  0.0304 -0.0537
21200W        W40734   0.879  10.625   1.178 -0.1558  0.1054  0.0484
21201W        W40735   2.287  13.775  15.285 -0.4536 -0.0558 -0.2263
21202W        W40736  13.963   3.702  16.544 -0.0656 -0.0337  0.0559
21203W        W40737   2.826   4.077   1.075  0.0222 -0.1733 -0.2205
21204W        W40738  11.686  15.325   4.790 -0.1282 -0.1011 -0.1618
21205W        W40739   7.322   6.902  16.825  0.0259 -0.0787 -0.4309
21206W        W40740   8.037  10.557  15.780 -0.3098  0.0683  0.0993
21207W        W40741  11.072  11.313  12.048  0.1928  0.0512 -0.0253
21208W        W40742  14.315  14.837   3.397 -0.0740 -0.0164 -0.1866
21209W        W40743  16.986   9.319   0.114 -0.0225  0.1696 -0.0705
21210W        W40744  17.140  14.556  13.086  0.0541  0.0085 -0.1355
21211W        W40745   5.658  14.163  16.155 -0.0791  0.2240 -0.1619
21212W        W40746   4.991   2.051  12.385 -0.2407 -0.2294  0.0474
21213W        W40747   2.705   3.848  15.497  0.1122 -0.1545 -0.1208
21214W        W40748  12.112  14.694   4.046  0.1965  0.3129  0.1991
21215W        W40749   4.083  12.213   0.802  0.2355  0.1715 -0.4594
21216W        W40750   0.582  11.764  14.908  0.0935  0.0603  0.2932
21217W        W40751   4.608  16.322   2.650  0.1888 -0.1744  0.1672
21218W        W40752   7.091   7.594   2.727 -0.2549 -0.5235 -0.0082
21219W        W40753   7.805   8.551   4.496 -0.0506  0.2743  0.1118
21220W        W40754  13.105  11.718  14.947 -0.1761 -0.2581 -0.0434
21221W        W40755  17.010   6.447  13.621 -0.0369 -0.1340 -0.0737
21222W        W40756  17.307   1.830   2.199  0.1498 -0.2444  0.0896
21223W        W40757   2.231  10.874   0.883 -0.2153 -0.1918  0.0233
21224W        W40758  15.017   0.052  13.724 -0.2884  0.0166 -0.1884
21225W        W40759   8.822   6.832   0.719 -0.2609  0.1283  0.0042
21226W        W40760   3.100   5.663  14.704  0.2176  0.2281  0.0761
21227W        W40761   4.734  14.378  12.922  0.1053  0.1341 -0.1330
21228W        W40762   1.424  15.802   2.460  0.2992  0.2567  0.2036
21229W        W40763  11.137   1.438   3.040  0.1496  0.0095 -0.0069
21230W        W40764  16.125   9.511   4.501  0.2343 -0.1647 -0.0582
21231W        W40765  15.053  15.667   0.040  0.0636 -0.0763  0.0502
21232W        W40766   7.942  14.330   4.250 -0.1516 -0.3990 -0.0491
21233W        W40767   3.780   3.945  14.535  0.0027 -0.1025  0.1022
21234W        W40768   8.259  10.969  12.929  0.0481 -0.0335  0.1096
21235W        W40769  14.124  15.708   1.939  0.2474 -0.1377 -0.3967
21236W        W40770  10.997   5.747  15.941  0.2213 -0.2375  0.1723
21237W        W40771   0.964   9.572  13.059  0.1004 -0.2996  0.0826
21238W        W40772  15.684   1.020   4.591  0.1018  0.3638  0.1003
21239W        W40773  12.230   6.930   3.837  0.1353 -0.2204  0.0393
21240W        W40774   4.362   0.410   4.707 -0.0334 -0.4508 -0.1795
21241W        W40775   9.368   9.053  12.904 -0.1909  0.3672  0.2207
21242W        W40776  16.622   6.020   3.173 -0.1722 -0.4137  0.0560
21243W        W40777   3.442   8.861   2.635  0.1695 -0.1638 -0.0520
21244W        W40778  10.465   8.493  13.137 -0.0692  0.2559 -0.0259
21245W        W40779  12.838  14.203  12.583  0.0510 -0.1846  0.1038
21246W        W40780  11.315  11.996  16.221  0.0186  0.0274  0.2159
21247W        W40781   2.269   1.922   2.335 -0.0656 -0.2918 -0.0908
21248W        W40782   4.205   2.113   0.499 -0.0924  0.3195 -0.4266
21249W        W40783   1.464   8.670   1.468 -0.1227 -0.0314  0.1823
21250W        W40784  15.754  14.181   3.057  0.0529 -0.1297  0.1195
21251W        W40785   5.262  16.854   0.511 -0.0503 -0.1256 -0.0728
21252W        W40786  16.166  11.561   1.047 -0.1317  0.1576  0.1064
21253W        W40787  11.778  12.757  15.402 -0.0612 -0.1354 -0.0004
21254W        W40788   0.392   9.349   4.343  0.2985 -0.0988 -0.0608
21255W        W40789  12.082   9.236  15.811 -0.0362  0.1788 -0.1966
21256W        W40790   0.069   7.956   1.372 -0.1744 -0.1104  0.0642
21257W        W40791   2.517   2.729   1.640 -0.1055 -0.1607  0.2549
21258W        W40792   8.664   3.173  13.174  0.0129  0.1618 -0.4231
21259W        W40793   8.842   8.943  15.360 -0.1680  0.1229  0.1285
21260W        W40794  16.628   9.880  14.397  0.1495 -0.1187  0.3240
21261W        W40795  13.569   9.805  16.610  0.2426  0.0007  0.2477
21262W        W40796   6.939   8.640   2.590 -0.1769 -0.1992 -0.3400
21263W        W40797   3.330   2.510   4.577  0.1487 -0.0496  0.2997
21264W        W40798   1.337  11.980   0.222 -0.2314  0.2233  0.3550
21265W        W40799   6.371  16.512   2.957 -0.2582 -0.1696  0.3756
21266W        W40800   5.999  12.905   5.047 -0.1747  0.0125  0.3065
21267W        W40801   6.334   4.138  17.021  0.0703  0.1786  0.2046
21268W        W40802   8.067  16.570   1.607  0.2212  0.2523 -0.0074
21269W        W40803  14.231   4.049  13.484  0.0902 -0.2394 -0.0801
21270W        W40804   8.114  15.108   1.889  0.0155  0.0755 -0.4363
21271W        W40805   1.959   8.015  15.748  0.0907 -0.1896  0.0790
21272W        W40806  15.762  13.529  17.047 -0.0990 -0.0531  0.0768
21273W        W40807  14.301   1.224   3.519  0.1481 -0.0926 -0.0181
21274W        W40808   6.922   9.047   4.387  0.1306  0.0478  0.2751
21275W        W40809  16.474   1.059  13.833 -0.0980  0.2474  0.0302
21276W        W40810  16.575  17.470   2.988 -0.0158 -0.1875  0.3390
21277W        W40811   2.817   2.048  14.326  0.0148  0.0919  0.3511
21278W        W40812   1.195  14.560  13.378  0.0143  0.1402  0.0444
21279W        W40813  17.160   2.844   3.930  0.1159  0.0728  0.1835
21280W        W40814   7.524   1.107   2.458 -0.1006  0.4392 -0.2817
21281W        W40815  14.508  13.363   1.980  0.1903 -0.3415  0.1289
21282W        W40816  11.495  11.695   1.778 -0.0773  0.3181 -0.2174
21283W        W40817  13.435   0.520   2.778  0.0867 -0.0710 -0.1688
21284W        W40818   9.115   7.846  13.153 -0.0192 -0.2400 -0.2243
21285W        W40819  11.583  16.896   0.715  0.2934  0.0229  0.0253
21286W        W40820   2.463  14.680   1.744 -0.1496 -0.4154  0.1457
21287W        W40821  14.940   1.188   3.416 -0.0693  0.0179 -0.0531
21288W        W40822  14.728  16.443   1.760  0.0633  0.2578  0.0977
21289W        W40823  16.578  11.641   3.355  0.1411 -0.1228 -0.0432
21290W        W40824   6.334  12.035  16.348  0.2174  0.2210 -0.1934
21291W        W40825   0.602  16.593  15.281  0.0391 -0.3755 -0.1064
21292W        W40826   6.690  16.820  13.541 -0.1554 -0.1611  0.0914
21293W        W40827   3.896   2.271   1.402 -0.1699  0.0068 -0.1752
21294W        W40828   5.869   9.497   3.210 -0.2238 -0.2075  0.0477
21295W        W40829  11.353   9.738   4.356  0.1989  0.0816 -0.5628
21296W        W40830  15.545   0.765  15.131 -0.2517 -0.4447  0.2596
21297W        W40831  14.812   7.411   0.013  0.1733  0.0075 -0.1786
21298W        W40832  15.000   4.582   4.788 -0.0349 -0.1244  0.1743
21299W        W40833  14.720  15.062  16.613 -0.3887 -0.1021 -0.0916
21300W        W40834  17.088  16.043   3.086 -0.2095 -0.3391 -0.0629
21301W        W40835  14.379  12.524  13.951 -0.0042 -0.0512  0.0752
21302W        W40836   4.628  16.931  15.855  0.0416  0.2804 -0.0710
21303W        W40837   3.526   8.760  17.014 -0.0031  0.1811  0.0825
21304W        W40838   3.815   4.413  14.303  0.0145 -0.0845  0.1339
21305W        W40839  13.868   2.975  13.473 -0.2565 -0.0581 -0.2213
21306W        W40840  16.099  11.213   3.578 -0.1148  0.1845 -0.0890
21307W        W40841  14.353   3.937  16.197 -0.1369 -0.1646 -0.2254
21308W        W40842  16.130  14.082   4.790 -0.1464 -0.1902 -0.3580
21309W        W40843   6.364   1.100  12.235 -0.0679  0.1182  0.0270
21310W        W40844   6.313   4.436   0.382 -0.0784 -0.3850  0.2755
21311W        W40845   4.479  14.803   3.398  0.0542 -0.2172 -0.0044
21312W        W40846  17.619   1.337  12.635 -0.3789  0.1874  0.0697
21313W        W40847   7.007  11.685  16.125  0.0918 -0.1078 -0.1975
21314W        W40848   4.255  12.422  15.389  0.3310  0.0037  0.0866
21315W        W40849   3.938  11.072  14.981 -0.3137 -0.2302  0.2759
21316W        W40850  13.154   8.563  12.255 -0.3112 -0.1380 -0.2409
21317W        W40851   5.049   5.805  12.498 -0.1509 -0.0971 -0.2843
21318W        W40852   0.502  12.936   4.418  0.0937  0.1496 -0.1441
21319W        W40853   6.543   4.078  11.950  0.2428 -0.0717 -0.1062
21320W        W40854   2.962  10.476   3.767  0.4653 -0.1009 -0.2618
21321W        W40855   3.751   8.062   0.626  0.0665 -0.1112 -0.1041
21322W        W40856  14.858  14.518  15.586 -0.0905 -0.3536  0.0419
21323W        W40857  16.823   6.342  10.869  0.1845  0.5422 -0.0292
21324W        W40858   0.268   6.473   2.648  0.4920  0.1070 -0.2419
21325W        W40859   6.990   3.053  16.608 -0.1351 -0.0247 -0.1266
21326W        W40860   8.016  14.605  13.759 -0.0462  0.0162 -0.1650
21327W        W40861   2.198   9.128   4.089 -0.1437 -0.0395  0.0579
21328W        W40862   2.353  11.602   2.422  0.0273 -0.0678  0.0740
21329W        W40863   9.546   8.975  14.661 -0.0903 -0.2384 -0.2354
21330W        W40864  13.580   6.695  14.084  0.2114 -0.1536 -0.2278
21331W        W40865  14.068   0.632  12.179  0.2072  0.1028  0.1336
21332W        W40866   8.569  11.836   5.071 -0.3753  0.0784  0.0247
21333W        W40867   6.011  13.626  12.948  0.1499  0.1954  0.0234
21334W        W40868   7.592   6.815  14.794  0.2288 -0.1944  0.1818
21335W        W40869   7.185  17.366  16.071  0.1223  0.0664 -0.0919
21336W        W40870   2.071   5.943   1.125 -0.2263  0.1235  0.1613
21337W        W40871   2.745  11.560   3.011 -0.1202 -0.0104 -0.2123
21338W        W40872   2.638   4.787  15.742  0.0454  0.1366  0.3164
21339W        W40873   0.962  10.457  14.863  0.0725  0.2950 -0.2152
21340W        W40874  13.871   9.833  15.508 -0.2043 -0.4545 -0.1415
21341W        W40875   8.256   8.899  12.732 -0.3866  0.1398 -0.1874
21342W        W40876  10.073   3.917   3.189 -0.3339  0.2088 -0.0538
21343W        W40877  15.566   8.478   0.106 -0.0573  0.1735  0.0087
21344W        W40878   9.589  10.914   0.864  0.2155 -0.1413  0.0254
21345W        W40879  14.620   6.655  15.280  0.0663  0.2459 -0.0301
21346W        W40880   2.927  16.870  14.022 -0.1528 -0.0505 -0.1158
21347W        W40881  12.217  13.047  11.997 -0.4207 -0.0553  0.1797
21348W        W40882   5.765  17.239   5.035 -0.0254  0.3302 -0.1644
21349W        W40883   8.669   2.410   5.511  0.0292  0.0799  0.0006
21350W        W40884  13.104  17.093  13.725 -0.3700  0.1119 -0.2572
21351W        W40885  10.527  12.999   5.354 -0.1642  0.1540  0.1525
21352W        W40886   2.719   3.149  13.978 -0.0443 -0.0793  0.0984
21353W        W40887   0.221  15.258   0.754  0.1937 -0.0241 -0.1164
21354W        W40888  14.706   8.365   2.438 -0.0926 -0.0750 -0.3179
21355W        W40889  15.571   5.773  16.613 -0.0111  0.1009 -0.0349
21356W        W40890  11.181   3.564  15.196  0.1620 -0.0569  0.0206
21357W        W40891  11.481   1.693  11.160 -0.0725  0.1382 -0.1974
21358W        W40892   9.047  10.762   3.231  0.0957  0.0265  0.1643
21359W        W40893  14.545  15.400  14.121  0.1018 -0.2918  0.0512
21360W        W40894   9.478   3.625  13.025 -0.3682  0.0997  0.0164
21361W        W40895  17.034  14.469   4.297 -0.0290  0.1203 -0.0909
21362W        W40896   0.364   5.280   3.353 -0.1889 -0.2515 -0.2066
21363W        W40897   7.427  12.486   3.785  0.2353 -0.0982 -0.0881
21364W        W40898   8.762   5.893   4.252 -0.0778  0.0896  0.0652
21365W        W40899  11.871  13.130  14.161  0.1983  0.2044  0.0317
21366W        W40900   1.670   1.825   1.712  0.5070 -0.0295  0.0225
21367W        W40901  10.588  12.506  12.598  0.0058 -0.2128 -0.1542
21368W        W40902  11.858   5.697   0.009  0.0150  0.2803 -0.2021
21369W        W40903   3.184   6.410   0.515 -0.1214  0.1517  0.3171
21370W        W40904  14.749   9.893   0.144  0.1286  0.2104  0.0350
21371W        W40905   8.638   3.610  15.286 -0.1386 -0.2198  0.2587
21372W        W40906  12.395   1.141   2.464  0.0440 -0.0930  0.0282
21373W        W40907   6.569   3.035  15.643  0.3152  0.0027 -0.0173
21374W        W40908   9.919  10.346  15.863 -0.0797 -0.0458 -0.1720
21375W        W40909   9.345  17.539   3.946 -0.2317 -0.1768 -0.3640
21376W        W40910   9.705  10.063   2.318  0.0366  0.1638 -0.1966
21377W        W40911   9.268   3.224  13.866  0.0364 -0.0566 -0.1308
21378W        W40912   7.358  10.470  16.019  0.1090 -0.4251  0.0809
21379W        W40913  16.308  12.466   0.766 -0.0739  0.4938 -0.2044
21380W        W40914   1.143   3.644   0.589 -0.1626 -0.5732  0.2785
21381W        W40915   5.160  13.207  16.212  0.1921 -0.0179 -0.0711
21382W        W40916  13.058  15.032   3.057 -0.2745 -0.0154  0.0197
21383W        W40917  11.978   7.029  12.936  0.1085  0.2436  0.2245
21384W        W40918   3.210   5.247   1.642  0.0540 -0.0079 -0.2168
21385W        W40919  16.293   6.285   2.314  0.0343  0.1506  0.3721
21386W        W40920  12.281   0.548  16.366 -0.0480 -0.0163 -0.2218
21387W        W40921   6.182  12.465   3.713 -0.0335 -0.3008 -0.0115
21388W        W40922   8.093  11.916   3.543 -0.0008 -0.0904  0.3344
21389W        W40923  13.374  11.724  13.770  0.2704  0.3618  0.2936
21390W        W40924   9.849  17.105  13.153  0.0112 -0.0332  0.2454
21391W        W40925   2.789  15.310  13.752  0.0077 -0.1160  0.1565
21392W        W40926  14.734  15.614   5.116 -0.0887 -0.0378 -0.0350
21393W        W40927   6.634  16.993   0.371  0.1104  0.1128 -0.1278
21394W        W40928  10.813  15.162   3.567  0.0124  0.0408  0.1189
21395W        W40929   0.413  13.537  15.335  0.0176  0.4538  0.1103
21396W        W40930   9.281  15.318   4.765  0.2082 -0.0412  0.4896
21397W        W40931  13.131  17.340  12.231  0.3526 -0.0703 -0.1167
21398W        W40932  13.656   0.909   2.525 -0.0672 -0.1611  0.0328
21399W        W40933  13.548   3.859   4.332  0.0335 -0.3430  0.0327
21400W        W40934   9.303  16.478  12.334  0.1857  0.0391  0.2333
21401W        W40935  10.833  11.103   2.154  0.0740  0.0548 -0.0081
21402W        W40936  15.209  10.469  12.373  0.1460 -0.2703 -0.0143
21403W        W40937   8.776  15.329   1.063  0.1195 -0.0553  0.0356
21404W        W40938   2.313   6.681  15.144  0.1435 -0.2292 -0.0712
21405W        W40939   2.277   1.162   1.290  0.1599 -0.2599  0.1577
21406W        W40940  10.490  15.248   1.088  0.1580  0.0611  0.0819
21407W        W40941  16.163   8.842   5.251  0.0165  0.0500  0.1108
21408W        W40942  12.402  12.579  11.997 -0.0514  0.1459  0.0228
21409W        W40943  13.371   8.449   1.264 -0.3945  0.4177  0.0277
21410W        W40944  11.761   5.028   3.749 -0.0127  0.1149 -0.5225
21411W        W40945  16.615   6.417   3.537 -0.1524 -0.3218 -0.1138
21412W        W40946   7.425  13.084   4.268 -0.0709  0.2447 -0.1338
21413W        W40947   5.686   7.315   4.121  0.0234 -0.2335 -0.1152
21414W        W40948   5.406   2.584  13.692 -0.0685  0.1117  0.0978
21415W        W40949   0.206   8.786   2.672  0.0608 -0.1244 -0.0373
21416W        W40950   1.105  13.766   4.647  0.1939  0.0716 -0.0568
21417W        W40951   9.696   8.772  12.615 -0.1670 -0.1236  0.0122
21418W        W40952   8.274  14.463  16.554  0.0513 -0.0256  0.4866
21419W        W40953   2.331   1.418   3.368 -0.0429  0.1882  0.2319
21420W        W40954  13.858  14.571  15.157 -0.1775 -0.1434 -0.1807
21421W        W40955   0.184   4.930  13.074 -0.0051  0.1316  0.1462
21422W        W40956  14.841   8.951   3.561  0.1931 -0.0348  0.0225
21423W        W40957   1.489  15.382   4.624  0.0477  0.3911 -0.4150
21424W        W40958  10.466  13.537  15.276 -0.2821 -0.1136 -0.1336
21425W        W40959   1.298  16.629   2.225 -0.1640 -0.0253 -0.0024
21426W        W40960   3.029  12.739   1.522 -0.0464 -0.1556  0.1044
21427W        W40961   7.744  10.321   0.677 -0.0749 -0.2106 -0.0889
21428W        W40962  15.155  12.582  14.506  0.0731  0.0128  0.0310
21429W        W40963   6.613   8.314   4.948 -0.2243 -0.1515  0.1030
21430W        W40964   8.029   6.180   2.541 -0.1731 -0.1670  0.0737
21431W        W40965   1.254   2.594   5.167 -0.0365  0.0129  0.0347
21432W        W40966   0.703  14.063  16.749 -0.1857 -0.2379 -0.0664
21433W        W40967   4.371   2.332   1.256  0.0763 -0.2163  0.1986
21434W        W40968   6.018   0.260  16.550 -0.0227 -0.2897 -0.2653
21435W        W40969  10.746   5.881   0.195 -0.0955 -0.1382 -0.2738
21436W        W40970   6.625  17.070  16.486 -0.0371  0.1089 -0.0505
21437W        W40971  17.041  11.821   6.062 -0.1802 -0.1331  0.2151
21438W        W40972   1.169  14.183  16.658  0.1693 -0.0409  0.0294
21439W        W40973   8.067   5.622  14.035 -0.1563 -0.1526  0.1624
21440W        W40974   0.710   5.133  15.902 -0.1776 -0.1093  0.1103
21441W        W40975   1.785  11.913  16.997  0.0814  0.0493  0.0490
21442W        W40976   3.975  14.829   3.434 -0.1978 -0.2646 -0.1023
21443W        W40977   5.252   0.973  15.096  0.2736 -0.0911 -0.0565
21444W        W40978  11.552   9.205  11.871 -0.1107  0.1214 -0.0864
21445W        W40979  17.007  12.817  12.559  0.1577  0.1024  0.2267
21446W        W40980   6.793  13.993   2.483 -0.0205  0.0692  0.2201
21447W        W40981   7.590  14.519   3.410  0.0856 -0.2008  0.2212
21448W        W40982   2.781  11.260  15.931 -0.0421  0.1151 -0.1278
21449W        W40983   9.198  13.524  13.878 -0.1911  0.2645  0.1249
21450W        W40984  15.491   1.012   2.767  0.3254  0.2669  0.1081
21451W        W40985  12.615   6.122   1.460 -0.0981  0.1009  0.0595
21452W        W40986   8.812  16.637  12.280  0.0354 -0.0579  0.0484
21453W        W40987  13.057   0.546   3.699 -0.1392 -0.1034 -0.3475
21454W        W40988   4.068   7.712  12.140  0.1555  0.0933 -0.2806
21455W        W40989   8.977   2.043   4.295  0.0990 -0.3684  0.3110
21456W        W40990   0.568   2.841  12.672 -0.1372  0.0436  0.0327
21457W        W40991   0.447   4.181   1.820  0.1558 -0.2226  0.3048
21458W        W40992  10.786  10.234  13.895 -0.0225  0.0016  0.0010
21459W        W40993   5.575  12.594   0.577 -0.1398  0.0114 -0.1381
21460W        W40994  11.430  10.484   3.990 -0.1375  0.1080  0.3329
21461W        W40995   0.526  10.278  16.342 -0.3456 -0.1206  0.2774
21462W        W40996   2.727  17.296   0.570  0.2304 -0.1092 -0.1841
21463W        W40997  10.420   5.451  16.849  0.0712 -0.1424 -0.0261
21464W        W40998  13.933  13.936   4.975 -0.1023  0.3802 -0.1488
21465W        W40999  11.973   3.602   1.503  0.1424 -0.1889 -0.0411
21466W        W41000  11.577   8.245  12.568  0.3360  0.2454 -0.0069
21467W        W41001   4.192  15.172   1.301 -0.1903  0.1028  0.0576
21468W        W41002  16.047   9.417  12.999  0.5643  0.3868 -0.0033
21469W        W41003   4.148  10.260   4.421  0.0522  0.2014 -0.2294
21470W        W41004  17.319   6.666  13.936  0.0435 -0.0038  0.1332
21471W        W41005  15.417   0.195   5.275 -0.0115  0.0686  0.0708
21472W        W41006   3.154   6.800  15.761 -0.2602 -0.1636  0.2650
21473W        W41007  15.191   7.506  15.149 -0.0202  0.1421  0.0447
21474W        W41008  15.284  16.006  15.010  0.0189 -0.0152  0.4434
21475W        W41009   8.088   2.100   4.380  0.1725 -0.2851 -0.1404
21476W        W41010   4.316   2.081   2.221 -0.1085  0.1952  0.1223
21477W        W41011   8.864   7.287   0.497 -0.2442 -0.0500  0.2341
21478W        W41012   2.891   5.269  16.662 -0.0664  0.0050  0.1572
21479W        W41013   1.193  17.610  12.468  0.0190 -0.0378 -0.0107
21480W        W41014   5.331  10.197  14.790  0.1309  0.1659 -0.0780
21481W        W41015   6.781  14.397  14.952 -0.0144  0.1519  0.2031
21482W        W41016  11.971   9.359   4.384 -0.1610 -0.2648 -0.0619
21483W        W41017   2.368  12.334  12.076  0.1174 -0.0954 -0.0772
21484W        W41018  11.873  11.485  15.791 -0.0670  0.0060  0.1799
21485W        W41019   2.301  17.462   4.616  0.1542  0.1209 -0.1451
21486W        W41020   4.548   2.631   3.909  0.2915  0.3065 -0.0560
21487W        W41021   4.712   0.746  12.954 -0.1220 -0.0564 -0.3074
21488W        W41022   9.242   2.557  14.667 -0.0149  0.0495  0.1305
21489W        W41023   9.122   0.805  14.058 -0.1731 -0.1860 -0.1820
21490W        W41024   3.066   3.075  14.408 -0.0240  0.0113  0.0559
21491W        W41025  14.146  14.591  15.571 -0.0761 -0.1415  0.3995
21492W        W41026  15.239  11.087  12.235 -0.0722  0.0817 -0.1659
21493W        W41027   7.098  15.613   4.965  0.1200 -0.1699 -0.1955
21494W        W41028  11.885   0.075  13.082 -0.1174  0.0502  0.2088
21495W        W41029   8.813  10.303   3.346  0.0775  0.2902  0.0226
21496W        W41030   0.348   9.891   2.771 -0.0606  0.3140  0.4256
21497W        W41031   6.690  15.523   1.688 -0.4283 -0.1006  0.2983
21498W        W41032   5.582  16.779   4.311 -0.1159 -0.0840 -0.2637
21499W        W41033  15.973  12.793  14.198  0.1709 -0.2847  0.0602
21500W        W41034  14.338   1.649  16.227  0.0727  0.0296  0.0108
21501W        W41035   2.902   6.768   0.362 -0.0627  0.2015 -0.1614
21502W        W41036  10.175   1.773   3.797 -0.1197  0.0016  0.1558
21503W        W41037  12.280   0.585   0.244  0.1644  0.3216 -0.1772
21504W        W41038   5.139  16.807  13.099 -0.2595 -0.1952 -0.1490
21505W        W41039   5.066   8.837   1.262  0.1443  0.0342  0.2859
21506W        W41040   1.287  10.893   1.460  0.0998  0.0155 -0.5319
21507W        W41041   6.207   8.687  12.716 -0.2156 -0.3071  0.1045
21508W        W41042  14.496   9.591   1.976 -0.0438 -0.0282  0.0633
21509W        W41043   4.952  13.081  14.495  0.4249  0.2003 -0.1995
21510W        W41044   0.131   2.070  15.845 -0.2000  0.1014 -0.0124
21511W        W41045   1.295  10.510  13.909  0.1792 -0.1150  0.0781
21512W        W41046  15.330  13.566  13.668 -0.1456  0.2280  0.0289
21513W        W41047  10.904  12.169  14.708 -0.1072 -0.2031  0.3021
21514W        W41048  11.753   4.988   0.428 -0.0538  0.3513  0.3428
21515W        W41049   2.974   1.982   2.976 -0.1952  0.0376 -0.2717
21516W        W41050   6.392  15.561   3.099  0.0801  0.0033 -0.1517
21517W        W41051  15.014   8.284  16.364 -0.3015 -0.0285  0.0555
21518W        W41052  14.121   3.936  14.278 -0.0568 -0.1392 -0.1213
21519W        W41053   3.464   6.630   3.924 -0.0303  0.3118 -0.1582
21520W        W41054  13.004   8.278   4.922  0.0079  0.1528 -0.0831
21521W        W41055   1.265  13.623   2.828  0.1506 -0.1654 -0.2911
21522W        W41056   0.748  13.721  13.308  0.1002 -0.0140 -0.0903
21523W        W41057  16.210   5.635  12.141 -0.1167 -0.0306 -0.1194
21524W        W41058  14.398   7.595  11.632 -0.1134 -0.0679 -0.1192
21525W        W41059   6.830  16.288  13.705 -0.1110  0.1216 -0.0823
21526W        W41060   7.387  10.255  13.011 -0.3263 -0.0721 -0.1357
21527W        W41061  14.669   0.532  15.771  0.1501 -0.2497  0.0802
21528W        W41062   0.525  11.160   3.700 -0.3089 -0.0628 -0.0003
21529W        W41063   6.911   5.839  13.433  0.0263  0.2663  0.1832
21530W        W41064   4.421  13.706  16.060  0.1991 -0.1654 -0.0485
21531W        W41065  12.998  11.251   4.301 -0.0814 -0.0695  0.1529
21532W        W41066  17.247   5.882  16.317 -0.1695 -0.2430  0.0349
21533W        W41067  14.446   1.346   2.581  0.0477 -0.1757  0.1483
21534W        W41068   3.584   6.174   4.616 -0.0760  0.0291  0.0299
21535W        W41069   2.921   5.777  12.031  0.1166  0.0839  0.0206
21536W        W41070   6.291  12.736  12.845 -0.2331 -0.0312  0.0627
21537W        W41071   8.964   0.595   0.517  0.2647 -0.1966  0.0930
21538W        W41072  15.659  12.247   2.388  0.3243 -0.1082 -0.0997
21539W        W41073  11.192   4.531   4.166 -0.3058  0.2005  0.1514
21540W        W41074   4.467   8.319  12.356 -0.1934  0.1222 -0.1413
21541W        W41075  17.457  12.150   2.274 -0.1043  0.0057 -0.1029
21542W        W41076   9.976  11.293   3.110  0.3191 -0.0914  0.2555
21543W        W41077   7.204   9.015  16.165  0.4029 -0.0659 -0.1646
21544W        W41078  13.629   3.857  16.910 -0.0808  0.0637  0.2432
21545W        W41079   9.749   6.160  13.964 -0.0878 -0.4951 -0.1362
21546W        W41080  11.007   6.189  12.051  0.1174  0.0763 -0.0491
21547W        W41081   8.546   7.119   1.531 -0.0122  0.1347  0.2095
21548W        W41082   3.384   3.494   2.920 -0.4779  0.0809 -0.0062
21549W        W41083   2.391   5.438  16.607  0.0054  0.0552 -0.1539
21550W        W41084   3.305   9.409  13.190  0.3199 -0.1490  0.0727
21551W        W41085   2.639   9.314   1.746 -0.1176 -0.0775  0.0140
21552W        W41086   0.091  12.430  16.069  0.1851  0.0717 -0.1849
21553W        W41087   1.564   9.382   0.710  0.2586  0.1618  0.1796
21554W        W41088   2.004   6.268   0.351 -0.1974 -0.2220  0.0933
21555W        W41089  12.580   8.483   4.111 -0.1216 -0.3459 -0.1358
21556W        W41090  16.266  16.852   5.122 -0.0672  0.1015  0.5098
21557W        W41091   0.517   6.005   2.811  0.1673 -0.0019 -0.0746
21558W        W41092   6.172   6.223  15.376 -0.3009  0.0599 -0.0366
21559W        W41093   6.696  15.638  12.091 -0.0977  0.2645  0.1730
21560W        W41094   2.055   6.811   2.729  0.0153 -0.0939  0.0423
21561W        W41095  10.124  17.240   1.267 -0.0766 -0.1428  0.0822
21562W        W41096   1.673  11.668  12.508  0.2058 -0.0344 -0.0889
21563W        W41097   8.950   1.132  12.658  0.2469  0.0900  0.0227
21564W        W41098   3.390  14.245   3.699 -0.0876 -0.1204  0.2883
21565W        W41099  13.878   3.447  12.762 -0.2533  0.0349 -0.1230
21566W        W41100   6.877  11.938  13.013 -0.0400 -0.1026 -0.1531
21567W        W41101   5.665  15.176  14.950  0.0858  0.1681 -0.0351
21568W        W41102  10.182   8.177   1.058 -0.0585 -0.1113  0.0667
21569W        W41103   3.120  15.250   4.527 -0.1281 -0.0234 -0.0539
21570W        W41104   1.861   6.891  15.185 -0.1639 -0.1523 -0.2081
21571W        W41105  12.286   7.850  15.828 -0.0803 -0.0193 -0.1019
21572W        W41106   9.597  12.505  14.644  0.1611  0.0327 -0.0999
21573W        W41107   4.428  15.304   4.121  0.0286  0.1226 -0.2621
21574W        W41108   0.827  12.145   0.418 -0.2186 -0.0503 -0.1829
21575W        W41109  14.153   6.718   4.884  0.0303  0.0404  0.1436
21576W        W41110   1.006   6.798  14.789 -0.6570  0.1153  0.1038
21577W        W41111  13.450   1.442  15.789  0.0299  0.2345  0.0020
21578W        W41112  10.126   6.343  14.685 -0.2987  0.1449 -0.1649
21579W        W41113  16.079   3.888   3.548 -0.2491  0.1233  0.1592
21580W        W41114  13.301  11.938   3.384 -0.1231  0.0359  0.1810
21581W        W41115  17.325   8.132   3.960 -0.0824  0.0372 -0.0429
21582W        W41116   1.051   9.406   3.210 -0.0988 -0.2472 -0.2747
21583W        W41117  11.727  15.449   3.111  0.1316  0.1612 -0.0616
21584W        W41118   0.727  10.912  14.683  0.1436 -0.0915  0.1489
21585W        W41119  16.864  16.133   2.174 -0.0102  0.0966 -0.0322
21586W        W41120  10.225  17.159   3.719  0.1937 -0.1883  0.2846
21587W        W41121  12.408  17.178  14.324 -0.0207  0.0863  0.1972
21588W        W41122  16.097  16.069   0.885  0.1683  0.0830  0.1285
21589W        W41123  14.170  15.664  14.287 -0.2322 -0.0103 -0.1186
21590W        W41124   6.008  13.717   2.491  0.0176  0.1727 -0.1889
21591W        W41125   4.175   6.616  16.092 -0.1241 -0.0564  0.1046
21592W        W41126   2.259  14.755  15.145  0.0712  0.1525 -0.0274
21593W        W41127   4.978   3.705   1.784 -0.2348  0.0973 -0.1409
21594W        W41128   1.954  14.600   0.413 -0.2715  0.1886  0.3206
21595W        W41129   8.935   1.728  16.194  0.1748 -0.0862  0.1872
21596W        W41130  15.628   7.847  12.728 -0.0344 -0.1365  0.2347
21597W        W41131   6.631   3.292   4.401 -0.6863  0.3128 -0.1962
21598W        W41132   9.414   7.200  13.895  0.1846 -0.2123  0.1556
21599W        W41133   7.004  11.734   0.475  0.1992 -0.0193  0.1872
21600W        W41134  14.489  13.776   4.195 -0.0223 -0.1320  0.0613
21601W        W41135  13.720  16.138   4.445 -0.0234  0.0715  0.2682
21602W        W41136   7.393   0.823   3.239 -0.2631 -0.1625  0.0966
21603W        W41137  10.248   5.350  12.188  0.1070 -0.0632  0.0297
21604W        W41138  16.202  10.776   4.444 -0.0375  0.0577 -0.2026
21605W        W41139   4.971   7.381   3.725  0.1044  0.1582  0.0567
21606W        W41140  16.359   7.690  13.657 -0.0391  0.0681 -0.0724
21607W        W41141   1.663   9.498   2.463 -0.2164  0.0378  0.0205
21608W        W41142  13.934   5.586   3.812  0.1126  0.3732  0.0210
21609W        W41143  15.378   5.929   3.814 -0.3441  0.3299  0.0792
21610W        W41144  15.927  14.826   2.811 -0.2112  0.0319 -0.1394
21611W        W41145  10.722   5.788  12.034  0.1153 -0.0331 -0.3110
21612W        W41146   8.917   3.438   0.189  0.1975 -0.0012 -0.1748
21613W        W41147   5.096  17.543  16.958 -0.1304 -0.0311  0.1616
21614W        W41148   8.540  12.065  16.695  0.1474  0.1080  0.0310
21615W        W41149  15.406  14.945   1.234  0.1497  0.0863  0.0113
21616W        W41150  13.955  14.563  13.113  0.0955  0.0384  0.2196
21617W        W41151  13.500   5.040   3.103 -0.1366  0.2395 -0.0561
21618W        W41152  11.613  12.129   0.826 -0.1261 -0.5020  0.0731
21619W        W41153  14.952   7.988  13.452 -0.0217 -0.0855 -0.1818
21620W        W41154   9.200  10.055  15.305 -0.0715 -0.1586  0.0036
21621W        W41155  13.907   8.213   2.984  0.1184 -0.1660 -0.1481
21622W        W41156  10.478  10.828  12.562 -0.2078 -0.0371 -0.0880
21623W        W41157   3.577  15.102  12.763  0.0254  0.0606 -0.1826
21624W        W41158   5.531   6.588   1.234 -0.1502  0.0198  0.0232
21625W        W41159   5.194   4.844   0.168  0.1674 -0.0429 -0.0924
21626W        W41160   8.507  10.367   4.622  0.1344 -0.0334  0.0469
21627W        W41161  10.751  13.006  15.187 -0.0749  0.1528 -0.1960
21628W        W41162  12.484  14.131  16.493 -0.0322 -0.4254  0.3066
21629W        W41163  10.733  10.328  12.945 -0.0292  0.1022 -0.0325
21630W        W41164  13.825  12.214  17.046  0.0901 -0.1310  0.1736
21631W        W41165   2.508   5.130  13.116 -0.2760  0.1896 -0.0349
21632W        W41166   5.436   9.043  16.984 -0.0631  0.1244  0.4714
21633W        W41167  15.514   1.567  15.840 -0.0274 -0.2082  0.1318
21634W        W41168  16.158   4.931   0.280 -0.1200 -0.2240 -0.3005
21635W        W41169  13.363  16.799  16.326 -0.0639  0.3077 -0.2588
21636W        W41170   1.036   5.143   5.261 -0.3726 -0.0101 -0.1170
21637W        W41171   8.673   7.614   4.020 -0.0024  0.0704  0.1225
21638W        W41172  15.361   1.862  12.894 -0.0530 -0.1504 -0.1402
21639W        W41173   3.741  16.136   1.628 -0.2968 -0.1704  0.0204
21640W        W41174   0.488   2.750  14.271  0.0261  0.2159 -0.1821
21641W        W41175  15.914   5.824   2.327 -0.1369 -0.0614  0.0516
21642W        W41176  16.108   4.659  14.912 -0.0648 -0.0533  0.1776
21643W        W41177  14.288   3.815   5.053  0.0789  0.1211 -0.2317
21644W        W41178  14.160   5.817   2.400  0.0094  0.0873 -0.3496
21645W        W41179   1.760  11.692  16.415 -0.1694 -0.0864 -0.4634
21646W        W41180   4.518   8.286   2.136  0.3126 -0.0345  0.0100
21647W        W41181   1.680  16.889   2.550 -0.2271 -0.1013  0.1207
21648W        W41182  14.549   5.504   3.521 -0.0973  0.0596 -0.4310
21649W        W41183   5.121  17.240  14.949 -0.2553  0.3920  0.0901
21650W        W41184  11.690  16.056  14.117 -0.1387 -0.1969  0.0393
21651W        W41185  10.493   2.942   3.096 -0.1054 -0.0271  0.2102
21652W        W41186   6.640   4.956   2.441 -0.1318 -0.0867  0.1013
21653W        W41187   2.767  13.526   5.029  0.0562  0.0778  0.0502
21654W        W41188   5.315   3.898   4.550 -0.0713 -0.2628  0.0049
21655W        W41189  14.389   7.911   0.693  0.2781  0.2028  0.1706
21656W        W41190   4.421  16.438   3.147 -0.3111  0.2579 -0.1637
21657W        W41191  14.271   0.870   4.456 -0.1418 -0.1627  0.1075
21658W        W41192  12.759   9.747  12.510  0.0320  0.1421  0.0364
21659W        W41193  10.497  13.203  12.719  0.2174 -0.0432 -0.1821
21660W        W41194   0.498  15.236  14.501 -0.1768  0.0750  0.1693
21661W        W41195  13.083   5.832  15.154  0.1965 -0.0515 -0.2606
21662W        W41196   9.332  11.883   3.973 -0.0043  0.1608 -0.0908
21663W        W41197   3.008   3.431   3.351  0.0471  0.1639  0.1486
21664W        W41198  13.867   3.812   3.679  0.0215  0.2616 -0.0853
21665W        W41199   1.945   9.080  13.028  0.0850  0.2123  0.1642
21666W        W41200   2.572   5.808   1.182  0.0930 -0.2703  0.2033
21667W        W41201  14.150   4.751   0.482 -0.0200  0.0726 -0.3384
21668W        W41202   8.577   7.197   3.311 -0.2541 -0.1082  0.1989
21669W        W41203   4.803   9.260   3.866 -0.2823 -0.0633  0.3070
21670W        W41204  14.416  13.186   2.719  0.0471  0.1648 -0.1813
21671W        W41205  17.371   8.402   2.549 -0.0848  0.4222 -0.1614
21672W        W41206   6.285   7.288  15.460 -0.1316  0.5344 -0.0682
21673W        W41207   4.088  15.087  12.952  0.2886 -0.2763 -0.0930
21674W        W41208   1.666  17.608   1.291 -0.0503 -0.2422 -0.0237
21675W        W41209  16.376   4.051   3.178 -0.0074  0.0594  0.3860
21676W        W41210   1.033  12.492   1.869 -0.0209 -0.1193  0.0679
21677W        W41211   4.206  10.990  16.537  0.0329 -0.1561 -0.1150
21678W        W41212  16.565  17.425  16.877 -0.0710 -0.0489  0.2271
21679W        W41213   3.511  16.488   4.109  0.1339 -0.1749 -0.0292
21680W        W41214  11.704  14.084   0.118 -0.3759  0.2022 -0.0955
21681W        W41215  14.581  10.967   4.196  0.2394 -0.0915 -0.4108
21682W        W41216   3.261   1.476  16.784  0.1321 -0.0118 -0.1922
21683W        W41217  14.909  15.671  14.329  0.0411 -0.1749  0.1169
21684W        W41218  11.023  11.712   5.078  0.2320 -0.3717 -0.2024
21685W        W41219   6.272   7.069  17.043  0.1587  0.2778  0.1068
21686W        W41220  16.245  14.777   1.155  0.1207  0.3312  0.0151
21687W        W41221   7.342   2.712  14.287  0.0790 -0.2244  0.0293
21688W        W41222   8.814   0.544   1.312  0.0059 -0.1586  0.1915
21689W        W41223  15.938  13.329  16.290 -0.2672  0.0790  0.0093
21690W        W41224  10.424  15.607   2.918  0.1269 -0.2349  0.1869
21691W        W41225  16.206  11.361   3.096  0.0546 -0.1035 -0.0759
21692W        W41226  12.560   2.436  14.073 -0.1997 -0.0981  0.1263
21693W        W41227  16.287   5.034  14.589 -0.2563 -0.1425  0.5231
21694W        W41228   4.257  16.848   1.445  0.1362 -0.1708 -0.2140
21695W        W41229   7.519   5.408   4.207  0.3268  0.0260 -0.0618
21696W        W41230   7.705  15.460   1.988  0.0931 -0.1613 -0.1445
21697W        W41231   0.478  11.586   4.223 -0.1170  0.0620 -0.0271
21698W        W41232  11.395  14.566  13.679  0.0944 -0.1071 -0.0078
21699W        W41233  17.231   9.270   3.660  0.2358  0.1923  0.1680
21700W        W41234   3.777   6.852   1.390 -0.1019 -0.1507  0.3063
21701W        W41235   7.124  11.042   2.737  0.0820  0.2038  0.0716
21702W        W41236   0.104   6.193   3.052  0.0517 -0.1737 -0.4098
21703W        W41237  15.395   6.031   2.327  0.1406  0.1951  0.1167
21704W        W41238   7.229  16.940   1.544  0.2642  0.1232 -0.1481
21705W        W41239   9.857  15.894  16.840  0.2733  0.0242  0.0171
21706W        W41240   9.365   8.850   4.332  0.1390  0.1017  0.0960
21707W        W41241   5.433   7.449   3.228 -0.1175 -0.2103  0.0567
21708W        W41242   9.532  12.750   4.304  0.0658 -0.1879 -0.1591
21709W        W41243   0.753  14.143   1.194  0.0032 -0.0755  0.1470
21710W        W41244   1.692  10.525  15.834  0.1001 -0.1564 -0.1415
21711W        W41245  11.126   7.185  15.750  0.1255 -0.1423 -0.1389
21712W        W41246  15.850  13.895  12.943 -0.2137 -0.0200 -0.0022
21713W        W41247  14.557   3.230  16.439  0.1527 -0.2550  0.2505
21714W        W41248  12.630   7.680  14.485 -0.2010  0.0024  0.2183
21715W        W41249   0.618  11.861  15.471  0.2842  0.1419 -0.2068
21716W        W41250   2.836   9.217   0.396  0.3040 -0.0957 -0.3592
21717W        W41251  13.700   5.647  12.854  0.5057  0.1101 -0.2643
21718W        W41252   4.641  17.290   0.736 -0.1385  0.1863 -0.0804
21719W        W41253   8.265  11.912  14.562 -0.0354 -0.1480 -0.2041
21720W        W41254  12.236  12.979   6.193 -0.1011  0.1069  0.1197
21721W        W41255   6.586  16.905   3.152  0.0451  0.0896  0.2609
21722W        W41256  16.823   4.716  13.149 -0.0448 -0.4315  0.0777
21723W        W41257   0.410   2.561  15.943  0.2007  0.0711 -0.0439
21724W        W41258   5.496  12.222  12.582  0.0457 -0.0886  0.0660
21725W        W41259   0.780   5.178   1.154 -0.0998  0.1397 -0.1473
21726W        W41260  13.835  16.140   3.966  0.0116  0.0501 -0.0282
21727W        W41261  14.782   0.870  13.291 -0.1748 -0.2726  0.1693
21728W        W41262  16.333   3.431   0.646 -0.2134 -0.1584 -0.1483
21729W        W41263   7.195  12.201   0.416  0.2413  0.0033  0.1254
21730W        W41264   5.047  15.493   3.322 -0.0303 -0.0301 -0.0988
21731W        W41265   2.396  10.906  12.859  0.0713  0.0335 -0.0446
21732W        W41266  14.256  17.602  12.991  0.0427  0.0335 -0.0498
21733W        W41267   0.868  12.359   5.583  0.0046  0.0345  0.0142
21734W        W41268  15.497   3.481  13.726  0.2343  0.1837 -0.1438
21735W        W41269  12.059   8.540   1.432  0.0163 -0.1209 -0.1851
21736W        W41270  15.779  12.182  14.969 -0.0321  0.1564 -0.0062
21737W        W41271   4.318   6.224  14.187 -0.0646  0.1202 -0.1683
21738W        W41272   7.263  15.822  15.584 -0.2215 -0.0436  0.0181
21739W        W41273   3.046   0.555   4.318 -0.0953  0.1211 -0.1783
21740W        W41274   4.302   3.347   4.412 -0.1479 -0.1117  0.1849
21741W        W41275  15.317   9.722  14.541 -0.0317 -0.2540  0.1291
21742W        W41276  10.882  15.432   0.893 -0.0233 -0.3661 -0.1853
21743W        W41277  11.010  12.258   1.331 -0.2084  0.1015 -0.2900
21744W        W41278  12.870  13.379   4.395 -0.1486  0.3679  0.1205
21745W        W41279   2.341  17.263   2.761  0.0142  0.0966  0.2052
21746W        W41280  15.265  14.364   0.471 -0.0262 -0.1396 -0.2558
21747W        W41281   5.451  10.016  15.696 -0.2224 -0.0779  0.1270
21748W        W41282  12.030  12.570  15.812  0.2134  0.0904 -0.0611
21749W        W41283  13.505  13.001   2.699 -0.2492 -0.1299  0.2266
21750W        W41284  13.317   6.124  12.084 -0.1844  0.1575  0.1231
21751W        W41285   5.827   7.505   0.639  0.0233  0.2056 -0.1062
21752W        W41286   5.527  15.160   4.263 -0.3814 -0.3534 -0.0855
21753W        W41287   2.667  10.786   2.017  0.0270  0.0980 -0.0434
21754W        W41288  12.346   5.146   3.555  0.1262 -0.0867 -0.0124
21755W        W41289   0.893  15.449  12.149  0.1979  0.0288  0.0161
21756W        W41290  17.090  12.308   1.210  0.0477 -0.0853  0.1597
21757W        W41291  14.988  17.415  16.453  0.1464 -0.0833 -0.2148
21758W        W41292  15.581   0.015  12.310  0.0545 -0.1991  0.0554
21759W        W41293   4.276  16.015   5.292  0.1705  0.2157 -0.0674
21760W        W41294   9.051  11.708  14.022 -0.1576 -0.1040  0.0203
21761W        W41295  11.429  14.700   6.195  0.0124 -0.0853 -0.2873
21762W        W41296  17.221   6.369   1.922  0.4390 -0.1587 -0.0706
21763W        W41297   3.085  12.668  11.198 -0.0435  0.1596 -0.0086
21764W        W41298  17.636  12.633  15.061  0.1520  0.1961  0.1971
21765W        W41299  11.034   8.550   1.112 -0.4868 -0.0820  0.0213
21766W        W41300   5.062   5.851  16.100  0.1232 -0.0416 -0.1815
21767W        W41301  15.295  15.937   3.492 -0.1653 -0.1954 -0.2517
21768W        W41302  17.278  12.531  12.154  0.4115 -0.0557 -0.0770
21769W        W41303  10.267   9.737   4.237 -0.1532 -0.3813 -0.3952
21770W        W41304  10.723   7.246  13.324  0.4221  0.2086 -0.1826
21771W        W41305   5.108   5.452   2.949  0.1728  0.1575 -0.0373
21772W        W41306   7.277  17.122   2.700  0.0817 -0.2142 -0.0582
21773W        W41307   9.421  16.017  14.641  0.1054 -0.1524 -0.0759
21774W        W41308   8.373  13.496   4.333 -0.1206 -0.0086  0.3123
21775W        W41309  17.183  11.650   0.290 -0.0620 -0.2323 -0.2669
21776W        W41310  10.818  14.282   1.569 -0.1365 -0.0792 -0.1081
21777W        W41311   5.163   8.657  12.862 -0.4628 -0.2183 -0.1309
21778W        W41312  12.828  16.043   5.432  0.1026  0.1582 -0.0856
21779W        W41313   2.771  15.650  14.113 -0.1217 -0.2458 -0.3471
21780W        W41314   5.839   2.184  14.798  0.1320  0.2384  0.2680
21781W        W41315  12.710  17.257  14.694  0.2579 -0.0133  0.0007
21782W        W41316  10.337  12.087  16.572  0.2352  0.1875  0.1237
21783W        W41317   2.321  12.503   1.574 -0.3007  0.2164  0.1492
21784W        W41318  10.676  16.693  13.445  0.1859  0.0519  0.0469
21785W        W41319  10.054   5.693   2.746 -0.1196 -0.0415 -0.0816
21786W        W41320  14.744   5.281  16.171  0.1749 -0.1428  0.3418
21787W        W41321   9.102   5.832  14.505 -0.2297 -0.0470 -0.0457
21788W        W41322   4.856   5.799   0.006 -0.3331 -0.0984  0.1624
21789W        W41323  16.827   1.568  15.582  0.1954 -0.1007 -0.0363
21790W        W41324   4.797  11.711  13.133  0.2024 -0.0143  0.1677
21791W        W41325   8.250   3.831  14.117  0.2385 -0.0492 -0.1848
21792W        W41326  11.643   6.682  13.260 -0.0237 -0.0125 -0.1087
21793W        W41327   3.305  10.358   4.958  0.0009 -0.0873 -0.0149
21794W        W41328   2.835   6.056   5.194  0.0648 -0.0996  0.0664
21795W        W41329   5.686  12.623  15.618  0.0386  0.1007  0.3308
21796W        W41330   3.607   8.409  14.711  0.1922 -0.2251 -0.3106
21797W        W41331  12.006  13.246  15.460 -0.0851  0.3168  0.0711
21798W        W41332  10.291   5.121  13.229 -0.1454 -0.0022 -0.1069
21799W        W41333  13.887  15.468   5.749 -0.2906 -0.1284  0.2562
21800W        W41334   6.309   4.672  14.746 -0.1037  0.0686  0.1996
21801W        W41335   0.785  12.724   1.366  0.0792  0.2453 -0.1313
21802W        W41336   5.819  16.480   3.384  0.2730 -0.2824  0.0573
21803W        W41337   6.120   0.741  14.565 -0.0106  0.1121  0.0221
21804W        W41338   6.066  14.084  14.522  0.2458 -0.1168  0.4613
21805W        W41339  16.998   4.626  16.022 -0.2586 -0.2192 -0.3723
21806W        W41340   7.107   2.250   3.298 -0.0488 -0.4281 -0.1679
21807W        W41341  15.782   1.858   0.642 -0.0454 -0.0912 -0.1106
21808W        W41342  10.175   5.858   4.934 -0.0965  0.0716  0.2726
21809W        W41343   2.399  12.360  15.218  0.0673  0.2644 -0.0347
21810W        W41344   8.141  15.801  14.155 -0.3313 -0.2654  0.0465
21811W        W41345  10.489   2.711  12.833  0.1330  0.0043  0.1881
21812W        W41346   2.562   4.019   3.612 -0.0050 -0.0298  0.1551
21813W        W41347  12.099  14.121  16.106 -0.2125  0.0342 -0.3036
21814W        W41348   5.590   8.764   1.141  0.0654 -0.1034 -0.2027
21815W        W41349   9.461  14.175  13.713  0.3679 -0.1199 -0.0472
21816W        W41350  10.976   7.334  16.338 -0.0058 -0.2462 -0.2392
21817W        W41351   9.325   0.903  16.761 -0.1278  0.2510  0.2750
21818W        W41352  15.713  11.574  14.029 -0.0597  0.0673 -0.1897
21819W        W41353  10.070   7.269   2.263 -0.1361 -0.1136 -0.2448
21820W        W41354  12.515   1.809  15.526  0.1392  0.2218 -0.1084
21821W        W41355   4.980   5.773   1.095 -0.0813  0.1101 -0.2518
21822W        W41356   9.290   1.995   3.383 -0.0802 -0.1026 -0.1528
21823W        W41357   7.669   4.558   2.598  0.1277 -0.1722  0.0938
21824W        W41358  15.305   4.580  12.131 -0.0454  0.2881 -0.0806
21825W        W41359   3.354  12.154  12.285  0.0881  0.0847  0.0003
21826W        W41360   3.700  16.953   4.372  0.0529 -0.0770 -0.0404
21827W        W41361  13.097   3.430  13.056  0.1904 -0.0149 -0.0765
21828W        W41362   9.577  10.393   3.432 -0.2262  0.1737  0.1430
21829W        W41363   3.778  15.998   3.994  0.4164 -0.0125  0.3031
21830W        W41364   7.427  14.897  15.950 -0.2031 -0.1971  0.2974
21831W        W41365  13.407   4.888  15.419 -0.1359 -0.3192 -0.1041
21832W        W41366  15.666  16.891  16.584  0.3159  0.0283 -0.0829
21833W        W41367  17.427   6.031   0.662  0.1745 -0.0717  0.2493
21834W        W41368   2.102  16.857  15.179 -0.2649  0.2084  0.1231
21835W        W41369  16.575  17.613  13.808  0.1094  0.0662 -0.0151
21836W        W41370   7.298  16.029   1.482 -0.0735 -0.0470  0.0202
21837W        W41371   0.331  15.735   0.659  0.0901 -0.5115  0.0518
21838W        W41372   3.685  15.160   3.214 -0.0314  0.1457 -0.1023
21839W        W41373   6.869   5.784  16.196 -0.2175  0.3108 -0.0432
21840W        W41374   7.171   5.436   3.806  0.2774  0.2011  0.0949
21841W        W41375  17.136   0.166   1.624  0.3468  0.2201 -0.4598
21842W        W41376   1.472  17.663  15.482 -0.2631  0.0919  0.0159
21843W        W41377  11.088   0.863  13.461 -0.0255  0.0429 -0.1385
21844W        W41378   1.469  12.635   3.773  0.1816 -0.1182  0.2056
21845W        W41379   9.040  10.817  14.335  0.2877 -0.2137 -0.3973
21846W        W41380  11.244   6.931  16.629 -0.1569  0.1633 -0.0534
21847W        W41381   9.133   3.572   1.956 -0.2261 -0.0561 -0.0474
21848W        W41382   1.945  15.910  15.689  0.1308  0.1220 -0.1319
21849W        W41383   5.626  17.548  16.795  0.0093 -0.2055  0.0821
21850W        W41384  11.548  12.895   0.219  0.0500 -0.4261 -0.0173
21851W        W41385   2.127  10.204  14.043  0.0964  0.1611  0.2100
21852W        W41386   9.198   4.736  14.712  0.0934  0.0317  0.1982
21853W        W41387   3.817   2.391  14.926  0.0500 -0.1012 -0.2032
21854W        W41388  15.692  13.408  11.698 -0.3129  0.2168 -0.3524
21855W        W41389   0.021  10.901  15.706 -0.3515 -0.0269 -0.3669
21856W        W41390   8.235  13.744   5.626  0.0292  0.4438 -0.0769
21857W        W41391  10.592   9.342  12.427 -0.0049  0.2286 -0.0305
21858W        W41392   2.194  11.340  14.451  0.0767 -0.0708 -0.1098
21859W        W41393  11.287  15.524   1.157  0.1928  0.3006 -0.0162
21860W        W41394  10.972   7.074  12.126 -0.0451 -0.2252 -0.3134
21861W        W41395  16.488  13.708  14.652 -0.0146 -0.1012  0.3437
21862W        W41396  13.516   8.931   0.076 -0.0338 -0.1552  0.0114
21863W        W41397  10.194  14.897   1.262  0.1999 -0.0391  0.2347
21864W        W41398   2.671  16.895   0.924 -0.5959  0.2286  0.0685
21865W        W41399  11.425  15.804  12.479  0.0585  0.0021  0.2095
21866W        W41400   7.483  11.449  16.933  0.0623  0.0564 -0.2139
21867W        W41401  10.041  15.248  17.043 -0.2600 -0.2284 -0.1907
21868W        W41402   5.610   7.884  12.685 -0.0519  0.2119 -0.0854
21869W        W41403   0.965  13.153   4.693 -0.0264 -0.1386  0.2122
21870W        W41404   0.901  14.416  14.465 -0.0062  0.0655  0.2141
21871W        W41405  13.419  13.134  16.834  0.0361  0.1889  0.3177
21872W        W41406  15.692   0.084  16.663 -0.1203 -0.1788  0.0132
21873W        W41407  13.299   4.026  14.682 -0.1233 -0.2184 -0.1647
21874W        W41408  10.036   8.021  12.659 -0.0601  0.3113 -0.0392
21875W        W41409   8.721   9.322   0.869 -0.1109 -0.1733  0.0884
21876W        W41410   4.259  14.141  14.967  0.3428  0.0854  0.2053
21877W        W41411  12.232   4.269   2.967  0.2420  0.2295 -0.0097
21878W        W41412  10.006   9.279   2.142 -0.0506  0.2156  0.0557
21879W        W41413   7.254   8.599   0.840 -0.0552 -0.0514 -0.1475
21880W        W41414  14.919   2.101   3.239 -0.2927  0.2713  0.1198
21881W        W41415   9.511  16.281   5.152  0.2642  0.1519  0.0362
21882W        W41416  10.828  16.216  16.115  0.2131  0.1899  0.0286
21883W        W41417  10.555  15.617   4.044 -0.0541  0.0026 -0.1268
21884W        W41418  14.941  10.574  16.332 -0.2489 -0.1682 -0.2046
21885W        W41419   8.961  17.517  14.223  0.1317  0.1495  0.1816
21886W        W41420  14.670   9.543  15.805 -0.1432  0.0257 -0.0360
21887W        W41421   8.128   5.302   3.236  0.0303 -0.1357  0.1419
21888W        W41422  15.905  10.376   3.341 -0.1803  0.4529  0.3006
21889W        W41423   9.360   6.659  15.266 -0.0808  0.0235  0.2128
21890W        W41424  12.495  10.857   2.044 -0.0815  0.1267 -0.0551
21891W        W41425  12.377  14.384  16.905  0.1649 -0.1507 -0.1580
21892W        W41426  13.764   2.642   0.318  0.1007  0.0514  0.3542
21893W        W41427  12.944   4.010  15.956  0.0093  0.1241 -0.1737
21894W        W41428  10.366  13.832   3.749  0.0347  0.0195 -0.2105
21895W        W41429  10.563   1.305  16.850  0.1868 -0.1528  0.0201
21896W        W41430  15.690  15.573   4.193 -0.0465 -0.1505 -0.1393
21897W        W41431   0.785   2.039   5.100 -0.1227 -0.1788  0.1826
21898W        W41432   2.952   3.985  14.598 -0.1717 -0.0490 -0.2195
21899W        W41433   4.103   9.711  13.524 -0.2956  0.0197 -0.1761
21900W        W41434  11.204  11.327   4.689 -0.0328 -0.0692 -0.2795
21901W        W41435   9.362  17.403  15.200 -0.1920 -0.0577 -0.0982
21902W        W41436  16.584   1.223  14.300 -0.2236  0.0289  0.0731
21903W        W41437   8.212  15.452   1.036 -0.0888 -0.1800 -0.0587
21904W        W41438   0.266  14.073   4.626 -0.4360 -0.1159 -0.0128
21905W        W41439  17.489  11.392  13.524 -0.4154  0.1947  0.0561
21906W        W41440   8.179  17.329  13.698 -0.3031  0.0804  0.0887
21907W        W41441   1.223  13.606  15.830 -0.1018 -0.0591  0.0253
21908W        W41442  14.144   2.398  11.779 -0.1196  0.0596 -0.1556
21909W        W41443   6.354   8.636  12.177  0.3167  0.1477 -0.2037
21910W        W41444   2.798   2.016  12.405  0.1870  0.1368 -0.2748
21911W        W41445   5.311  15.841   4.238 -0.0179  0.0136  0.0031
21912W        W41446  13.882  12.661  15.241 -0.1770 -0.0271 -0.2527
21913W        W41447  10.681  15.689   1.307  0.0581 -0.4306  0.1488
21914W        W41448   2.049   6.575   3.983  0.3577  0.1779  0.2114
21915W        W41449   3.670   5.281  14.703 -0.0190 -0.1167 -0.0140
21916W        W41450  17.511  14.662   0.923 -0.2067  0.0264 -0.0016
21917W        W41451   7.430  13.138  13.754 -0.1059  0.3113 -0.0177
21918W        W41452  12.909  14.992  15.508 -0.0019 -0.1504 -0.0265
21919W        W41453   7.391  11.975   1.539  0.0511 -0.0216  0.0861
21920W        W41454   6.248   3.409   0.641  0.1579  0.0061 -0.1285
21921W        W41455  15.022  12.896   4.936  0.0089 -0.2191 -0.1673
21922W        W41456  15.887  14.664  14.210  0.0991 -0.2280  0.3262
21923W        W41457   5.789   0.317   3.994 -0.0004 -0.0868  0.2711
21924W        W41458  12.120  12.368  14.980 -0.0374  0.0478  0.0499
21925W        W41459   9.741   4.256  13.551  0.0333  0.1733 -0.1093
21926W        W41460  14.002   8.756   3.046 -0.1792 -0.0572  0.0402
21927W        W41461  16.645  13.173  11.895 -0.1251 -0.0977  0.1407
21928W        W41462   7.623   3.614   0.368  0.2424  0.3263 -0.1152
21929W        W41463   1.912  11.948  14.898  0.2941  0.0212  0.1068
21930W        W41464  12.880  13.740   3.238 -0.2407  0.0343  0.4511
21931W        W41465  13.705   2.713   0.787  0.1587  0.1569 -0.0761
21932W        W41466  15.074   4.055  16.191 -0.1115 -0.0891 -0.0114
21933W        W41467  12.376  15.390   6.505 -0.1225 -0.3287 -0.0182
21934W        W41468  12.411   0.985  13.887  0.0100 -0.0452 -0.2531
21935W        W41469  14.626  10.541   3.370 -0.1544  0.3329  0.1702
21936W        W41470   5.368   8.752  14.885 -0.1694 -0.0885  0.0281
21937W        W41471   2.175   3.079   5.530  0.1217 -0.1112  0.0188
21938W        W41472   3.155  15.224  11.805 -0.0802  0.2607 -0.1498
21939W        W41473   2.419  17.460  12.382 -0.0030  0.2746  0.2842
21940W        W41474  13.703   4.895  12.220  0.0083 -0.2532 -0.2202
21941W        W41475  16.407   5.614   3.408  0.0627 -0.0412 -0.2870
21942W        W41476  16.465  15.568  11.743 -0.1081  0.1203  0.2036
21943W        W41477   7.833  12.607  14.725 -0.1029 -0.0018 -0.0123
21944W        W41478   0.395   1.649  15.927 -0.0287 -0.0366  0.0125
21945W        W41479   5.357  16.531   3.064 -0.1074  0.1781 -0.0442
21946W        W41480   8.712   8.202   0.206 -0.2274  0.2210 -0.2952
21947W        W41481   4.879   7.937   4.429 -0.0952 -0.1358 -0.3812
21948W        W41482   6.879   3.576   2.033 -0.0658  0.1279  0.1019
21949W        W41483  17.450  16.693  16.862 -0.0484  0.1478 -0.0131
21950W        W41484  16.620   5.659  16.935 -0.1443  0.2567  0.2422
21951W        W41485   0.846   2.382   3.902  0.1731  0.0507  0.0533
21952W        W41486  13.400  15.399   5.519 -0.0004 -0.1631 -0.0007
21953W        W41487  10.414   1.894   4.738  0.1491  0.0714 -0.0861
21954W        W41488   9.412   5.350   2.709 -0.2235  0.0157 -0.0907
21955W        W41489   1.613   7.222  12.958  0.0598  0.2651  0.0958
21956W        W41490   9.133  15.419   0.079  0.0258  0.1331  0.0410
21957W        W41491  10.151   1.777  13.833 -0.2996 -0.0315 -0.2295
21958W        W41492  17.395   5.642  15.297 -0.0711  0.0741  0.0493
21959W        W41493  14.797   8.262   0.938  0.0184 -0.0606  0.0725
21960W        W41494   0.228  11.822   3.400  0.0773  0.0036  0.0446
21961W        W41495   1.283  12.174   4.689 -0.0879  0.0419 -0.1276
21962W        W41496   7.419   0.474  14.516  0.1216  0.0415  0.0204
21963W        W41497  10.764   8.624   1.912 -0.2160 -0.2606  0.5807
21964W        W41498   0.865  17.080  16.875  0.1804  0.1669  0.0834
21965W        W41499  16.560   2.256   2.165  0.0148  0.4773  0.0752
21966W        W41500   0.944   1.598   5.350 -0.1683  0.1106 -0.1846
21967W        W41501   9.594  13.798   1.646  0.0947 -0.0352 -0.0028
21968W        W41502  14.567  12.757  16.059  0.1086 -0.3487  0.1340
21969W        W41503   4.976  11.758   1.060 -0.0444  0.1927 -0.1248
21970W        W41504   7.187   6.013   0.761 -0.2774 -0.0069 -0.0290
21971W        W41505  14.125   1.009  16.949  0.1854 -0.1759  0.0764
21972W        W41506   3.167  10.945  13.651 -0.2063 -0.0117  0.1764
21973W        W41507  14.537  14.433   1.086 -0.1025  0.1227 -0.3223
21974W        W41508   9.024   6.786   4.447  0.0487  0.1819  0.1578
21975W        W41509  16.643  11.299   2.815  0.0941  0.2168  0.1311
21976W        W41510   3.042   7.620  16.916 -0.1666 -0.3109  0.5661
21977W        W41511  17.479   4.726   1.662  0.2420 -0.3514 -0.2398
21978W        W41512   0.959   0.510   0.044  0.0188 -0.0283  0.3043
21979W        W41513  12.571   5.893  12.477  0.0254 -0.0993  0.2179
21980W        W41514   4.578   5.332  13.275  0.2523  0.1727  0.1512
21981W        W41515  13.280  13.640   3.616 -0.0405 -0.1930  0.1138
21982W        W41516   3.557   1.327   3.334  0.2228  0.1677 -0.0715
21983W        W41517  17.058   4.759  15.034 -0.0769 -0.0442  0.0043
21984W        W41518   0.847  13.828  12.867  0.1502  0.2330  0.5343
21985W        W41519  10.763   4.970  15.638 -0.0281 -0.2729  0.0954
21986W        W41520   4.327  15.988  13.771 -0.1236 -0.0200 -0.1700
21987W        W41521   6.681   2.034   2.595  0.0365 -0.2954  0.0530
21988W        W41522   3.641   3.374  13.327  0.3016  0.2629 -0.1437
21989W        W41523   1.306   9.053  12.347 -0.0120  0.1722 -0.1032
21990W        W41524   3.005  10.801   3.361  0.0298 -0.0438  0.0017
21991W        W41525   1.406  16.613   0.474 -0.0739  0.0120  0.2902
21992W        W41526   3.375   0.808  16.157 -0.0313  0.1060 -0.3758
21993W        W41527  11.370   6.255   4.860  0.0678 -0.1152 -0.2250
21994W        W41528   0.695   7.772  14.916 -0.0014  0.0999 -0.2373
21995W        W41529   2.783  16.376   1.855 -0.2040 -0.1121 -0.2873
21996W        W41530   0.429  10.908  14.275  0.2728  0.3724 -0.0680
21997W        W41531   0.556   6.088  15.143  0.3790 -0.0553  0.0677
21998W        W41532  17.572   7.615   3.228  0.1078 -0.0954  0.2399
21999W        W41533  12.749   1.460  14.021 -0.0470  0.1546  0.1289
22000W        W41534   0.104   0.502   4.343  0.3226  0.2740  0.1545
22001W        W41535   3.054  16.752   0.637  0.5270  0.1833 -0.0737
22002W        W41536  15.461  11.498  12.352 -0.0734 -0.1616  0.1662
22003W        W41537   0.221   8.075  13.942 -0.1336 -0.2822  0.0206
22004W        W41538   1.621   5.327   1.540 -0.2324 -0.0399  0.0040
22005W        W41539  12.200  15.149   1.006 -0.1399 -0.3132  0.0926
22006W        W41540   2.079   3.474  14.642  0.4011 -0.0079  0.2119
22007W        W41541  17.230   7.297  13.889  0.0893  0.0537  0.4135
22008W        W41542  11.435  10.197   3.595  0.0936 -0.2751 -0.1122
22009W        W41543  14.028   3.641   4.122 -0.0641  0.0976 -0.0683
22010W        W41544   5.586   4.419   3.076 -0.0318  0.3393  0.3037
22011W        W41545  13.122   2.014   2.956 -0.1277  0.0799  0.1508
22012W        W41546   3.639  15.357  16.179  0.2876  0.4271 -0.0055
22013W        W41547   7.376   5.702   0.420 -0.2308  0.0220 -0.2168
22014W        W41548  17.551  14.323  16.233  0.0171 -0.0508  0.0795
22015W        W41549  12.199  17.560   5.087 -0.1281 -0.2431  0.1147
22016W        W41550   3.146   0.602   0.194 -0.1541  0.1104  0.1885
22017W        W41551  15.873  13.969  15.518  0.1088  0.2031  0.0547
22018W        W41552  13.998   9.824   2.130  0.0573  0.0462  0.0238
22019W        W41553  10.016   5.757   0.658 -0.0136 -0.0159  0.0314
22020W        W41554   1.720  15.801   4.699 -0.1513 -0.1399  0.1459
22021W        W41555  11.538   8.392  13.919 -0.0175 -0.0076  0.1977
22022W        W41556  11.198   6.383  14.480 -0.1908 -0.0866 -0.0066
22023W        W41557   7.734   1.088   2.964 -0.0066 -0.2754 -0.1114
22024W        W41558   6.270   2.983   4.518 -0.0054  0.1542 -0.4010
22025W        W41559  11.324  13.765  13.442  0.0860  0.1618 -0.0697
22026W        W41560   2.005  14.214   2.937  0.4039  0.0099 -0.3010
22027W        W41561  12.365  13.948  12.474  0.0563 -0.1306 -0.1486
22028W        W41562   1.606  11.195  15.568  0.0330  0.1372 -0.2267
22029W        W41563  14.572   0.575   4.120  0.2845  0.1219  0.0041
22030W        W41564  10.259   3.861  13.644 -0.0991 -0.0741 -0.1588
22031W        W41565  13.698   7.783  12.774  0.2224  0.0602  0.2693
22032W        W41566   1.221   7.980   4.966 -0.0231  0.0874  0.0120
22033W        W41567   4.565   8.582  16.083  0.1927 -0.2882  0.0819
22034W        W41568   9.795  10.899   0.177 -0.2679 -0.1132 -0.2454
22035W        W41569  16.801   1.055  15.664 -0.0191 -0.0643 -0.0340
22036W        W41570   4.587  10.323  12.610  0.0942  0.0175  0.0215
22037W        W41571   2.939   0.702  14.440  0.1109 -0.0747  0.2731
22038W        W41572   4.651  17.204  15.182  0.2127 -0.0518  0.1803
22039W        W41573   4.027   6.443  11.736  0.0111  0.0206 -0.0167
22040W        W41574  11.941   8.079  14.844  0.2157  0.0290 -0.3851
22041W        W41575   3.970  16.350   2.534 -0.1040 -0.0867 -0.0197
22042W        W41576   9.335   5.405   4.655  0.3514  0.0378  0.1322
22043W        W41577   8.650  13.201   2.290  0.3908  0.0519  0.0385
22044W        W41578   7.362   3.889   1.969  0.0595 -0.0552  0.1166
22045W        W41579   4.179   9.827  15.569 -0.1635  0.2675  0.0053
22046W        W41580   8.107  16.554   0.234 -0.1337  0.3190  0.0173
22047W        W41581  15.718  14.215   3.541 -0.0308 -0.1676  0.0163
22048W        W41582  12.602  17.654   4.876 -0.2600  0.1496  0.1508
22049W        W41583   8.205  13.371   3.074 -0.1803  0.1094 -0.2267
22050W        W41584  16.467  12.541  14.241  0.0566  0.0587  0.0388
22051W        W41585   0.784   0.846  14.275  0.0605  0.2180  0.1415
22052W        W41586  14.738   0.289   2.940 -0.1412 -0.1021 -0.3596
22053W        W41587   3.917   9.662   0.235 -0.1199  0.3548 -0.4178
22054W        W41588  11.491  16.296   4.680 -0.0209 -0.3317  0.2467
22055W        W41589  11.107   5.207   3.086  0.1039 -0.0971  0.3025
22056W        W41590   3.901   3.817  15.913 -0.3685  0.1172  0.0316
22057W        W41591   6.620  11.133   2.812 -0.3123 -0.1035  0.2640
22058W        W41592  11.968   4.610  11.730  0.1137 -0.1560 -0.0801
22059W        W41593   0.381  17.017   3.743 -0.0996  0.1025 -0.3125
22060W        W41594   0.257   5.101   2.780 -0.0953  0.1329  0.3596
22061W        W41595   3.904  10.555  12.499 -0.0755 -0.1255 -0.3112
22062W        W41596  12.352   8.337  16.792 -0.1079  0.0638  0.2688
22063W        W41597  17.232   3.851   4.674  0.1949 -0.0901 -0.0398
22064W        W41598   5.873   4.025   0.930  0.0489 -0.3102 -0.1268
22065W        W41599   7.040   0.474  13.163 -0.1062  0.1387  0.1927
22066W        W41600  16.834   2.674  14.573 -0.1997 -0.1839 -0.0046
22067W        W41601  17.148   6.884   1.856 -0.0784  0.4611  0.0346
22068W        W41602   6.402  10.433  16.025 -0.2393 -0.0535 -0.1780
22069W        W41603  15.457   7.614   1.027  0.0659 -0.2668  0.1661
22070W        W41604   1.625  13.298   2.596  0.0401  0.0655 -0.2329
22071W        W41605  10.205  15.054   4.416 -0.2139 -0.0074 -0.0349
22072W        W41606  14.911   3.030   0.304  0.2183  0.2097  0.0829
22073W        W41607  16.257  17.273   1.722  0.0021  0.0747  0.2485
22074W        W41608  10.011   9.565   0.518 -0.0523  0.0637  0.2626
22075W        W41609   6.918   3.271  16.111 -0.0616 -0.0877  0.1201
22076W        W41610   8.261   8.398  16.818 -0.1796 -0.1407  0.0620
22077W        W41611  13.903  15.382  15.973 -0.1544  0.0806 -0.2502
22078W        W41612   1.769   4.643   5.379 -0.0869 -0.0010  0.2642
22079W        W41613   7.758   9.138  15.299 -0.0284 -0.0116  0.1865
22080W        W41614  11.077   2.786   0.733  0.1693 -0.1183  0.0129
22081W        W41615   9.151   6.367  16.083  0.1363 -0.0641  0.0424
22082W        W41616  16.013  16.116  12.469  0.0242 -0.0207 -0.2536
22083W        W41617   2.038  12.551  13.503  0.2428  0.3316  0.1804
22084W        W41618  14.258   5.702   5.465 -0.2427  0.3574 -0.1775
22085W        W41619  15.878  14.855   3.593  0.0451  0.0553 -0.1374
22086W        W41620  12.009  14.925  12.115 -0.1105 -0.2780 -0.1376
22087W        W41621  11.123   5.928  13.443  0.2615 -0.1145 -0.2106
22088W        W41622   9.590  14.024   5.055 -0.0212 -0.3939  0.2088
22089W        W41623  15.853   7.254   4.038 -0.1031 -0.1122 -0.0472
22090W        W41624  11.685  11.508  13.760  0.3550  0.3565 -0.1530
22091W        W41625  13.848  11.081  16.104  0.1827  0.0029  0.1235
22092W        W41626  13.146   4.876   4.554  0.0281  0.0528  0.1706
22093W        W41627   0.193   4.802   3.572  0.2441  0.0963  0.0006
22094W        W41628   1.169   9.630  15.870  0.0653 -0.1972  0.0265
22095W        W41629  17.401  15.828  13.995  0.0274  0.1834 -0.0064
22096W        W41630   0.471   4.847   3.169 -0.0843  0.0927  0.1433
22097W        W41631  16.552  15.278  16.647 -0.1410  0.1720  0.4431
22098W        W41632   6.330  16.319  13.508  0.2201  0.0720  0.0841
22099W        W41633   7.035  17.315   0.280 -0.1536  0.3440  0.1933
22100W        W41634   2.285   3.366  13.064  0.3486  0.0555 -0.2861
22101W        W41635   7.851   7.115  13.139 -0.3181  0.0417 -0.0154
22102W        W41636   3.287  13.238   2.645  0.2559 -0.0169  0.0472
22103W        W41637   3.107   5.199  15.512 -0.0100 -0.0004  0.0001
22104W        W41638  14.043   8.733   0.997  0.0049 -0.1237 -0.2775
22105W        W41639  16.824   5.774   2.555 -0.0194  0.2533  0.1911
22106W        W41640  11.580   8.963   3.637 -0.0589  0.0407  0.0909
22107W        W41641   3.261   6.519   4.376  0.3629  0.2386 -0.0031
22108W        W41642  11.242   8.249  14.494  0.1585  0.0582 -0.1120
22109W        W41643   6.449   3.176   1.405  0.2020 -0.0817  0.0409
22110W        W41644  14.047  10.587  16.665  0.1688  0.2766  0.0870
22111W        W41645   6.186   2.088   4.587  0.2530  0.0901 -0.2110
22112W        W41646   4.730  17.452   1.264 -0.0642 -0.0862  0.2181
22113W        W41647  17.284  13.279   2.340 -0.1010 -0.0205  0.1540
22114W        W41648  10.875  15.231   4.977  0.1367  0.1472  0.1773
22115W        W41649   7.966   2.501  16.597 -0.0501  0.0767  0.0946
22116W        W41650   9.757  12.783   4.730  0.2191  0.3333 -0.0168
22117W        W41651   7.245  16.720  12.517 -0.0508 -0.1527 -0.1192
22118W        W41652  11.365  12.432  15.473 -0.1700  0.1570 -0.0156
22119W        W41653  10.753  12.143   5.103  0.1148 -0.1096 -0.2560
22120W        W41654  14.483   8.637  12.952 -0.1238  0.1591 -0.3077
22121W        W41655   7.729   6.854  15.459 -0.1482  0.0507  0.1374
22122W        W41656   7.800  16.671   4.156  0.1201  0.2917  0.0026
22123W        W41657   5.209   3.357  15.719  0.1510  0.0149  0.1686
22124W        W41658   8.879  15.650  16.311  0.1729  0.1701  0.3015
22125W        W41659   6.725   4.999  15.006  0.0714  0.1917  0.0871
22126W        W41660   7.321   9.008  16.680  0.2584 -0.1887 -0.1390
22127W        W41661   8.542  13.019  16.608  0.1456 -0.2182 -0.0745
22128W        W41662  11.289  13.835  15.264  0.3627 -0.1832 -0.0505
22129W        W41663  14.893  11.972   4.736  0.0794  0.1344  0.1677
22130W        W41664  13.446   5.828   1.029 -0.0145  0.1404  0.0880
22131W        W41665   0.762  15.251  15.035  0.0802  0.0162  0.2303
22132W        W41666   2.132   2.322  14.408  0.0288 -0.1253 -0.1327
22133W        W41667   0.448   9.460   1.665  0.0541  0.0852  0.1492
22134W        W41668   7.714  14.951   1.053  0.0261  0.0855  0.1069
22135W        W41669  12.003   1.782  15.606 -0.3355 -0.3221  0.1895
22136W        W41670  11.515  17.606   4.031  0.0859  0.1622 -0.0514
22137W        W41671  11.984  14.518   2.734  0.0537 -0.0766  0.0509
22138W        W41672  10.734   2.852   5.316 -0.0333  0.0469 -0.2830
22139W        W41673   1.527   8.887   0.918 -0.3435  0.0514  0.1784
22140W        W41674  13.699   6.791  15.500 -0.0326 -0.2185 -0.0116
22141W        W41675   1.706  10.424  13.604 -0.0503 -0.0876 -0.2731
22142W        W41676   7.693  16.017  12.309 -0.0840 -0.0731 -0.1029
22143W        W41677  16.102  12.504   4.079  0.0050 -0.3143  0.0664
22144W        W41678  16.943  15.349  14.873  0.1838  0.1415  0.2597
22145W        W41679   8.470  10.349  13.636 -0.3232  0.0612  0.0662
22146W        W41680   5.596  11.934   2.631 -0.0463 -0.0691  0.2162
22147W        W41681   3.147  13.308  13.472 -0.1754  0.0054 -0.1178
22148W        W41682   2.536   5.284  15.833  0.2654 -0.0244  0.3931
22149W        W41683  10.736   2.785   2.543  0.0604  0.1644 -0.1804
22150W        W41684   4.653   8.802  13.369 -0.0009 -0.4039 -0.0370
22151W        W41685   6.076   5.677   0.216 -0.2606 -0.1927  0.0261
22152W        W41686   3.598   8.147  12.763  0.1754 -0.3443  0.0555
22153W        W41687  12.272  12.925   2.789  0.0995 -0.0083  0.1405
22154W        W41688   5.639   8.621  16.623 -0.1525 -0.0723 -0.0878
22155W        W41689  17.389  15.540  16.333 -0.3227  0.1222 -0.0930
22156W        W41690   4.519   6.874   4.999 -0.1381 -0.1796 -0.1602
22157W        W41691  14.167   2.451  13.401  0.0218  0.1302  0.4157
22158W        W41692   6.789   7.812  14.431  0.0372  0.1740 -0.0203
22159W        W41693   6.031  16.461  15.424  0.2050 -0.0754  0.0124
22160W        W41694  11.833   7.642  12.906  0.2908  0.5202 -0.1435
22161W        W41695  12.961   4.905   3.293 -0.2523  0.0092 -0.0026
22162W        W41696   6.794  13.581  14.678  0.0748 -0.1336 -0.2601
22163W        W41697   3.005   7.959  16.122  0.0809 -0.0395  0.2782
22164W        W41698  15.019   4.118   4.213  0.2019 -0.1946  0.0009
22165W        W41699   8.016   4.077   1.625 -0.0715  0.1277  0.3736
22166W        W41700  15.288   3.059  13.136  0.2296  0.2625  0.0018
22167W        W41701  14.041   3.880  12.980 -0.0036  0.1083 -0.0170
22168W        W41702  14.440   4.343   0.496  0.1221 -0.0638 -0.0707
22169W        W41703  14.072  12.084   5.410 -0.1578  0.0432 -0.3954
22170W        W41704  12.961  17.010   2.119  0.2696 -0.0400 -0.0499
22171W        W41705  10.788  12.566   4.427 -0.0870  0.3800 -0.1360
22172W        W41706   9.935  13.065   2.046 -0.2032 -0.1544  0.0483
22173W        W41707  16.574   2.107   2.987  0.0892 -0.0907  0.2667
22174W        W41708   7.243  16.742   3.940  0.1378  0.0941  0.0312
22175W        W41709   5.926  14.686   2.336 -0.1785 -0.1654  0.1832
22176W        W41710   3.809  13.369   2.676  0.0578 -0.0351  0.3708
22177W        W41711  10.559   2.862  16.172 -0.1998 -0.1415  0.0406
22178W        W41712   1.252  13.285   3.247 -0.0023 -0.4440 -0.1842
22179W        W41713   8.035  12.701  15.700 -0.2280 -0.0766  0.0133
22180W        W41714   0.633   4.787  14.965  0.0614 -0.3078  0.2678
22181W        W41715  15.734   6.276   3.857 -0.0088  0.2930  0.3797
22182W        W41716  10.974  14.622   0.544  0.1579 -0.3027 -0.3397
22183W        W41717   1.136  17.397   0.652 -0.3400  0.0897  0.1465
22184W        W41718   2.585  10.401   2.735  0.2077 -0.0614 -0.0005
22185W        W41719   4.954   8.856  16.067 -0.0415 -0.0436 -0.0706
22186W        W41720  15.661   1.670  16.361 -0.1799 -0.1899 -0.1402
22187W        W41721  10.467   9.969  17.065  0.0082  0.3975  0.3847
22188W        W41722   5.314   7.573  15.783  0.0025 -0.1915  0.0480
22189W        W41723   1.969   8.293  17.005 -0.0573  0.3196  0.2506
22190W        W41724  13.287  14.349  12.600 -0.2244  0.1568 -0.0088
22191W        W41725  13.620  17.385  14.467 -0.1752  0.3235 -0.3122
22192W        W41726  14.335   1.454  15.588 -0.0779  0.0549  0.1018
22193W        W41727   1.692   6.954  16.071 -0.1479  0.1886 -0.0269
22194W        W41728   0.580   1.182   3.582 -0.0660 -0.0341  0.1915
22195W        W41729  13.114   0.814   1.228  0.1811 -0.1703 -0.0301
22196W        W41730   1.423   4.320   3.861 -0.1592  0.1014  0.0957
22197W        W41731   9.560   6.104   5.210  0.0126  0.0741 -0.1112
22198W        W41732   5.133  12.840  15.857  0.4007 -0.2148  0.1023
22199W        W41733  13.610   5.105  14.116  0.2373 -0.3249  0.3711
22200W        W41734   0.936   2.911  12.987 -0.2328  0.0837  0.0885
22201W        W41735   7.496   9.959  16.720 -0.1289  0.2362 -0.0336
22202W        W41736   3.893  15.164   2.750  0.0306  0.0089 -0.1452
22203W        W41737   5.174  16.044   1.016  0.1309 -0.0800 -0.1947
22204W        W41738   7.055   7.259  14.369 -0.1422  0.0207 -0.1662
22205W        W41739   7.802   5.233  15.894 -0.1175  0.0214 -0.1182
22206W        W41740  16.961   6.456   4.115 -0.0410 -0.0898 -0.1207
22207W        W41741   0.283   7.117   1.694 -0.3517 -0.4348 -0.1749
22208W        W41742   2.638   4.000   3.110  0.2487 -0.1426  0.3221
22209W        W41743   7.200  14.210   3.566  0.0612 -0.2745 -0.0184
22210W        W41744   2.357  15.291  14.074 -0.2331  0.4243  0.1715
22211W        W41745   9.883   6.004   3.470 -0.1026 -0.1119 -0.0246
22212W        W41746  12.914   4.751   1.472 -0.1850 -0.4454 -0.4251
22213W        W41747   4.319   1.839  16.272  0.1705 -0.1788 -0.0367
22214W        W41748   5.603  15.612  16.155 -0.1987 -0.1901 -0.3828
22215W        W41749  14.045   2.364  16.920  0.0040  0.0593 -0.2790
22216W        W41750   8.497   4.844  16.381  0.1149 -0.1281 -0.0872
22217W        W41751   4.512   3.517   1.790 -0.0205  0.3260 -0.2274
22218W        W41752  13.183   8.842   0.923 -0.2270  0.1995  0.2034
22219W        W41753   0.647   3.363  12.793 -0.1845  0.3176 -0.3146
22220W        W41754  12.760  10.520   2.647 -0.1530  0.0833  0.4788
22221W        W41755   8.659   6.019  17.048 -0.2623 -0.1032 -0.2285
22222W        W41756  14.027   5.884  12.541 -0.2037 -0.2816 -0.0395
22223W        W41757  17.168  12.006  14.690  0.0926  0.0868 -0.2823
22224W        W41758   8.970  14.746  13.225  0.0355  0.1250 -0.3103
22225W        W41759  12.880   3.546  14.376 -0.2040  0.0104  0.1991
22226W        W41760   6.966  11.283   4.160 -0.0135  0.0925  0.1883
22227W        W41761   1.187   8.752  15.387  0.1656 -0.0254  0.0562
22228W        W41762   4.669   2.375  15.936  0.0698  0.0646  0.2259
22229W        W41763   9.176   9.501   4.376 -0.0494 -0.0249  0.1851
22230W        W41764   3.834  12.626  15.592  0.4821 -0.0424  0.1370
22231W        W41765   7.048  10.767   0.318  0.0940  0.1815  0.0086
22232W        W41766   5.719  14.149  17.051 -0.0644 -0.1203 -0.0322
22233W        W41767  17.419   2.419  13.552  0.1527  0.0654  0.4499
22234W        W41768  10.642   8.274  11.762 -0.2070 -0.0276  0.0730
22235W        W41769   7.526  15.476  13.775 -0.1424  0.2347  0.1728
22236W        W41770   4.717  17.270   3.034 -0.0116  0.2991  0.0227
22237W        W41771   6.807  11.290   3.389  0.1217 -0.1092 -0.1664
22238W        W41772   9.054   3.035   3.846 -0.0070 -0.2999 -0.0915
22239W        W41773  16.436   1.294  15.438  0.2431  0.1404  0.2487
22240W        W41774   3.749  10.620  15.099 -0.1337 -0.0535 -0.1806
22241W        W41775  14.177   5.372   0.117 -0.0636  0.0431  0.0572
22242W        W41776   4.838  11.342   3.782  0.0939 -0.1980  0.0954
22243W        W41777  15.830  17.253   1.402  0.2710 -0.0490  0.2410
22244W        W41778  14.482  14.177   0.632 -0.3003 -0.3232  0.2380
22245W        W41779   1.221   3.066   5.335 -0.0120 -0.0608 -0.2586
22246W        W41780   9.620   2.343  13.768  0.0710  0.0213 -0.0103
22247W        W41781   2.539   8.183  14.316  0.0373 -0.0738  0.3825
22248W        W41782  14.492   9.229  13.219  0.2258  0.1588  0.0801
22249W        W41783   7.747   5.854  11.946  0.2190 -0.0924  0.0713
22250W        W41784  17.313   0.313   0.944 -0.1240 -0.1208  0.1619
22251W        W41785  15.791   9.848   0.954 -0.0604  0.2116 -0.1719
22252W        W41786   4.546  16.050  11.872 -0.1921 -0.0743 -0.2064
22253W        W41787   0.155  13.065  14.961  0.2290  0.0941 -0.0038
22254W        W41788   3.777   4.005  17.026  0.1515 -0.1876  0.0545
22255W        W41789  10.242   8.908  15.538 -0.1435  0.1160  0.0561
22256W        W41790   1.037   7.830  15.379  0.0290 -0.1435 -0.2308
22257W        W41791   9.031   2.266   0.518  0.1630  0.0318 -0.0280
22258W        W41792  10.929  10.763  13.051 -0.1259 -0.1287 -0.0273
22259W        W41793   4.877   4.164   2.620 -0.0294  0.4167  0.0410
22260W        W41794  11.094  17.043   5.053 -0.1084 -0.2129  0.0267
22261W        W41795   8.361  13.821   5.118  0.2949  0.1602  0.0374
22262W        W41796  10.132   5.644   3.272 -0.0725 -0.0413  0.1988
22263W        W41797  15.612  13.396  12.966  0.2004  0.1658  0.1119
22264W        W41798   3.425  16.565  12.365  0.1183  0.0493 -0.1021
22265W        W41799  14.021   6.985  12.310 -0.0925  0.0634 -0.0623
22266W        W41800  14.202   9.045   1.403  0.1617  0.3580 -0.1497
22267W        W41801   8.176  12.856   0.418  0.0409 -0.1478  0.0620
22268W        W41802  13.263   9.289   5.288  0.0906  0.2608 -0.1567
22269W        W41803   8.701  10.467   1.738  0.0656 -0.1105  0.1164
22270W        W41804   3.513   5.356  15.271  0.1367 -0.0608  0.2116
22271W        W41805  13.229  16.288   3.185 -0.2679 -0.4022  0.0025
22272W        W41806  12.257  14.272   0.321  0.2604  0.1150  0.0386
22273W        W41807   5.364   8.439   2.430  0.2532  0.0311 -0.1565
22274W        W41808   3.946  15.693  13.778  0.0824 -0.0321  0.1272
22275W        W41809   5.727  14.674  12.501 -0.2255 -0.0843 -0.2593
22276W        W41810   3.144   9.888   4.647 -0.0979 -0.0016 -0.3025
22277W        W41811   5.738   0.332   3.484 -0.0868 -0.4733 -0.0111
22278W        W41812  12.213   2.318   1.121  0.0107  0.1612  0.0381
22279W        W41813   4.196  11.310   2.464 -0.0825 -0.0038  0.1378
22280W        W41814  10.868   7.351   0.542  0.1016  0.0590  0.1880
22281W        W41815  16.199   3.096  12.427 -0.4167 -0.0291  0.1763
22282W        W41816   8.696  15.504  12.949  0.1267 -0.2846  0.0136
22283W        W41817  10.727  16.434   0.146  0.0031 -0.1944 -0.1521
22284W        W41818   3.344   4.275  16.861  0.0203  0.0607  0.0972
22285W        W41819  15.964  15.601   0.637  0.0085  0.3436  0.2957
22286W        W41820  15.421  12.460  12.625  0.1387  0.6006  0.1582
22287W        W41821   0.918  16.887  14.414 -0.2963 -0.3988 -0.0535
22288W        W41822   9.857  15.999  13.462 -0.1338 -0.0251 -0.2047
22289W        W41823  14.001  14.068   1.908  0.1999  0.0713  0.1602
22290W        W41824   7.502  14.499  12.717  0.1330  0.0135 -0.0228
22291W        W41825   1.847  17.395   3.921 -0.3534  0.3747 -0.3926
22292W        W41826  11.401  14.586   5.222 -0.1277 -0.0243  0.1822
22293W        W41827   9.619   4.119  13.054 -0.0054  0.3143 -0.0449
22294W        W41828   8.350   8.364   4.177  0.0875 -0.0824  0.5478
22295W        W41829   4.577   1.894   4.279 -0.3728  0.0910 -0.3536
22296W        W41830   0.743  16.769   3.474 -0.1686  0.0217 -0.0593
22297W        W41831  10.295   0.299   2.082  0.0024  0.1547  0.0368
22298W        W41832   7.281  16.445  14.666 -0.1046  0.1005 -0.3503
22299W        W41833   2.502  11.248   2.710  0.1759 -0.2768 -0.0019
22300W        W41834  13.067   3.505  16.275 -0.0074  0.1400 -0.0420
22301W        W41835  11.195  14.718  13.223  0.3096  0.0266  0.1852
22302W        W41836   7.929  12.457   0.631  0.0487 -0.1186  0.4943
22303W        W41837   7.386   9.875   0.552 -0.0258  0.1245 -0.1244
22304W        W41838   0.916  16.908  15.575  0.4743  0.1463 -0.2876
22305W        W41839  10.847  17.385   2.387 -0.0565 -0.1758  0.2149
22306W        W41840   5.538   5.058  16.917  0.1363 -0.0124  0.0701
22307W        W41841   9.835  12.018   3.649  0.0443 -0.2341 -0.1976
22308W        W41842  14.944  16.080  14.601 -0.0807  0.2119 -0.1050
22309W        W41843   0.178  17.482  15.752  0.0009 -0.1462 -0.1854
22310W        W41844  15.653   4.654   3.605 -0.0391  0.4192 -0.0175
22311W        W41845  12.764  12.308   2.806 -0.0752  0.2025 -0.3426
22312W        W41846  11.934  14.113  15.359 -0.2189  0.3252 -0.1692
22313W        W41847  10.990   0.002   1.524  0.1550 -0.1072 -0.2826
22314W        W41848  14.416  13.569  13.753  0.2410  0.0287  0.0345
22315W        W41849   7.642   7.791   5.791  0.0362 -0.0127 -0.0285
22316W        W41850  17.063   0.074  16.060 -0.1235  0.1847  0.1329
22317W        W41851   9.033  15.223   4.299  0.2000  0.1641  0.0771
22318W        W41852   5.953   5.637   4.641  0.0786 -0.3478 -0.0872
22319W        W41853  16.508  15.800   2.388  0.0452 -0.0575 -0.1494
22320W        W41854  14.532  14.374  16.796  0.0838  0.1074 -0.0403
22321W        W41855   4.371  16.090   3.493 -0.4811 -0.1890  0.1811
22322W        W41856   3.086   4.908   0.894 -0.0452  0.1526  0.2391
22323W        W41857   2.253  15.150   2.226 -0.1010 -0.3369  0.0073
22324W        W41858  12.046  12.471  16.778 -0.0290  0.1342 -0.1327
22325W        W41859   8.676   4.298  13.386  0.1922  0.1253 -0.0096
22326W        W41860   0.000  17.369   4.731 -0.1641  0.0389  0.0743
22327W        W41861   3.402  12.874   3.091  0.2087  0.1360 -0.0549
22328W        W41862   1.933   2.420  13.345 -0.1801  0.3021 -0.0392
22329W        W41863  13.538   3.873  14.254  0.1249 -0.0971 -0.1480
22330W        W41864  16.580   0.166  15.970 -0.0832 -0.1078  0.3210
22331W        W41865  12.514   7.221  14.668 -0.0668 -0.1809  0.0692
22332W        W41866   4.072   7.079  14.175 -0.0362  0.0500 -0.1544
22333W        W41867  16.215   1.766   2.981 -0.0490  0.0326 -0.1955
22334W        W41868  16.846   2.846  14.018 -0.0799  0.0752 -0.3192
22335W        W41869   8.938  13.841   0.834  0.1881  0.2994 -0.1266
22336W        W41870   7.184  12.236  15.954  0.3126  0.1458  0.2278
22337W        W41871  16.526  14.437  16.777 -0.1093  0.1498  0.0720
22338W        W41872  13.399   4.549   1.647  0.2567 -0.1166 -0.2062
22339W        W41873  11.178  17.615   1.992  0.1322 -0.2359  0.1723
22340W        W41874   1.263   5.669  13.553 -0.0531 -0.0262 -0.1366
22341W        W41875   9.082  10.030  12.503 -0.0153 -0.1579  0.0576
22342W        W41876  15.581  12.157  16.802  0.1836 -0.0958  0.0396
22343W        W41877  13.470   4.261  13.642 -0.0150 -0.0127  0.1968
22344W        W41878   1.138   4.025  14.725 -0.0694 -0.0857  0.0526
22345W        W41879   1.370   0.669  13.468 -0.0330 -0.0308 -0.0743
22346W        W41880  15.797   5.937  12.114  0.1134  0.1513  0.1396
22347W        W41881   7.854   8.127  13.416 -0.0135  0.2314  0.1792
22348W        W41882  14.587  17.326  16.967 -0.5512  0.0361 -0.2454
22349W        W41883  11.852  13.944   2.043 -0.1294 -0.0230 -0.0782
22350W        W41884   0.526  11.494  11.867 -0.1741  0.1971 -0.1832
22351W        W41885   0.920  14.893   2.979  0.0933  0.4920 -0.0373
22352W        W41886  13.800  12.381   4.377 -0.0813  0.1028  0.0384
22353W        W41887   7.204   8.342  16.819 -0.0586 -0.1332 -0.0656
22354W        W41888   3.195   1.351  16.299 -0.1021 -0.1429 -0.1089
22355W        W41889   8.224  13.457   0.872  0.2225  0.0021  0.3008
22356W        W41890  16.223   8.148  14.256 -0.1309 -0.2519  0.0389
22357W        W41891   2.923   0.818   2.749 -0.0144 -0.1307  0.0114
22358W        W41892  16.959   0.037   0.660  0.1066 -0.2658 -0.0172
22359W        W41893   2.556   4.388   4.891 -0.0754 -0.0113 -0.0352
22360W        W41894   6.590  13.135   5.349 -0.0366  0.0207  0.3666
22361W        W41895   3.976  10.323  14.201  0.3432  0.0656 -0.0757
22362W        W41896   1.305  12.041  12.645 -0.1256 -0.0604 -0.1072
22363W        W41897   5.432   8.675   0.293  0.0433 -0.0050  0.0192
22364W        W41898   1.256  16.808   2.755  0.2002  0.2258 -0.1416
22365W        W41899   9.588   4.186   4.607 -0.1113 -0.2354 -0.0811
22366W        W41900  16.718   4.702   4.860 -0.1822 -0.0799 -0.1826
22367W        W41901   3.161   5.769  16.329 -0.0919 -0.2896 -0.0490
22368W        W41902  11.608   6.209  16.401  0.0675  0.0575 -0.0086
22369W        W41903   2.493   7.852  12.124 -0.0980  0.1070 -0.1687
22370W        W41904  16.730   2.667   3.154  0.1658 -0.2967 -0.1621
22371W        W41905  12.645  17.612  13.051 -0.1931 -0.3983  0.3822
22372W        W41906  11.804   8.475   0.537  0.2377  0.1465 -0.2470
22373W        W41907  17.294   2.863  14.810  0.1729  0.0600  0.0281
22374W        W41908  11.114  14.590   2.260  0.0232  0.5614 -0.0177
22375W        W41909   6.140   0.329  15.395  0.0023  0.0278  0.1185
22376W        W41910   6.089   3.627   1.562  0.1387  0.0451  0.1394
22377W        W41911   3.147  17.517  16.077 -0.3926  0.3882 -0.0376
22378W        W41912   9.561  11.739  17.055 -0.0385  0.0360 -0.1641
22379W        W41913  16.416   9.376  13.643  0.1826 -0.0766 -0.6996
22380W        W41914  15.545   2.449   4.642 -0.2196 -0.1029  0.2272
22381W        W41915   9.405   5.717   1.339 -0.1714  0.1384  0.0726
22382W        W41916   9.803   4.633  14.002 -0.0302  0.1065  0.3116
22383W        W41917  11.032   6.717  15.780  0.1393  0.0869  0.1586
22384W        W41918  15.697  16.076   4.814  0.0860 -0.1245  0.0356
22385W        W41919   5.073  13.372   2.786 -0.1583  0.0489 -0.1487
22386W        W41920  16.115   2.406  15.628 -0.1104 -0.0087 -0.1257
22387W        W41921   8.910  11.241  15.864  0.1701  0.2557 -0.0085
22388W        W41922   1.019   1.088   1.600  0.4886 -0.0774 -0.0928
22389W        W41923   8.548  17.221   1.597 -0.4506  0.2542  0.1593
22390W        W41924  13.608  17.270  15.874  0.0802  0.2405 -0.1220
22391W        W41925   3.610  11.229  15.603 -0.2585  0.1790  0.0895
22392W        W41926   6.908   9.007   1.600  0.1263  0.0925  0.0150
22393W        W41927   4.667  10.335  16.036  0.0673  0.0018 -0.0133
22394W        W41928  13.615   1.516  14.126 -0.2322  0.0647  0.2295
22395W        W41929  16.161   5.127   1.241  0.2117 -0.4080 -0.2201
22396W        W41930  11.149   1.429   1.565 -0.0651  0.0150  0.0804
22397W        W41931   3.149   4.428   3.983 -0.0350  0.2405 -0.2182
22398W        W41932   2.672  11.316   3.446  0.1413 -0.2015  0.1164
22399W        W41933   3.698  13.603  13.600 -0.2995  0.2993 -0.2853
22400W        W41934  11.033  10.844   2.528  0.0066  0.1466  0.2259
22401W        W41935  17.061   2.306   0.938  0.0950 -0.4489 -0.1276
22402W        W41936   0.729   9.895  12.756  0.1134 -0.0047  0.0697
22403W        W41937  10.698  13.899  12.168  0.0395  0.1231 -0.2094
22404W        W41938   1.626  12.613   1.977 -0.0405 -0.0042 -0.0446
22405W        W41939   4.619   1.748   2.561 -0.3213 -0.0241  0.0375
22406W        W41940   2.019   5.624   4.512  0.1035 -0.0470  0.0754
22407W        W41941  17.478   0.915  16.346 -0.4619 -0.0314 -0.0200
22408W        W41942   9.691   0.914   0.818 -0.0023 -0.1493  0.2233
22409W        W41943  17.459   5.116   5.306 -0.1315  0.1040  0.2904
22410W        W41944  13.458  14.019   2.675  0.1264 -0.1406  0.2416
22411W        W41945   5.307  16.046  14.187 -0.0963  0.1539 -0.0317
22412W        W41946  17.306  13.916   0.736  0.0258 -0.1749  0.1057
22413W        W41947   8.578  16.334  11.948 -0.1436  0.3177  0.1621
22414W        W41948   5.949   9.473  16.118 -0.0086  0.0870 -0.1523
22415W        W41949   5.600   8.403   1.907 -0.0456  0.0184  0.0111
22416W        W41950   7.036  10.499   2.811 -0.0097 -0.2736  0.0769
22417W        W41951  10.722   2.880  17.071 -0.1004 -0.1913  0.2070
22418W        W41952  14.827  17.291   4.345 -0.3771  0.0503  0.2012
22419W        W41953  17.327  11.097   1.683  0.2171 -0.2477  0.0325
22420W        W41954   2.664  17.259   2.128  0.2862 -0.1726  0.3350
22421W        W41955   0.804  11.899  12.328  0.1029  0.1767 -0.0178
22422W        W41956  11.866   5.487   3.601 -0.0281  0.1265  0.2911
22423W        W41957  15.862   4.546   1.291  0.1896 -0.0580  0.0661
22424W        W41958  10.225  14.514   4.675  0.3461  0.2688 -0.0002
22425W        W41959   5.073  16.515  14.123  0.0192 -0.1282 -0.0598
22426W        W41960  12.316   4.593  16.308  0.0933  0.1165 -0.1592
22427W        W41961   2.310  14.494   4.865 -0.2731  0.1379  0.1157
22428W        W41962   8.321   1.769   2.619  0.0636  0.1129 -0.0737
22429W        W41963   1.686  17.540   4.459  0.3283  0.1130  0.2221
22430W        W41964   9.161   2.066  12.164  0.1311  0.1802  0.1241
22431W        W41965   8.467   1.214   2.602 -0.1901 -0.0698  0.0047
22432W        W41966   7.990   9.923  14.925  0.1321  0.2563  0.3036
22433W        W41967   4.717   2.138  16.398 -0.3175  0.2027  0.3405
22434W        W41968   4.496   0.751   4.309  0.2770  0.0242  0.3662
22435W        W41969   7.570  13.812   2.679 -0.0815 -0.0898 -0.1394
22436W        W41970  12.469  10.274  15.062  0.2056  0.2952 -0.3225
22437W        W41971  12.684   9.106   2.574 -0.1183  0.2059 -0.0220
22438W        W41972  11.195   1.765   3.618  0.0104 -0.3423  0.1032
22439W        W41973   9.940   7.041   0.346  0.0486 -0.2790 -0.0161
22440W        W41974   4.764   9.321  14.273  0.0816  0.2148  0.0892
22441W        W41975  11.246   6.197  15.822  0.1681  0.2782 -0.3062
22442W        W41976  13.427  12.331  15.713  0.1343  0.0014  0.1057
22443W        W41977  13.780  11.720   3.554  0.3293  0.1611  0.0303
22444W        W41978  11.342   6.614   2.659  0.1348 -0.0757  0.0856
22445W        W41979  16.730   7.224   1.927  0.1859 -0.2063  0.1720
22446W        W41980  14.872   4.456   1.939  0.0098 -0.0081  0.1972
22447W        W41981  11.424  10.935   2.258 -0.0030 -0.2552 -0.1844
22448W        W41982   0.810   1.621  13.113 -0.0248 -0.1197 -0.2928
22449W        W41983   7.267   1.634   1.722  0.2405 -0.0858 -0.0530
22450W        W41984  16.174   3.322   1.391 -0.0482  0.2191  0.2211
22451W        W41985   4.994   9.199   1.590 -0.1176 -0.2773  0.1543
22452W        W41986   1.605   1.007  13.842  0.1241  0.0475  0.1754
22453W        W41987  16.136   1.072   1.942  0.3564 -0.1778  0.1026
22454W        W41988   7.195   5.968   4.759  0.0139  0.2793 -0.1929
22455W        W41989   5.986  17.060   4.536  0.1255 -0.0177  0.1084
22456W        W41990   6.362  15.103  11.937 -0.1112 -0.1496 -0.2658
22457W        W41991  16.514   5.405   2.455  0.0552  0.2010 -0.1015
22458W        W41992   1.870   1.761   0.306 -0.0276  0.0319 -0.1007
22459W        W41993   1.859   8.771   4.290 -0.1041 -0.0789 -0.3012
22460W        W41994  11.061   5.721  15.393  0.0226 -0.1783  0.2325
22461W        W41995  16.692  13.679  15.379 -0.0560  0.1181  0.2204
22462W        W41996   4.282   2.801   2.054 -0.1439  0.0648  0.1636
22463W        W41997   1.260   8.997   0.402 -0.1743 -0.0245  0.0964
22464W        W41998   7.978   1.878  13.253 -0.1002 -0.1322 -0.0668
22465W        W41999   6.347   6.463  13.928  0.1078 -0.3856 -0.1687
22466W        W42000   4.501  13.596  16.579 -0.2017 -0.0604  0.2699
22467W        W42001  10.773   1.700   3.347  0.0712  0.1091  0.2840
22468W        W42002   2.139  10.068   4.063 -0.2064 -0.2027 -0.0676
22469W        W42003  10.961  10.865   4.419 -0.1117 -0.1528 -0.2891
22470W        W42004   7.065  13.202   1.814 -0.2280  0.2470  0.0195
22471W        W42005  14.848   6.287  14.817 -0.0217 -0.1554 -0.0955
22472W        W42006   2.165  17.032   2.347 -0.0496 -0.0264  0.3294
22473W        W42007  14.658   5.369  16.744  0.2150 -0.2149  0.1505
22474W        W42008   7.548   5.295  12.242  0.1501 -0.1149 -0.1489
22475W        W42009  17.367  12.752   2.363 -0.0021 -0.2862  0.0971
22476W        W42010  15.272   1.120   1.881  0.1353  0.0225  0.3484
22477W        W42011   4.254   4.106  14.498 -0.0027  0.0846  0.0214
22478W        W42012  10.215   6.454   2.054 -0.0417 -0.0236  0.1376
22479W        W42013   6.942   0.801   1.178 -0.2501  0.2302 -0.1137
22480W        W42014  14.859  14.004  15.224  0.1062 -0.1621  0.0511
22481W        W42015  10.154  10.940   4.938  0.2820 -0.0454 -0.0745
22482W        W42016   7.685  12.120   3.265 -0.0126  0.0535 -0.1985
22483W        W42017  11.168   3.400   1.828  0.4066  0.1834 -0.0033
22484W        W42018   4.470  10.077  16.399 -0.2272  0.1561  0.0497
22485W        W42019  10.713   1.820  14.494  0.1448  0.3414  0.2938
22486W        W42020  10.773  15.991   0.737 -0.2709  0.0852 -0.0775
22487W        W42021  17.504  10.348   4.833  0.0856  0.4068 -0.0843
22488W        W42022   2.899   4.889   4.143 -0.2313  0.1135  0.1001
22489W        W42023   5.848  14.236   1.740  0.0494  0.0672  0.1965
22490W        W42024  13.750   0.071   1.008  0.0758  0.0583  0.1280
22491W        W42025   1.863   5.874  15.156 -0.2833  0.0658  0.1835
22492W        W42026   0.575  16.426   0.339 -0.1172  0.0146 -0.0774
22493W        W42027   5.436  10.872   4.898  0.0230 -0.1581 -0.0067
22494W        W42028  15.368  13.537   3.594 -0.0861  0.0553  0.1620
22495W        W42029   4.846   0.644   1.093 -0.1636 -0.1695 -0.2562
22496W        W42030   1.897   1.833  16.838 -0.1366  0.4206  0.0343
22497W        W42031   6.966   7.242  12.811  0.2779 -0.0619  0.2588
22498W        W42032  14.961   0.098  14.940  0.0498  0.0360  0.1117
22499W        W42033  17.504  15.395  11.980 -0.3555  0.0645 -0.3187
22500W        W42034   7.644   4.922  12.518 -0.2619  0.3092  0.0895
22501W        W42035  10.538  10.091  16.558  0.0933 -0.0798  0.0736
22502W        W42036  10.912   4.800  16.967  0.1612 -0.1037 -0.0930
22503W        W42037   6.401  10.782  12.953 -0.2411  0.0745  0.3036
22504W        W42038  14.918  12.947   3.059 -0.1298 -0.1419  0.1598
22505W        W42039  13.337   6.351   2.330  0.3791 -0.4418 -0.0110
22506W        W42040  15.272  16.830  16.869  0.2095  0.0701 -0.0798
22507W        W42041  10.901  17.573   4.995 -0.0114  0.2001 -0.0145
22508W        W42042   4.726   9.795   3.891 -0.1668  0.0454 -0.2288
22509W        W42043  15.298   9.106   4.175 -0.0666 -0.3126 -0.0143
22510W        W42044   4.233   2.865   3.067 -0.1041 -0.1169 -0.2021
22511W        W42045  15.461   4.293   4.829  0.1270  0.1036 -0.0908
22512W        W42046   2.326   4.836   4.960  0.0916 -0.0601 -0.1082
22513W        W42047   9.711  11.734   2.862  0.1628  0.0049  0.0448
22514W        W42048   5.700  11.818   5.844 -0.0547 -0.1200  0.0499
22515W        W42049   5.176   8.204   0.277  0.0127  0.2595  0.0302
22516W        W42050   9.064  11.266  13.719 -0.0934  0.0259  0.2048
22517W        W42051  16.336   8.131  15.782 -0.0885  0.3092  0.1864
22518W        W42052   5.660  13.374  15.321 -0.0244 -0.2452  0.0712
22519W        W42053   5.816   7.345   2.053  0.0886  0.3043 -0.1996
22520W        W42054   9.765   7.618   0.340 -0.1875  0.3601  0.0512
22521W        W42055  10.036   1.289   0.926  0.0782 -0.3964 -0.2419
22522W        W42056  14.619  13.041   1.520 -0.0007 -0.1226 -0.0325
22523W        W42057  13.545   9.936  14.335  0.1374 -0.2738 -0.3316
22524W        W42058  17.412  13.043  16.805  0.1139 -0.0254 -0.2341
22525W        W42059   3.176  11.379  14.732 -0.0009 -0.0310  0.3644
22526W        W42060   6.921   6.638  12.553  0.0378  0.0789  0.0422
22527W        W42061   1.039   5.912  15.351 -0.2311  0.0243  0.0805
22528W        W42062  16.919   3.846  12.590  0.1273 -0.0538 -0.2548
22529W        W42063  15.384   9.432  15.658 -0.2302  0.0404  0.0035
22530W        W42064  15.306  10.407  15.354 -0.1760 -0.0003 -0.0976
22531W        W42065  11.536  12.388  16.958 -0.2657 -0.2615  0.2393
22532W        W42066  11.891  17.505  16.645 -0.1031 -0.0173 -0.0292
22533W        W42067   0.669   1.853  12.646  0.2678 -0.1452  0.1258
22534W        W42068   9.263  11.100  16.132 -0.0729  0.3540 -0.0318
22535W        W42069  10.339   7.928  15.054  0.0520 -0.1730  0.2373
22536W        W42070   7.707   9.848   4.329  0.3419  0.2106 -0.0865
22537W        W42071   3.221  11.701   4.521 -0.0945  0.1033 -0.1996
22538W        W42072   0.337   8.480   3.523 -0.0122 -0.3198 -0.1055
22539W        W42073   6.435  17.271  13.412  0.1959  0.1702  0.0351
22540W        W42074   7.979  16.948  17.054 -0.0353  0.0330  0.2059
22541W        W42075  11.949  10.697   1.578 -0.2500  0.2499  0.0895
22542W        W42076  11.526  17.375   0.534  0.0093  0.0378 -0.1805
22543W        W42077   3.682  13.514  16.068  0.0375 -0.2507  0.0516
22544W        W42078  15.860   9.376   6.005 -0.3038 -0.0228  0.2465
22545W        W42079   2.254   7.090  13.479 -0.1758 -0.0554  0.0185
22546W        W42080   1.515   8.185   3.200 -0.0978  0.0303 -0.3130
22547W        W42081  12.176  14.558  15.834  0.0925  0.0175  0.1276
22548W        W42082  16.210  14.410   0.645  0.0906 -0.3092 -0.1136
22549W        W42083   5.878   1.698  13.855 -0.0698  0.1320  0.2963
22550W        W42084   5.729  11.113   1.625 -0.1436  0.2158  0.1326
22551W        W42085   8.569  16.224  16.872 -0.2101 -0.0716 -0.3857
22552W        W42086   1.588  12.354   0.090  0.0277  0.0505  0.1215
22553W        W42087   3.238   3.990   2.788 -0.0311 -0.0676  0.2810
22554W        W42088  17.667   4.299  16.562 -0.1743  0.3112 -0.0699
22555W        W42089   9.530  14.239  12.501 -0.1159  0.0206  0.2188
22556W        W42090   2.274  11.337   3.742  0.0170 -0.0449  0.0086
22557W        W42091  16.391  11.737   3.888 -0.1081  0.1862 -0.1756
22558W        W42092   9.352  11.011  13.399 -0.0010 -0.0032  0.0565
22559W        W42093  15.594   0.638  12.720  0.0520  0.2682  0.1275
22560W        W42094   8.868   4.464  16.416 -0.1755  0.3475  0.4074
22561W        W42095   0.045   9.561   1.979  0.3625  0.2922  0.2203
22562W        W42096  11.119   4.618   1.220  0.0979  0.0235  0.0125
22563W        W42097   8.682   9.947  14.316  0.0133  0.0595 -0.1034
22564W        W42098  11.354  12.993  16.780 -0.0889  0.1489 -0.1383
22565W        W42099   8.449  10.920  15.774  0.3910  0.4283 -0.0199
22566W        W42100   1.072   0.389   4.809  0.0126  0.1075  0.0866
22567W        W42101   2.075   4.504  16.618 -0.1536  0.0452 -0.2262
22568W        W42102   1.104   7.085   0.092  0.1372  0.0245  0.0246
22569W        W42103  16.179   7.539  12.992 -0.1738  0.2795 -0.0613
22570W        W42104   8.555   2.342   3.448  0.2395  0.0175  0.1350
22571W        W42105  13.491  17.591  12.689 -0.2114  0.0092  0.3749
22572W        W42106  13.953  16.133  14.905  0.0224  0.2480 -0.2044
22573W        W42107   8.098  16.973  14.557  0.0586 -0.0675 -0.1254
22574W        W42108   7.688  10.694   3.284  0.3062 -0.1136 -0.2146
22575W        W42109  14.042  14.541   1.665 -0.2016  0.2863  0.0089
22576W        W42110   0.693   1.353  14.067  0.0422  0.1034  0.0262
22577W        W42111   7.649   6.287  12.185 -0.0695 -0.4516 -0.2245
22578W        W42112  10.026   9.860   1.084 -0.0497 -0.1635  0.4917
22579W        W42113  16.710   7.437   0.153 -0.0279 -0.1464 -0.0482
22580W        W42114   9.843   3.482  14.644 -0.1815 -0.0089 -0.1890
22581W        W42115   7.614  15.949  13.720  0.1054  0.0741 -0.0628
22582W        W42116  10.464   0.578   4.995 -0.3464 -0.1752  0.0366
22583W        W42117   0.973   0.921  15.323 -0.1437 -0.3067 -0.2878
22584W        W42118  13.598   7.327   2.802  0.0233  0.2917  0.1937
22585W        W42119   0.803   0.169  16.296 -0.2314 -0.1237  0.0545
22586W        W42120   7.657  13.103   3.785  0.1156  0.2417 -0.3612
22587W        W42121   7.299   5.589   3.360 -0.1227  0.0748  0.2301
22588W        W42122  17.428  10.128   0.913  0.1015  0.0001 -0.4209
22589W        W42123  10.659   0.395   1.638 -0.0732 -0.1965 -0.0282
22590W        W42124  17.251  12.526  14.736  0.0357  0.2704  0.1415
22591W        W42125   2.774   7.796   4.031 -0.1074  0.2820  0.0482
22592W        W42126  15.036  15.177  17.010  0.2176 -0.3525 -0.2265
22593W        W42127  12.194   2.127  14.368 -0.1196 -0.0369  0.1438
22594W        W42128   4.674   6.707  14.926 -0.1769 -0.0198 -0.0700
22595W        W42129  13.676   3.699  15.517  0.2533 -0.0890 -0.1036
22596W        W42130   6.540  17.488   2.559  0.1515  0.0220 -0.0442
22597W        W42131   2.228  12.066  14.572  0.0559 -0.0276 -0.0801
22598W        W42132   6.854   4.216  17.004 -0.0521  0.0700  0.1103
22599W        W42133  11.790  16.682  13.370 -0.2582 -0.1868  0.0070
22600W        W42134   1.819  10.971  14.427  0.1274 -0.3443  0.2045
22601W        W42135   7.230  12.392  12.929 -0.0006  0.1082 -0.1302
22602W        W42136  15.889  15.456  12.273  0.1842  0.1124  0.0449
22603W        W42137  14.426   4.702   5.097 -0.1877 -0.2316 -0.0750
22604W        W42138  14.738  17.637  15.795 -0.0726  0.0285 -0.1829
22605W        W42139   0.183   5.339   5.114 -0.0702 -0.0939  0.2329
22606W        W42140  15.811   5.395   3.220  0.2280  0.2779 -0.0917
22607W        W42141   3.899   0.509   3.684  0.0174 -0.0135  0.0507
22608W        W42142  17.309   8.618  16.741 -0.0061  0.2211 -0.0679
22609W        W42143   8.074   4.754   0.983 -0.3390 -0.1414 -0.0015
22610W        W42144  10.415   5.321  16.055 -0.1832 -0.0142 -0.2277
22611W        W42145  12.049   7.783  14.391  0.0697  0.0951  0.0870
22612W        W42146   5.693   6.251  15.152 -0.1788 -0.0080 -0.1984
22613W        W42147  15.195   9.171   2.251  0.0380  0.1963 -0.2189
22614W        W42148   2.769   2.635  14.218 -0.2646  0.0689  0.0229
22615W        W42149  16.356   9.010  12.235  0.0553  0.0390 -0.1138
22616W        W42150   8.569  14.987  12.049 -0.2802 -0.1783 -0.0947
22617W        W42151  11.033  15.588   4.174 -0.2181  0.0688 -0.1678
22618W        W42152   6.788   8.900   4.953  0.3580 -0.0629 -0.0821
22619W        W42153  10.993  12.996  11.850  0.1706 -0.1262  0.1664
22620W        W42154   4.315  13.057   3.458  0.0822 -0.0852  0.0331
22621W        W42155  10.895   6.397  16.556 -0.1034 -0.1004 -0.4910
22622W        W42156  14.410   2.662   4.673 -0.2147 -0.0225  0.1687
22623W        W42157   8.648   9.011   2.115  0.2824  0.0448 -0.3509
22624W        W42158  13.160   2.330   4.958 -0.1634  0.2219  0.1587
22625W        W42159   0.121   9.057  13.009 -0.0772 -0.0758  0.0554
22626W        W42160   4.182   3.835   4.649 -0.0099 -0.0433 -0.1045
22627W        W42161  10.129   8.141  14.662 -0.0706 -0.2855  0.1401
22628W        W42162   4.280  16.729  16.095 -0.0299  0.0955 -0.4199
22629W        W42163   0.634   7.112   5.039  0.1337 -0.3536 -0.1300
22630W        W42164   5.089   3.503  14.544 -0.1350 -0.1632  0.1514
22631W        W42165  12.930   6.741  16.052 -0.1859 -0.1542 -0.2277
22632W        W42166   6.940  13.351   3.468 -0.1658  0.0290 -0.2025
22633W        W42167  11.924   5.605  14.772  0.2867 -0.0987  0.0565
22634W        W42168  16.814  11.698  14.945 -0.0124  0.3223 -0.3331
22635W        W42169   7.094   0.273   1.345 -0.4600  0.0137  0.1280
22636W        W42170  13.213   5.995  15.668 -0.0654  0.1878 -0.0993
22637W        W42171  12.016  17.309   3.463 -0.0604  0.2031 -0.0090
22638W        W42172   6.589  11.974   4.823  0.0306 -0.1599 -0.1424
22639W        W42173   5.474   3.868  14.379  0.0577  0.2278  0.0051
22640W        W42174   0.310   4.223  12.758  0.0748 -0.2056 -0.0703
22641W        W42175   3.104  15.638   3.696  0.3833  0.2307  0.0255
22642W        W42176  13.261   0.757  14.098 -0.0391  0.0922 -0.2009
22643W        W42177   2.853  10.347   0.139 -0.0310  0.1667 -0.1134
22644W        W42178   5.400   3.872   3.609  0.0105  0.3511  0.3566
22645W        W42179  12.830  12.047  16.842  0.0587  0.0622 -0.0409
22646W        W42180   8.216  15.838  16.940  0.0700 -0.0157 -0.0742
22647W        W42181   5.209   9.695  14.505  0.0057  0.0179 -0.1195
22648W        W42182   5.550  17.363   4.265  0.2299 -0.0883  0.2291
22649W        W42183  12.118  12.000   3.589  0.1379 -0.0361 -0.3998
22650W        W42184  13.307  11.014   1.923 -0.2068 -0.2555 -0.0736
22651W        W42185   6.205   4.072   1.734  0.2539 -0.0439 -0.1222
22652W        W42186  11.881   0.323  16.611  0.1310 -0.0475  0.2166
22653W        W42187  14.910  10.133   1.346  0.0963 -0.1951 -0.0816
22654W        W42188   4.984   8.983  14.657 -0.1435 -0.0993 -0.2381
22655W        W42189  14.729   7.318  14.580  0.0066 -0.1001  0.0683
22656W        W42190   0.021   7.052   0.319  0.2472  0.1961  0.0468
22657W        W42191   0.497   0.935   4.454  0.1228  0.0754  0.2814
22658W        W42192  14.073  16.418  15.666  0.1042 -0.0449  0.0881
22659W        W42193  17.329  10.874   4.882  0.3225 -0.3577 -0.0332
22660W        W42194  11.652   1.564  15.968 -0.1442 -0.4907  0.0168
22661W        W42195  11.924  16.780  15.902  0.0273  0.1018  0.0748
22662W        W42196   5.996   4.086  11.738 -0.3385  0.0387 -0.1826
22663W        W42197  15.985  16.400   5.160 -0.1112  0.2557 -0.2919
22664W        W42198   5.493   3.938   1.734 -0.0734  0.1239  0.2012
22665W        W42199  15.209  11.517   5.264 -0.0999 -0.1393 -0.0301
22666W        W42200   4.804  13.935   3.361 -0.1836  0.2229 -0.2662
22667W        W42201   6.048  11.690  14.967 -0.1356  0.0938  0.0024
22668W        W42202   8.401   1.208   0.722 -0.1818 -0.0062 -0.1884
22669W        W42203  11.962   1.397  16.363  0.2493  0.1933  0.1837
22670W        W42204  10.017  14.533   0.413 -0.1085 -0.0181 -0.2116
22671W        W42205  11.633   2.066   4.930  0.3111  0.0983  0.0064
22672W        W42206  15.992   9.617  16.991  0.1747 -0.0657  0.1386
22673W        W42207   2.244   6.300   4.609 -0.1489  0.4076  0.1007
22674W        W42208  16.999  13.902  12.079 -0.0906  0.2326  0.0886
22675W        W42209   2.637  15.778   0.059 -0.2091  0.2093 -0.3492
22676W        W42210   7.097   7.610  13.872 -0.0064 -0.2517 -0.0303
22677W        W42211   8.695   5.281  15.588  0.2864  0.0105 -0.0492
22678W        W42212   2.059   2.300   0.011 -0.0255  0.1800  0.1260
22679W        W42213   7.555  11.488  15.946  0.2016  0.0802  0.1949
22680W        W42214   9.363   4.647  16.810  0.0423  0.0130  0.1026
22681W        W42215  11.525   9.780   1.444 -0.2752 -0.1185 -0.1137
22682W        W42216  15.440   9.959  15.565 -0.2086 -0.0961  0.0765
22683W        W42217   9.183   4.489  14.201  0.0471 -0.0561 -0.0284
22684W        W42218  10.676  14.725   2.084  0.0730 -0.0152  0.3355
22685W        W42219  16.404   5.943  12.671 -0.4370 -0.0399  0.1691
22686W        W42220   6.528   0.718   4.624  0.0568 -0.0536  0.2850
22687W        W42221  11.722  16.454   3.122 -0.0578  0.0825  0.2303
22688W        W42222  12.247   2.992  12.807 -0.1185 -0.1881 -0.0361
22689W        W42223   6.440   3.481  12.202  0.0094  0.0363  0.0061
22690W        W42224   9.162   4.225   3.532 -0.2052 -0.0060 -0.1483
22691W        W42225  17.490   0.346   2.613 -0.0246 -0.1068  0.0125
22692W        W42226   6.863  14.506  11.901 -0.2110  0.0251 -0.0683
22693W        W42227  10.630  15.330  14.448 -0.0620  0.0196  0.0669
22694W        W42228   9.899  16.237  14.728  0.1626 -0.1200  0.1607
22695W        W42229  10.829  13.014   4.135 -0.2551 -0.1552 -0.0169
22696W        W42230   7.673  14.093  13.587 -0.1109  0.1040  0.1382
22697W        W42231   5.730  13.389   2.210 -0.1275 -0.0238 -0.0151
22698W        W42232  12.398  11.878   4.129 -0.2936 -0.0558  0.2698
22699W        W42233  12.446  15.689   4.975  0.3213 -0.1129  0.2203
22700W        W42234  15.658   9.962  16.841 -0.0332  0.1890  0.0210
22701W        W42235  15.035  14.806  12.227  0.1475 -0.2486 -0.0588
22702W        W42236   1.210   2.745   0.782 -0.2082  0.0549  0.1520
22703W        W42237   0.649  16.599  13.573  0.0015  0.0021  0.0697
22704W        W42238  14.313  10.608   5.828 -0.3401  0.3480 -0.0024
22705W        W42239  10.764  11.573   3.755  0.2547  0.3556 -0.1187
22706W        W42240   9.156   5.961  15.811  0.2025 -0.0093 -0.1810
22707W        W42241  14.676  14.018   1.408 -0.1377 -0.5354 -0.0315
22708W        W42242   5.244  16.645   1.473 -0.0209  0.1453 -0.1326
22709W        W42243   3.749   6.357  16.313 -0.2009 -0.2438  0.1847
22710W        W42244   6.324   7.501   2.208 -0.0130  0.0717 -0.1579
22711W        W42245   1.469  13.533  14.408  0.1938 -0.1051  0.1195
22712W        W42246   5.433   4.044   0.567 -0.2785 -0.3935 -0.1379
22713W        W42247   4.658  14.887  17.019 -0.1811  0.0631 -0.1133
22714W        W42248   1.487  16.573  13.108 -0.0140  0.0213  0.2218
22715W        W42249   6.574   9.743  12.272  0.0886 -0.1531  0.0261
22716W        W42250   5.676   3.830   2.497  0.3866 -0.2722 -0.0552
22717W        W42251  11.743   9.867   1.016  0.1105  0.1359  0.1605
22718W        W42252   8.249   4.556   3.261  0.0611 -0.0657  0.0315
22719W        W42253   1.531   9.344   3.413  0.0979 -0.2898  0.0134
22720W        W42254   1.766   6.712  12.972 -0.5019 -0.1668  0.0336
22721W        W42255  17.407   2.066   3.132 -0.0677  0.0226 -0.3677
22722W        W42256  13.865   3.185   2.035  0.0879  0.1261 -0.0638
22723W        W42257  16.862  13.365  14.594 -0.1752  0.0457 -0.0118
22724W        W42258   0.199   1.712  12.405 -0.1871  0.2720  0.3396
22725W        W42259  11.543   8.560  16.001 -0.1449 -0.2293  0.1864
22726W        W42260  17.295   2.138   4.475 -0.2170  0.1267  0.1867
22727W        W42261   0.422   3.889  13.168  0.0738  0.2085 -0.4005
22728W        W42262   7.351   0.382  15.396 -0.3165 -0.0334 -0.0943
22729W        W42263   8.947   5.095  15.224 -0.3385  0.1613 -0.0276
22730W        W42264  17.344   4.026   1.639 -0.3953  0.0535 -0.2892
22731W        W42265  16.018  13.318   0.521  0.2737 -0.1302  0.0172
22732W        W42266   3.061  14.935   2.076 -0.1261  0.0733 -0.0027
22733W        W42267  16.506   5.858   3.901  0.0622  0.0027 -0.0392
22734W        W42268   8.663   9.370  15.521 -0.0963 -0.1018 -0.4367
22735W        W42269   1.097   6.024   1.388 -0.0960  0.0603  0.1735
22736W        W42270  15.766   0.853  13.208  0.0908  0.1366  0.0583
22737W        W42271   9.186   4.788   1.457  0.1958  0.0408 -0.3204
22738W        W42272  15.683  17.505   5.037  0.2433  0.2872  0.1587
22739W        W42273   5.210   9.618   3.009  0.0906  0.0827 -0.0883
22740W        W42274   5.038  17.464  14.458  0.0680  0.3553  0.0584
22741W        W42275   2.004  15.733  16.138  0.0888  0.1318 -0.0946
22742W        W42276   2.267   7.428   3.922  0.3652 -0.0621 -0.1122
22743W        W42277   2.442   8.491   2.816  0.1854 -0.0254 -0.3343
22744W        W42278   2.997  14.123  16.179 -0.0966 -0.3151 -0.2139
22745W        W42279  10.568   3.101   0.512 -0.3103 -0.1590 -0.0073
22746W        W42280   9.925   6.489   1.621 -0.3355 -0.2370 -0.1838
22747W        W42281   8.706  15.458   1.890 -0.0087 -0.1392 -0.1545
22748W        W42282  13.231  17.501  16.161  0.1160  0.0643  0.1329
22749W        W42283  14.140   1.351   4.547  0.1992 -0.1016 -0.2050
22750W        W42284   8.818  16.388   1.266  0.0118 -0.1685 -0.2753
22751W        W42285   7.011   4.737   3.203 -0.0905 -0.0874  0.1151
22752W        W42286  12.675  16.607   2.287 -0.0131  0.0851 -0.0145
22753W        W42287  16.018  11.090   0.446 -0.2413 -0.1369 -0.3762
22754W        W42288   7.221   5.221  16.234 -0.1516 -0.1731  0.1603
22755W        W42289   9.904   2.611   3.059  0.0856  0.2074  0.2584
22756W        W42290  16.040   0.401  16.701  0.1262 -0.1763  0.1464
22757W        W42291   3.557   0.313  16.063 -0.0199  0.0178 -0.0351
22758W        W42292   6.890  11.355   2.352 -0.1116 -0.2238  0.2420
22759W        W42293  14.252  10.406  15.611  0.0578  0.1612 -0.2158
22760W        W42294   6.569   5.374   4.010  0.1010 -0.0794  0.0804
22761W        W42295   8.848   6.509  16.939  0.0121 -0.0274 -0.1330
22762W        W42296   7.987  11.344  12.565  0.0483  0.0582 -0.2839
22763W        W42297  10.873  17.608   4.070 -0.1551 -0.0392 -0.1891
22764W        W42298  11.624   5.394  12.673  0.2180  0.1109  0.0120
22765W        W42299   1.167   4.631   1.158  0.1259 -0.1071 -0.1394
22766W        W42300   4.589  10.819  13.898 -0.0121  0.0353  0.4458
22767W        W42301   2.066  16.597  13.991  0.0476  0.2153  0.0592
22768W        W42302  14.216  16.699   1.235  0.2825  0.1482  0.1712
22769W        W42303  12.441  11.421  15.799  0.3795  0.2251  0.2882
22770W        W42304  10.492   3.898   1.398  0.0907  0.1816 -0.1421
22771W        W42305   6.635   9.040  15.425  0.1318 -0.3049  0.4336
22772W        W42306   7.821   0.418  12.633 -0.1698 -0.1461  0.0479
22773W        W42307  11.535   5.482   3.973 -0.0270  0.2324 -0.0865
22774W        W42308   6.556  11.052  13.467 -0.0525 -0.0890 -0.0559
22775W        W42309  13.669  15.010  16.508  0.0247  0.0249 -0.2227
22776W        W42310  14.672   5.845   5.187 -0.1129  0.0064  0.1309
22777W        W42311  13.567   5.666  12.373  0.2154 -0.4929  0.2325
22778W        W42312   4.634   0.916  14.169 -0.0970  0.0371  0.2379
22779W        W42313   5.341   0.116   4.131 -0.2660 -0.0439  0.0428
22780W        W42314  14.914  17.113  14.520 -0.0302  0.2161  0.2589
22781W        W42315   9.205   4.948   4.853 -0.1130  0.1021  0.0524
22782W        W42316  16.818  14.652   1.975  0.4015  0.1242 -0.0058
22783W        W42317  10.202   4.867   1.222  0.1800  0.0614 -0.2338
22784W        W42318  12.195  11.288   1.276 -0.0352 -0.1901 -0.0557
22785W        W42319  17.179   1.912  16.394 -0.1045 -0.3290 -0.3073
22786W        W42320  13.184   9.863  12.188  0.1141  0.0501  0.0723
22787W        W42321  11.027   2.422   1.031  0.1168 -0.0948 -0.0579
22788W        W42322  13.850  15.627  12.576  0.1073 -0.2463  0.0590
22789W        W42323  13.719  16.670   2.145 -0.0618  0.1921 -0.2908
22790W        W42324  15.089   9.940   0.531  0.0359  0.0826 -0.0622
22791W        W42325  17.121   2.948   3.356  0.2840 -0.0225  0.1130
22792W        W42326  14.254   1.456   5.124 -0.1887 -0.0509 -0.2883
22793W        W42327   3.257  13.754   0.288 -0.0482  0.1575  0.0380
22794W        W42328  12.701  10.091   4.699 -0.3627 -0.0954  0.0534
22795W        W42329   0.966  11.639  14.259 -0.0380  0.1130 -0.0887
22796W        W42330   1.822   4.788   2.240  0.0619  0.2636 -0.0629
22797W        W42331   9.972   0.288   0.240  0.2661  0.0938  0.0527
22798W        W42332   0.832  13.106  13.743  0.0448  0.1191 -0.0116
22799W        W42333  11.245  17.492  12.436 -0.1091  0.1934  0.0204
22800W        W42334  16.879   4.533  16.562  0.1003 -0.3533  0.2868
22801W        W42335   2.082   4.493   4.683  0.0234  0.1793 -0.1178
22802W        W42336   9.094  11.115  15.181  0.0079  0.1513  0.1666
22803W        W42337   2.418   0.923  16.162 -0.0134  0.0809  0.1397
22804W        W42338  16.937   5.753   3.537 -0.2112  0.1034 -0.0059
22805W        W42339   7.657   1.752  14.318 -0.2059  0.0676  0.1367
22806W        W42340   0.801  13.222   3.539  0.3339 -0.0107 -0.1926
22807W        W42341   7.747   5.492  13.650  0.2687 -0.0817  0.1223
22808W        W42342  10.924   5.796  16.804 -0.0828 -0.0317  0.0789
22809W        W42343  11.361   6.396   4.026  0.1428  0.0255 -0.1085
22810W        W42344   4.045   0.828  16.990 -0.2261 -0.0649 -0.0435
22811W        W42345   5.540   9.912   3.342 -0.5315 -0.1538  0.0102
22812W        W42346   0.552   1.932   4.638 -0.0007  0.1462  0.1069
22813W        W42347   6.859  14.964  11.746  0.0737 -0.1211  0.3750
22814W        W42348  10.144  10.373   1.380 -0.1006 -0.0461  0.2325
22815W        W42349  15.315  16.718   3.154 -0.1386 -0.0984 -0.1920
22816W        W42350  16.457   0.525  16.326 -0.0149  0.1324 -0.3336
22817W        W42351   6.766   3.709  14.035  0.2166  0.0717 -0.2887
22818W        W42352   5.532  10.604  15.748  0.1029 -0.1284  0.0073
22819W        W42353   6.100   1.310  15.602 -0.3283 -0.0924 -0.2204
22820W        W42354   1.027   9.907  12.396 -0.0197 -0.3371  0.0708
22821W        W42355  16.489   4.980  13.472  0.0217 -0.0282  0.2125
22822W        W42356  11.388   2.306  14.038  0.3311 -0.5251  0.1147
22823W        W42357  13.182  14.946  12.749  0.1567  0.1948 -0.2017
22824W        W42358  11.264   7.195   3.859  0.0252  0.1273  0.0207
22825W        W42359   4.330   0.667  13.318  0.1993 -0.1276  0.1022
22826W        W42360  15.333  13.989  16.191  0.1687  0.1723  0.0210
22827W        W42361   7.025  11.821   2.415  0.2319  0.5786 -0.0244
22828W        W42362  15.817   0.158  13.824  0.2850 -0.4389 -0.1871
22829W        W42363  13.376  16.277   4.045 -0.0085  0.0706  0.0129
22830W        W42364  11.879   3.436   2.956  0.0380  0.3566 -0.2914
22831W        W42365   1.244  10.686  13.465  0.0345  0.2610 -0.0801
22832W        W42366   9.101  17.214   1.559  0.0511 -0.3943  0.3508
22833W        W42367  11.710   8.021  16.160 -0.2561 -0.0804  0.1943
22834W        W42368   7.354  10.550   1.827  0.0647  0.2142 -0.0736
22835W        W42369   8.104  13.939   2.941  0.1186 -0.1896 -0.1085
22836W        W42370   0.690  12.586  13.867  0.0447 -0.0090  0.2267
22837W        W42371  13.730  17.209   5.390  0.1208 -0.4420  0.1850
22838W        W42372   0.758  16.834   2.971  0.0184  0.0622 -0.2228
22839W        W42373   6.163  13.818  16.143 -0.1103 -0.1473  0.0393
22840W        W42374  16.086   4.943   3.324 -0.0373 -0.0608 -0.2518
22841W        W42375  16.485   9.710  13.011 -0.4193 -0.0270 -0.0530
22842W        W42376   5.253   9.633   1.664  0.0951 -0.2010  0.0018
22843W        W42377  16.388  16.529   2.998 -0.0086  0.0793  0.2472
22844W        W42378  15.021   9.326   3.147 -0.0552 -0.2555 -0.0820
22845W        W42379  12.813   7.846  15.996  0.1427  0.2163 -0.0690
22846W        W42380   1.230   2.105   2.234  0.2001 -0.2262  0.2958
22847W        W42381  13.822   8.705   2.591  0.2546 -0.0931  0.0332
22848W        W42382  16.102   5.368   2.189 -0.2692 -0.3507 -0.0628
22849W        W42383   7.749  14.340   4.693  0.0732  0.3152  0.3592
22850W        W42384  10.391  11.955  12.720 -0.1847 -0.1894 -0.2419
22851W        W42385  14.351  15.833  16.679 -0.1864  0.2311  0.3093
22852W        W42386   6.948   2.367   3.732  0.0257  0.0359  0.2028
22853W        W42387   2.884  11.755  15.938 -0.0752  0.0189 -0.0619
22854W        W42388   8.209  13.425   2.078 -0.0109 -0.0473  0.0231
22855W        W42389   0.141  17.218   2.882  0.2142 -0.1845 -0.0417
22856W        W42390  16.263  10.410  12.706 -0.0299 -0.3601 -0.0871
22857W        W42391  16.344   0.895   3.519  0.2637  0.0514  0.2078
22858W        W42392  10.332  11.302  15.966  0.1759 -0.2243  0.1333
22859W        W42393  12.653   4.143  15.505  0.0698  0.0352 -0.0334
22860W        W42394   4.513   3.255  12.880 -0.1983  0.1396 -0.2738
22861W        W42395  12.170  10.254   4.639 -0.0898  0.1852  0.2602
22862W        W42396  14.931   0.754   6.373  0.1784  0.0083  0.1377
22863W        W42397   1.219  14.136   1.600 -0.0925 -0.1901  0.3050
22864W        W42398   1.870  15.767  15.014  0.1139  0.0618 -0.2542
22865W        W42399  13.047   6.330   3.956 -0.1814  0.0394  0.0194
22866W        W42400   8.157   7.752  13.630  0.1705  0.1270  0.0616
22867W        W42401  10.703   9.473   4.123  0.1430 -0.0706  0.0336
22868W        W42402  14.006  13.964   5.487  0.0708 -0.0267 -0.0317
22869W        W42403  14.020   2.833  14.270 -0.1354  0.2531  0.2295
22870W        W42404  16.073   5.458   2.715 -0.0611  0.0256 -0.1521
22871W        W42405  16.061   9.864  14.236 -0.0208  0.4931  0.0140
22872W        W42406   8.832   5.414  14.452  0.0470  0.1300  0.2080
22873W        W42407  14.230  14.427   0.176  0.0568 -0.2010  0.1465
22874W        W42408   9.474   3.163   4.029  0.2656 -0.3774  0.4061
22875W        W42409  17.457   3.701  12.674 -0.0496  0.0993 -0.0318
22876W        W42410  11.921   8.200  12.973  0.2844  0.5030 -0.0239
22877W        W42411  11.842   4.856  12.608  0.2362 -0.2832  0.0238
22878W        W42412  11.998   5.455   2.745 -0.1798  0.0832 -0.2445
22879W        W42413   1.023  13.285  13.110  0.0727 -0.3381  0.1098
22880W        W42414   6.693  12.190   5.305  0.0135 -0.2063  0.1344
22881W        W42415   7.387   6.805  12.610  0.3315  0.0892  0.0544
22882W        W42416  14.257   8.020   2.192 -0.3617  0.1611 -0.0301
22883W        W42417  12.694   8.872  12.209  0.0995 -0.1648  0.1618
22884W        W42418   8.238   8.671   3.740 -0.0874 -0.0683 -0.1194
22885W        W42419   2.931   4.939   0.453  0.0204  0.0891 -0.1209
22886W        W42420   5.720   5.990  16.834 -0.1153  0.0654  0.0802
22887W        W42421  10.984   4.728   6.056  0.1470 -0.2732 -0.3075
22888W        W42422   4.201  15.489   4.688  0.1286 -0.2127  0.0105
22889W        W42423  16.315   8.334  14.877 -0.3226 -0.0896 -0.0531
22890W        W42424  11.316   9.422   5.221  0.5303 -0.0129 -0.4562
22891W        W42425   8.297  14.075  14.803 -0.1939 -0.0516 -0.2293
22892W        W42426   8.654   4.361   4.506  0.1100 -0.2107  0.1579
22893W        W42427   7.745   1.242  14.428  0.0748  0.1129 -0.2381
22894W        W42428   3.892  16.505  16.845 -0.1286  0.0402  0.0695
22895W        W42429  12.406   7.716   0.539  0.2740 -0.0632 -0.0348
22896W        W42430   8.846  16.953   4.106  0.1345 -0.3081  0.1140
22897W        W42431   2.685  13.067  15.744  0.1190  0.0709  0.1150
22898W        W42432   5.168   2.935   0.834 -0.1673  0.0589 -0.1646
22899W        W42433  16.877  13.524   1.398  0.0707 -0.2250 -0.1934
22900W        W42434  14.514   7.713   3.942 -0.0036  0.0160 -0.2338
22901W        W42435  13.018  12.614  12.272 -0.2727 -0.3653  0.0223
22902W        W42436   3.021  13.813   3.005  0.0619 -0.0967  0.3494
22903W        W42437  15.196   0.974  16.452 -0.0888 -0.2714 -0.2536
22904W        W42438  12.870  13.327   3.581 -0.1353  0.3132 -0.1800
22905W        W42439   8.820   8.178  15.962  0.0642  0.2750 -0.0197
22906W        W42440  15.493   1.195  15.420  0.0265  0.0750 -0.0614
22907W        W42441   5.740   3.570   3.402 -0.3099  0.2984  0.1051
22908W        W42442   2.036   1.178  13.567 -0.1217  0.1682  0.0463
22909W        W42443  11.738   1.454   0.189  0.0629 -0.0347 -0.0372
22910W        W42444  11.672   6.316   3.525 -0.1274 -0.2322  0.2558
22911W        W42445  12.741   4.004  14.591 -0.1503  0.1142 -0.0764
22912W        W42446  15.759   7.086   3.017 -0.0762 -0.0888  0.2377
22913W        W42447   6.649  15.383   4.151 -0.3872 -0.0826 -0.1550
22914W        W42448  15.212  12.407  13.553  0.1147  0.0027 -0.3067
22915W        W42449  13.425   0.324   0.052 -0.2303 -0.0324  0.3946
22916W        W42450  15.601  17.620   0.044 -0.2187  0.0065  0.0886
22917W        W42451  13.743   0.900  15.801 -0.1077  0.0921  0.1738
22918W        W42452  10.884  14.583  12.621 -0.1231  0.0908 -0.0259
22919W        W42453   3.273   7.927   4.036  0.0621 -0.0793 -0.0288
22920W        W42454   2.597   0.566  15.868 -0.1325  0.0532  0.0144
22921W        W42455  14.707   3.010   2.387 -0.0035  0.1568  0.0486
22922W        W42456  13.632   3.381  16.722  0.0006 -0.0782  0.2455
22923W        W42457   7.375   0.710  12.830 -0.1016  0.5323 -0.1813
22924W        W42458   5.879  15.052   0.357 -0.4312  0.2581 -0.0757
22925W        W42459   5.387   1.242  12.377 -0.2401 -0.1665  0.1400
22926W        W42460  14.790  11.001   3.344 -0.0016  0.3773 -0.3225
22927W        W42461  16.133  12.132   5.781 -0.0139  0.2245  0.1211
22928W        W42462  10.163  16.679  14.851  0.0751 -0.3492  0.0344
22929W        W42463   4.291   7.493  14.907  0.0226 -0.0034 -0.1529
22930W        W42464   2.263   1.960   3.595 -0.0282 -0.1780  0.2488
22931W        W42465   8.988  14.288  12.439 -0.1419  0.0764  0.2087
22932W        W42466  14.385   5.330   1.692 -0.0521 -0.1466  0.1234
22933W        W42467   9.386   3.179   4.610  0.1368  0.0551  0.0278
22934W        W42468   1.037  15.736   1.283 -0.0174  0.3509  0.1857
22935W        W42469  15.705   0.563   2.988 -0.1550 -0.3706  0.1869
22936W        W42470   8.653   5.119   2.312  0.1035 -0.2310 -0.1100
22937W        W42471   0.893  17.395  13.775 -0.1907  0.0274  0.1811
22938W        W42472  10.133   6.023   2.407  0.0026  0.0885 -0.0544
22939W        W42473   5.842  17.535   4.599 -0.2664 -0.1807 -0.0569
22940W        W42474  16.847   4.125   0.437  0.0646 -0.2120  0.0898
22941W        W42475   0.478   5.570  13.103  0.1269 -0.0571  0.3021
22942W        W42476   4.407   2.926  16.088  0.2288 -0.0397 -0.0378
22943W        W42477   3.873   0.829  16.045 -0.2353  0.0859 -0.2537
22944W        W42478   9.331  14.359   2.163 -0.0216 -0.5488  0.2286
22945W        W42479   8.759   3.629   3.096  0.0524  0.0690  0.1610
22946W        W42480   3.570  15.633  12.052  0.0455  0.3994  0.1475
22947W        W42481  11.261   0.959   4.027  0.2506  0.0092  0.3334
22948W        W42482   5.977   6.630  12.653  0.1694  0.2035  0.2693
22949W        W42483  17.156   4.990   1.460 -0.2210  0.0613 -0.0676
22950W        W42484   0.005  10.059   1.339 -0.1296  0.0605 -0.0959
22951W        W42485  14.879  13.490   1.556 -0.0593 -0.2075 -0.0530
22952W        W42486   1.535   1.960  14.992  0.1358  0.0918 -0.1225
22953W        W42487   1.847  15.654  11.942 -0.1850 -0.0791 -0.1524
22954W        W42488   6.010   6.286   1.381 -0.0602 -0.1371  0.1326
22955W        W42489   9.643   9.266   1.760 -0.2358 -0.0458  0.3385
22956W        W42490   3.904   0.825   2.451 -0.0444  0.1378 -0.2681
22957W        W42491   9.432   1.123  15.013  0.1191 -0.1311  0.1628
22958W        W42492   3.325   3.423   3.705 -0.2034 -0.1534 -0.0603
22959W        W42493   3.926  10.193   4.868 -0.0587 -0.2259  0.0262
22960W        W42494  12.202   6.399   2.477  0.2628 -0.1741 -0.2613
22961W        W42495  12.546   7.743  13.520 -0.0234 -0.0449  0.1929
22962W        W42496  12.939   9.698  15.972 -0.0012  0.2018  0.1974
22963W        W42497   8.487   5.415  12.919  0.0257  0.3817 -0.0303
22964W        W42498   6.876   7.597  14.885 -0.1400  0.0813 -0.2531
22965W        W42499   3.468   8.696   3.182 -0.2317  0.3281 -0.0734
22966W        W42500  13.033  16.199   3.689 -0.0966  0.0291  0.0092
22967W        W42501  11.126   6.177  12.563  0.0119  0.0061 -0.2572
22968W        W42502   5.926   6.848  12.040  0.4123 -0.0712  0.2144
22969W        W42503  10.254   9.124   3.879  0.0994  0.2410 -0.1310
22970W        W42504  11.414   7.441  15.397  0.2889 -0.1083  0.1033
22971W        W42505   9.986   3.646  15.155 -0.2576 -0.0199 -0.0645
22972W        W42506  14.711  11.140  15.500 -0.0633 -0.0927  0.1011
22973W        W42507   4.700  14.241   4.264 -0.5200  0.2303  0.0323
22974W        W42508  15.388   1.149  14.770 -0.0391  0.3405  0.1103
22975W        W42509   2.282  11.771  14.202  0.1427  0.0407 -0.0088
22976W        W42510   7.112  12.632  15.388  0.2120  0.1708 -0.3601
22977W        W42511  17.122   8.322  14.564 -0.0108 -0.0374 -0.0235
22978W        W42512   1.330   0.580  16.826  0.0804 -0.3421  0.3136
22979W        W42513  10.248  10.288  14.841  0.3496 -0.3549  0.2746
22980W        W42514   5.210   7.298  13.690  0.0959  0.0625  0.0191
22981W        W42515  13.289   3.084   1.737 -0.1185 -0.1125 -0.4151
22982W        W42516  13.983   5.580  13.305 -0.1657 -0.2962  0.2248
22983W        W42517  16.580   8.287   3.914  0.2453  0.1282  0.1322
22984W        W42518   2.611   5.398   0.434 -0.1462  0.1503  0.0551
22985W        W42519  11.946   0.200   0.340 -0.2298  0.3517 -0.0469
22986W        W42520  12.056   8.462   2.497 -0.4402  0.0324 -0.0786
22987W        W42521   1.877   3.483   5.641  0.0709  0.0463  0.2281
22988W        W42522   0.949   4.484   0.280  0.0312  0.0248 -0.0166
22989W        W42523   8.494   1.803  16.398 -0.2202  0.1314 -0.1764
22990W        W42524   9.857   9.233  13.114  0.1431  0.0574  0.2540
22991W        W42525   4.412   0.877   1.677  0.0690  0.4558 -0.1173
22992W        W42526   2.373  16.991   3.707  0.0080  0.4399 -0.4012
22993W        W42527   1.267   9.250   2.729  0.1014  0.1819 -0.1237
22994W        W42528   8.159   7.780   2.566 -0.0489 -0.1651 -0.0335
22995W        W42529  10.527  16.350   3.004 -0.0696  0.1218  0.0009
22996W        W42530   5.868  12.129   0.605  0.1035 -0.0460 -0.0532
22997W        W42531  13.020  11.311   1.556  0.2237  0.0138 -0.3088
22998W        W42532   0.802  13.958  14.188 -0.1448 -0.1815 -0.0537
22999W        W42533  14.642  17.026  16.590 -0.4031  0.1909  0.3678
23000W        W42534   3.413  12.218   4.577  0.0471 -0.1195  0.1396
23001W        W42535   5.671   7.353   1.111 -0.1558 -0.4711  0.1914
23002W        W42536   1.210   2.258   3.461 -0.0709 -0.2445  0.0546
23003W        W42537   2.971   1.978   4.026  0.1470  0.2966  0.4185
23004W        W42538  12.615   3.079  12.419 -0.2547  0.1768  0.1242
23005W        W42539  14.780  14.390   4.565 -0.0671  0.0023  0.0080
23006W        W42540  14.666   0.225   0.250  0.1459  0.1098  0.0574
23007W        W42541  13.643  12.363  12.153 -0.2796 -0.0179  0.0014
23008W        W42542  15.944   1.476   4.580  0.1113  0.0876  0.0050
23009W        W42543   0.020   4.642   0.775  0.0336  0.1599 -0.0673
23010W        W42544   5.133   5.117  16.267 -0.1263  0.5023 -0.0066
23011W        W42545  12.954   4.336   3.903  0.1576 -0.2580 -0.1516
23012W        W42546  14.990   3.631   4.355 -0.0256  0.1538  0.2852
23013W        W42547  10.505  13.144   0.595 -0.0672  0.1863 -0.2043
23014W        W42548   8.184  10.397   0.048 -0.0075 -0.1295  0.1332
23015W        W42549   7.310  13.385  14.879 -0.0917 -0.1245  0.3114
23016W        W42550  11.844   9.956  16.391  0.0864  0.0282  0.3248
23017W        W42551  13.790  16.760   0.484  0.1144 -0.2156  0.1886
23018W        W42552  16.439  15.555   4.665 -0.0080 -0.0238  0.2438
23019W        W42553  13.737  16.286   1.723 -0.1852 -0.1351 -0.0145
23020W        W42554   5.000   2.623   1.936 -0.2774  0.0365 -0.1185
23021W        W42555   4.686  14.362  12.437  0.1139 -0.0658 -0.2754
23022W        W42556  12.371   8.466   4.603 -0.1197  0.0926 -0.2774
23023W        W42557   0.330   7.833   0.403  0.0443  0.0672 -0.1213
23024W        W42558  10.812   7.962  13.066  0.1935 -0.1194 -0.1774
23025W        W42559   7.726  12.723   3.416  0.3851  0.3836  0.0358
23026W        W42560  11.257   8.188  15.876  0.3277 -0.3039  0.1317
23027W        W42561   9.763  13.239   1.603 -0.0096  0.0318 -0.1402
23028W        W42562  17.669  11.232  14.870  0.0051  0.0333  0.2278
23029W        W42563   1.631  12.355  12.158 -0.1471  0.2275  0.0705
23030W        W42564  14.779  15.603   2.625 -0.0085 -0.0769 -0.2734
23031W        W42565  14.958  12.452   1.718 -0.5148  0.3027 -0.0363
23032W        W42566   2.425  13.243   4.151 -0.0031  0.1151 -0.1466
23033W        W42567   8.836   7.758  12.412 -0.0368  0.0107  0.3067
23034W        W42568  12.315   9.293  14.909 -0.1769 -0.1060 -0.0132
23035W        W42569   5.896  12.180  14.867  0.0676 -0.2979  0.2843
23036W        W42570  16.020   2.277  16.822  0.1413 -0.1024  0.2772
23037W        W42571   9.105  11.492   1.338 -0.1400  0.2522 -0.1169
23038W        W42572   4.416   4.077  15.951  0.0799 -0.1957 -0.1005
23039W        W42573  12.529   6.135   0.566  0.1449 -0.1882 -0.0736
23040W        W42574  15.725  12.214   4.379 -0.0641  0.0560 -0.2092
23041W        W42575   7.626   5.910  12.617 -0.0543  0.0456 -0.2636
23042W        W42576   9.276   9.914   4.618 -0.4221 -0.1818 -0.0317
23043W        W42577  10.985   5.816   0.643  0.0865  0.3313 -0.1684
23044W        W42578  17.101   8.233   0.468 -0.0520 -0.1626 -0.1362
23045W        W42579   9.381   7.605  15.560  0.4657  0.1398 -0.2152
23046W        W42580  14.007   7.135   0.256  0.0845  0.0654 -0.0654
23047W        W42581   7.748   6.972   2.718 -0.0187  0.3480  0.0620
23048W        W42582  10.694   0.470   4.185 -0.0588  0.2111  0.0968
23049W        W42583   9.096  12.674  16.495  0.1478 -0.0476  0.2811
23050W        W42584   6.747  13.921   1.175  0.0608  0.0339 -0.0489
23051W        W42585   8.524  14.435  15.222  0.0526  0.2701  0.1132
23052W        W42586   9.812   5.942  15.662  0.0029  0.2957  0.3243
23053W        W42587  13.992  14.133  15.478  0.1764 -0.3426  0.1427
23054W        W42588   8.347  17.587   4.802 -0.0410  0.0885 -0.0292
23055W        W42589  11.090  12.783   1.148  0.0281  0.0323 -0.1565
23056W        W42590   0.817   3.614   5.185 -0.3511 -0.0977  0.0465
23057W        W42591   8.670  13.973   5.510 -0.0077  0.1594  0.0676
23058W        W42592  13.223   9.752  12.933  0.3505 -0.0014  0.2587
23059W        W42593  17.264   3.127   0.060  0.0582 -0.1835  0.0366
23060W        W42594  10.215   1.213   1.485 -0.1307  0.0575 -0.0568
23061W        W42595   1.227   2.066  16.563  0.2348 -0.2042  0.4527
23062W        W42596  15.039   5.408   5.339  0.0921  0.2056  0.2240
23063W        W42597  11.229   4.740   3.199 -0.2472  0.0925 -0.1531
23064W        W42598  14.637  12.464  12.661 -0.0119  0.3077 -0.0890
23065W        W42599  11.487   4.916  14.391 -0.2386 -0.0578  0.2316
23066W        W42600   9.575   3.002  15.513  0.1516 -0.1084 -0.0659
23067W        W42601  12.824   5.972  12.069 -0.1503  0.1167 -0.1678
23068W        W42602  14.668   2.602   0.421 -0.0363 -0.2328  0.0051
23069W        W42603   5.717  13.269  13.815  0.1218 -0.0394 -0.3525
23070W        W42604   2.526  14.719  12.754  0.0529 -0.2789  0.0375
23071W        W42605  12.797  12.410  13.552 -0.2396 -0.0710  0.1141
23072W        W42606  11.482   7.108  12.965  0.2067  0.1652 -0.1842
23073W        W42607   4.790  15.524  14.417  0.2924  0.1456  0.1611
23074W        W42608  16.657   0.151   3.954 -0.3055 -0.1739 -0.1623
23075W        W42609  14.242   3.107   4.369 -0.0049 -0.0484  0.0211
23076W        W42610   0.886  13.409  16.082 -0.0926  0.0070 -0.1086
23077W        W42611  13.974   6.116  15.876  0.0865 -0.3564 -0.0065
23078W        W42612  12.723  15.641  16.133  0.1795 -0.0839 -0.0685
23079W        W42613   2.216   2.894  13.199 -0.6074 -0.0467 -0.3578
23080W        W42614   8.768   3.893   1.986 -0.1314  0.3618  0.2649
23081W        W42615   9.871  16.945  15.688  0.1384  0.4030 -0.2728
23082W        W42616  15.388  10.216  14.506  0.0054  0.0186  0.0766
23083W        W42617  10.943   0.378   3.376  0.2386  0.0268  0.1187
23084W        W42618  16.088   2.481   4.394  0.1719  0.1586 -0.0738
23085W        W42619   0.664   0.234  15.812  0.1935  0.3384  0.3809
23086W        W42620  11.213   6.087   0.187  0.1587 -0.0948  0.1904
23087W        W42621   8.895   5.479  16.339  0.0618 -0.0747  0.1315
23088W        W42622   3.225  16.202   1.569 -0.3002 -0.2590  0.1742
23089W        W42623   6.468   7.922   2.808  0.3671  0.0106  0.0795
23090W        W42624   0.642  13.554   3.907  0.2967  0.2408  0.3213
23091W        W42625   2.652  10.165   1.361 -0.3040 -0.1128  0.1498
23092W        W42626  13.202   6.535  15.665  0.1717  0.5056  0.1916
23093W        W42627   1.746   2.260   0.432 -0.3251 -0.0754 -0.0698
23094W        W42628   7.912   4.010   2.619 -0.1215  0.1998 -0.1921
23095W        W42629  12.029  13.117  12.475 -0.0439  0.0447  0.2606
23096W        W42630  15.108   6.722   3.679  0.1241  0.2311 -0.0550
23097W        W42631  16.754   6.076  13.720  0.0694  0.0491 -0.0027
23098W        W42632   7.243   4.927   4.535  0.0907 -0.1852 -0.0843
23099W        W42633   3.177   2.648   1.351 -0.0845  0.1075  0.3657
23100W        W42634  15.231   7.219   1.875  0.2180 -0.0364 -0.0764
23101W        W42635   0.604   3.525   0.162 -0.2215  0.2586 -0.1292
23102W        W42636   3.335   1.430  12.734 -0.1592  0.0760  0.0948
23103W        W42637   6.019   3.546   1.059  0.0869  0.0337 -0.3426
23104W        W42638   8.824  13.735   2.379 -0.0804 -0.0758  0.1654
23105W        W42639  12.715  14.467   1.811  0.0059 -0.0024  0.2143
23106W        W42640  16.739   9.816   1.326  0.0768 -0.3620 -0.2085
23107W        W42641   7.007   9.920   4.013 -0.0504 -0.2550  0.0775
23108W        W42642   0.831   9.438  12.473 -0.1977 -0.0715 -0.0748
23109W        W42643   3.800   3.435   3.191 -0.0249  0.2538 -0.2538
23110W        W42644   0.915   4.312  16.886  0.0528 -0.1255  0.0352
23111W        W42645   1.298   4.115  12.623  0.2033 -0.0476  0.0050
23112W        W42646   9.003  15.323  16.681  0.2256  0.0011  0.0033
23113W        W42647   8.931   5.071   0.597 -0.1281  0.1691  0.3029
23114W        W42648  12.180  16.019   0.972 -0.1532 -0.0046  0.0879
23115W        W42649   4.499  16.082  16.771  0.0890  0.3408 -0.1539
23116W        W42650   9.102   4.180  14.877  0.1675  0.0391  0.0537
23117W        W42651  10.815  16.052   1.630 -0.1559  0.1969 -0.1182
23118W        W42652   8.460   4.172  14.944 -0.0611  0.1807 -0.1122
23119W        W42653  11.483   3.070  15.242 -0.0198  0.3146 -0.0294
23120W        W42654  12.976   0.598   5.139  0.1268 -0.0975 -0.0280
23121W        W42655   6.640  12.545   0.077 -0.2966 -0.1825 -0.1665
23122W        W42656  11.158   2.510   2.458  0.2176 -0.1588  0.1971
23123W        W42657  15.200   3.607   1.045 -0.0959 -0.0857 -0.0966
23124W        W42658  16.452  14.237  14.532  0.1434 -0.0298 -0.1347
23125W        W42659   6.283   2.635   2.556 -0.2373 -0.1934  0.0778
23126W        W42660   8.478   6.930  13.520 -0.0275 -0.1927  0.2674
23127W        W42661  11.566  13.754   3.976  0.2564  0.0541 -0.2701
23128W        W42662  12.808  14.047  15.457 -0.2493 -0.2597  0.0032
23129W        W42663  17.511   8.819  15.942  0.1776 -0.2306 -0.0025
23130W        W42664  12.638  11.874  13.620  0.0296  0.1698 -0.1304
23131W        W42665  16.515  13.700  12.252 -0.1453 -0.3642  0.0896
23132W        W42666  11.576  16.541  13.852 -0.1870  0.4990 -0.0254
23133W        W42667  12.543   8.278  14.911 -0.0619 -0.0699 -0.1301
23134W        W42668   8.868   6.872  15.459 -0.1890 -0.0688 -0.0980
23135W        W42669  10.343   5.517   1.191 -0.0302  0.0891 -0.0325
23136W        W42670   9.895   2.965   2.408  0.1185  0.0680  0.2951
23137W        W42671   6.821   6.812  13.209 -0.1523 -0.2821  0.2112
23138W        W42672   2.691  10.583   4.539 -0.2271 -0.1407  0.2285
23139W        W42673   8.154  11.329  15.262 -0.2796  0.0189  0.3258
23140W        W42674  14.330   1.411  16.778 -0.0483 -0.1861 -0.0221
23141W        W42675  14.796   6.293  16.181  0.0917  0.2887  0.1908
23142W        W42676  11.058  11.660   2.078 -0.1349  0.1982  0.0233
23143W        W42677   8.347   0.071  12.320  0.0082  0.2859  0.2169
23144W        W42678   7.908  14.099  10.958  0.2303  0.1555  0.1427
23145W        W42679   6.917   8.552  13.320  0.0224  0.0596  0.1231
23146W        W42680   8.340   8.305  15.837  0.2685 -0.0982 -0.1063
23147W        W42681   2.200  11.131   2.294 -0.3096 -0.3918  0.1893
23148W        W42682   3.973  11.594   3.907 -0.1232 -0.0324 -0.0403
23149W        W42683  13.873  17.587   1.509  0.1117  0.3495 -0.1181
23150W        W42684   7.650   4.733  16.911  0.0049 -0.3848  0.2035
23151W        W42685   5.680   5.847  13.659 -0.0486  0.2213 -0.0952
23152W        W42686  11.547   5.801   4.941 -0.0430 -0.0121 -0.2289
23153W        W42687  13.265   9.481  12.496 -0.0711  0.2626  0.0004
23154W        W42688  10.708  12.261   1.859  0.2241  0.2035 -0.1932
23155W        W42689  16.561   7.703   1.972 -0.1730 -0.1469 -0.0655
23156W        W42690   2.310   0.032  14.029 -0.0432 -0.4237  0.3873
23157W        W42691   1.899   1.439   0.921  0.1325 -0.0168 -0.1341
23158W        W42692  11.843   7.998   1.586 -0.2856 -0.1552 -0.0772
23159W        W42693   8.099  15.166  13.362 -0.0445  0.0698  0.0593
23160W        W42694   6.750   4.047  14.924  0.0566 -0.0384  0.0933
23161W        W42695  16.206  12.105   1.540  0.3636  0.1053 -0.2493
23162W        W42696   4.377   8.923   2.183 -0.0514 -0.1796  0.1361
23163W        W42697  11.494   2.920   1.119 -0.1247 -0.0985  0.1211
23164W        W42698   4.676   5.652   3.758  0.2072  0.1552  0.0884
23165W        W42699  10.484   2.661  14.169  0.1547  0.0129  0.1290
23166W        W42700  12.647   8.807   1.017 -0.1317  0.0161 -0.2624
23167W        W42701   7.697   1.589   3.176 -0.0266 -0.3201 -0.1947
23168W        W42702   7.794   7.155   0.882 -0.3645 -0.1488 -0.0967
23169W        W42703  16.707   2.846  12.480 -0.0256  0.0237 -0.1017
23170W        W42704  13.239  16.074   0.245 -0.0306  0.2963 -0.4566
23171W        W42705   2.112  16.638  13.411 -0.0235 -0.2254 -0.0122
23172W        W42706   0.977   2.816   1.737  0.0658 -0.1936  0.1596
23173W        W42707   8.436   1.725  15.475 -0.1705  0.5308 -0.0371
23174W        W42708   6.597  14.044   3.952  0.1355  0.1606 -0.1068
23175W        W42709   9.602  13.619  15.756  0.2163  0.1465 -0.0149
23176W        W42710   0.925  10.967  16.025 -0.0244  0.2828 -0.0189
23177W        W42711  15.559   5.205  13.245 -0.1007 -0.0379 -0.0300
23178W        W42712  14.149   2.788   2.493  0.0272  0.2026 -0.4178
23179W        W42713  16.528  17.216  12.418  0.2824 -0.4466 -0.3584
23180W        W42714   8.463   6.630  14.868 -0.0290  0.1258 -0.3266
23181W        W42715   4.773  14.321  14.164 -0.1380 -0.2761  0.0568
23182W        W42716   9.412   5.032   3.698 -0.2067 -0.0335  0.3720
23183W        W42717  11.589   3.678   4.313 -0.3302 -0.2632 -0.1746
23184W        W42718   7.787   7.247   4.050 -0.0607 -0.0254  0.0683
23185W        W42719   5.340  15.026  12.394  0.1747 -0.1389  0.2184
23186W        W42720   4.801   6.162   2.030  0.1270  0.0114 -0.2413
23187W        W42721   0.221  15.110  14.073 -0.2277 -0.3617 -0.0469
23188W        W42722   3.158  15.869   4.797  0.1498  0.0125 -0.2517
23189W        W42723   0.577   2.588  13.760  0.1121 -0.0106  0.1936
23190W        W42724   7.739  16.838  15.570 -0.0467 -0.0844 -0.0807
23191W        W42725   9.474  15.929  13.821 -0.2935 -0.2740 -0.1067
23192W        W42726   0.105  15.506  13.795 -0.0925  0.1125  0.0834
23193W        W42727  13.563   3.070   5.151 -0.1134 -0.0642  0.2030
23194W        W42728   4.765  13.825  13.936  0.1198 -0.1306 -0.0914
23195W        W42729   8.376  13.185  13.359 -0.1299 -0.0073 -0.0852
23196W        W42730   6.289   0.754  16.406 -0.1459 -0.1604  0.1205
23197W        W42731  14.265  16.630  12.300 -0.1782  0.0195  0.0856
23198W        W42732  13.450  10.535   2.699 -0.2434 -0.0377 -0.1509
23199W        W42733   3.690   5.459  12.427 -0.1495  0.1219 -0.0756
23200W        W42734  17.075  13.269  12.821  0.2081  0.0844 -0.1977
23201W        W42735   1.607  17.272  14.508  0.0769 -0.2016 -0.1495
23202W        W42736  11.212  10.045  13.003  0.0625 -0.0295 -0.1554
23203W        W42737  11.276  11.901   0.552 -0.3558 -0.4333 -0.1392
23204W        W42738  11.755   4.418  15.642  0.0508  0.0313 -0.2066
23205W        W42739  12.218   5.731  12.818 -0.1693 -0.2079  0.1505
23206W        W42740   7.465   8.810   0.053 -0.3160  0.0399 -0.0711
23207W        W42741   5.491   9.549  15.849  0.0577  0.1272 -0.1038
23208W        W42742  15.817  12.659  12.345 -0.4592  0.0013 -0.0162
23209W        W42743  12.085  11.543  14.203 -0.0816  0.1546  0.3544
23210W        W42744   9.539   1.442  11.651 -0.3747  0.0576 -0.0825
23211W        W42745  10.969  17.631   2.964 -0.4277  0.0436  0.2201
23212W        W42746  12.610   3.852   3.952 -0.3202  0.2788 -0.2310
23213W        W42747   3.318   3.642  15.524 -0.2404 -0.0298 -0.1893
23214W        W42748   0.515   3.982   0.864  0.0400  0.1525 -0.0768
23215W        W42749   9.681  12.218   1.072  0.1945 -0.2262 -0.1193
23216W        W42750  13.754  12.800   2.279 -0.4007  0.0319  0.0080
23217W        W42751  15.900  10.717   2.859  0.2196  0.0265 -0.2451
23218W        W42752  12.748   1.038   4.932  0.1521 -0.0579  0.2045
23219W        W42753  10.996   1.086  17.014  0.0874 -0.1506 -0.0152
23220W        W42754  12.685  16.889  15.677 -0.0304 -0.1275  0.1135
23221W        W42755   0.166   8.049   4.807 -0.1396  0.0370 -0.0655
23222W        W42756   0.542  12.342   4.069  0.0759 -0.0850 -0.1202
23223W        W42757  14.913   3.872  12.993  0.1302  0.0113  0.1037
23224W        W42758  16.622   6.456  15.991 -0.1818 -0.0336 -0.0546
23225W        W42759   8.653   6.062  13.617  0.0644 -0.0699 -0.2154
23226W        W42760   1.368  15.028  16.031  0.3560  0.1348 -0.1262
23227W        W42761   1.056   2.031  12.950 -0.1436  0.0235  0.2928
23228W        W42762   3.476   2.039   3.973 -0.0086 -0.1405  0.0404
23229W        W42763  14.890  13.952  16.500  0.0381 -0.0006 -0.1546
23230W        W42764   1.051  16.628  16.157  0.1978 -0.1855 -0.0179
23231W        W42765   2.403   9.720  13.374  0.0850 -0.2659  0.1875
23232W        W42766   9.963   7.816  14.342  0.1889  0.2361  0.3338
23233W        W42767   3.121  15.336  12.907 -0.2115 -0.0442  0.0140
23234W        W42768  16.363   4.109   2.696  0.2295 -0.2033  0.0776
23235W        W42769   0.979  16.029   2.291 -0.1392  0.0261  0.0151
23236W        W42770   0.817   4.843  13.183 -0.1777 -0.2293 -0.2127
23237W        W42771   8.151   2.770   2.936  0.1921  0.1932  0.1503
23238W        W42772  14.763   8.470   4.503  0.1442  0.0186  0.0792
23239W        W42773   3.345  16.994   4.020  0.0073 -0.0255  0.1704
23240W        W42774  15.517   3.131   0.284 -0.0353  0.1729  0.0204
23241W        W42775   0.706   8.817   4.979 -0.0032  0.1393  0.1768
23242W        W42776   8.294   5.038   1.313  0.2689  0.4360 -0.0542
23243W        W42777   6.489   1.230   0.600 -0.1067 -0.2010 -0.3174
23244W        W42778  15.773   2.549   1.912 -0.0274  0.2828 -0.3008
23245W        W42779   6.976  17.307  12.858 -0.0817 -0.0668  0.0829
23246W        W42780   1.016  11.310  14.801 -0.0693  0.0541 -0.2594
23247W        W42781   0.428  12.653  14.810  0.0965  0.0980 -0.0610
23248W        W42782  13.540   6.393  14.472 -0.1209  0.1227  0.5970
23249W        W42783   1.331   5.713  16.320  0.0109  0.0480  0.1514
23250W        W42784  16.135   0.504  15.912 -0.0097  0.0183  0.2509
23251W        W42785  10.925  13.291   2.763 -0.0861  0.3174 -0.1724
23252W        W42786   5.339  16.034   3.239 -0.0557 -0.1417 -0.1124
23253W        W42787  10.557   8.213   3.956 -0.3075  0.1868 -0.1616
23254W        W42788  15.736  14.343  13.852  0.1501  0.1067  0.0266
23255W        W42789  12.892   9.507  14.871  0.3036  0.0559  0.0137
23256W        W42790   9.743  11.719   4.919  0.0720  0.3568  0.4680
23257W        W42791  14.427   3.629  13.120 -0.1684 -0.0357 -0.2080
23258W        W42792   7.242  17.499  13.843  0.5051  0.1753  0.0425
23259W        W42793  15.427  17.479  14.995 -0.0090 -0.2407 -0.1140
23260W        W42794   0.885   7.219   3.377  0.4117  0.3323 -0.1419
23261W        W42795   3.214   3.023   2.104 -0.0088 -0.0152 -0.0874
23262W        W42796   2.921   2.814   4.369 -0.1357  0.1421 -0.1425
23263W        W42797   4.366   4.842  13.147  0.2766 -0.1436  0.2564
23264W        W42798   9.785   3.377  12.256  0.1078 -0.0941 -0.0980
23265W        W42799  11.239  16.744  12.416 -0.0855  0.0353 -0.1527
23266W        W42800  14.260   4.066  14.782  0.0085  0.4003 -0.0628
23267W        W42801  15.062   0.358   4.904 -0.2447  0.1114  0.0800
23268W        W42802  17.447   8.913  13.710 -0.0923  0.0257 -0.0564
23269W        W42803  12.733  17.398   3.808 -0.0731 -0.0202 -0.0384
23270W        W42804   8.409   9.691   3.919 -0.1730  0.2089  0.0364
23271W        W42805   5.166  12.263   1.319 -0.1451  0.0245 -0.2187
23272W        W42806  10.689  17.572  14.134  0.0807 -0.3229  0.0988
23273W        W42807   5.436   5.992   3.701  0.0063 -0.1360 -0.2293
23274W        W42808   3.703   1.631   3.707 -0.2024 -0.2637  0.1401
23275W        W42809   7.548   1.700  12.934 -0.0927 -0.3517  0.1975
23276W        W42810   3.316   7.113  12.250 -0.3231  0.0227  0.0051
23277W        W42811   6.742   7.352  15.603 -0.0320  0.0364 -0.0468
23278W        W42812  12.956  10.230  14.063 -0.0042 -0.0637  0.1428
23279W        W42813  16.158   9.865   3.037 -0.0736 -0.1421  0.2310
23280W        W42814   7.649  15.091  14.596 -0.1274 -0.2026  0.0365
23281W        W42815   4.880   4.780  12.108 -0.0038  0.0800 -0.1721
23282W        W42816  15.393  15.858  14.567 -0.2122 -0.1245  0.2310
23283W        W42817   3.867  12.615   1.412 -0.0301 -0.1428 -0.1770
23284W        W42818   3.923   9.459  12.611 -0.0735 -0.2117  0.0648
23285W        W42819   2.753  13.502   0.463  0.1222  0.0757 -0.2757
23286W        W42820   9.733  11.314  15.581 -0.0494  0.1307  0.1030
23287W        W42821  12.567  13.274   1.627 -0.3104  0.2986  0.2441
23288W        W42822  13.941  11.988   0.877  0.0945  0.1162 -0.2029
23289W        W42823  16.485  12.580   4.927  0.1354 -0.1116 -0.0098
23290W        W42824   9.098  10.518   3.761 -0.2426 -0.1209  0.0591
23291W        W42825   6.657   1.853  15.683 -0.2958  0.0905  0.1082
23292W        W42826   9.909   7.470  15.353  0.1552 -0.1126 -0.4123
23293W        W42827  12.534  11.957  13.121 -0.0139  0.2468 -0.1010
23294W        W42828   3.862  15.786   2.542  0.0676  0.2475  0.0186
23295W        W42829   7.797  16.720  11.755 -0.0534 -0.1867  0.0996
23296W        W42830  15.817  10.312   1.783 -0.0871 -0.0880 -0.0443
23297W        W42831  16.785  12.692   3.480  0.0979  0.0070  0.1420
23298W        W42832   8.565  16.744  14.999  0.1316  0.1637  0.0846
23299W        W42833   1.689   2.411   1.027 -0.1277  0.0730 -0.0586
23300W        W42834   6.162   9.542   3.780 -0.0888 -0.1719  0.0841
23301W        W42835  14.253  10.939   2.204 -0.2094  0.1189  0.1257
23302W        W42836   4.014  15.839   0.699  0.3618  0.0369  0.2834
23303W        W42837  10.408   7.470  15.461  0.0016 -0.0666  0.1049
23304W        W42838  14.911  15.652  13.804 -0.0200 -0.1500  0.1608
23305W        W42839  11.944  10.759   4.643 -0.0875  0.0826  0.3288
23306W        W42840   3.416  11.194   4.370 -0.2080 -0.0074 -0.1341
23307W        W42841  11.757  16.040   5.053 -0.0171 -0.2037 -0.1440
23308W        W42842   0.274   5.684   5.428 -0.0803  0.1471 -0.0672
23309W        W42843  10.402  11.158   0.931  0.0102  0.0467 -0.0148
23310W        W42844   2.410   9.891  12.886 -0.0787  0.1151  0.0628
23311W        W42845  12.008  10.629  15.772  0.3104  0.1461  0.1601
23312W        W42846  13.127  17.085  15.867 -0.0489 -0.1442  0.6462
23313W        W42847   0.882   9.764   1.809 -0.0196  0.3246 -0.1662
23314W        W42848   9.170   4.038   2.675 -0.0006 -0.1523 -0.2183
23315W        W42849  10.819   6.230   4.821  0.0904 -0.2123 -0.0915
23316W        W42850   6.901   6.365   1.719 -0.0230 -0.0945 -0.0558
23317W        W42851  16.975   7.418   1.199  0.0775 -0.1217  0.2279
23318W        W42852   1.828  10.053   4.663 -0.0455 -0.0479  0.1201
23319W        W42853   2.715  15.303  15.674 -0.2291  0.0282  0.0006
23320W        W42854   7.007   7.123  13.585 -0.2410  0.0248 -0.0436
23321W        W42855   5.610   0.965  12.823  0.2357 -0.4039 -0.1540
23322W        W42856   8.017  12.968  11.788  0.0753 -0.0930 -0.1289
23323W        W42857  13.456   4.065   1.537 -0.1323 -0.0875  0.3010
23324W        W42858   3.704   5.908  16.034  0.0209 -0.3858 -0.2774
23325W        W42859  14.576  10.547   1.105  0.2115  0.1990  0.0438
23326W        W42860   5.348  11.857   3.438  0.2923  0.1311  0.0458
23327W        W42861   7.217  10.278  12.333  0.0082 -0.0673 -0.0339
23328W        W42862   8.097   1.660   4.040 -0.0559  0.2690  0.0242
23329W        W42863  14.144   5.808   3.444 -0.0780  0.1037 -0.1792
23330W        W42864  10.009  13.673  16.695 -0.1398 -0.0036  0.0168
23331W        W42865   9.894   1.088  13.582  0.0562 -0.3364 -0.0662
23332W        W42866   7.841   4.603  12.904 -0.4882 -0.1903 -0.0930
23333W        W42867   7.779  11.193  14.295  0.1930  0.2742 -0.0284
23334W        W42868   3.298   4.192  13.651  0.2065 -0.2776  0.0216
23335W        W42869  11.753   0.794   2.947  0.0444  0.2572  0.0897
23336W        W42870  14.670  13.162  15.681 -0.0332  0.1477 -0.1878
23337W        W42871  13.995  12.251   3.444  0.3655  0.0266  0.0306
23338W        W42872   5.010  16.568  14.913  0.3167  0.1803 -0.0603
23339W        W42873   7.766  13.259  12.709 -0.0068  0.4333 -0.0463
23340W        W42874  13.196  16.849   1.312 -0.2155 -0.1605 -0.0626
23341W        W42875  16.479   6.744  16.793  0.0179 -0.1174 -0.0085
23342W        W42876  16.151  13.474  13.069  0.1865  0.0893  0.1068
23343W        W42877  11.950   7.947  13.420 -0.1266 -0.0174 -0.1074
23344W        W42878   8.590   8.708   4.593  0.0186 -0.3264  0.1574
23345W        W42879   8.928   7.376  14.782  0.1450 -0.2454  0.0936
23346W        W42880  12.406  16.685   2.684 -0.0722  0.0125 -0.1203
23347W        W42881   5.101  14.174  13.235  0.2174  0.0069  0.0970
23348W        W42882   1.492  15.731  16.026 -0.0270 -0.3470  0.0916
23349W        W42883  11.455  14.974  13.971  0.2570 -0.3462 -0.0446
23350W        W42884  16.701  11.290  13.042  0.0152  0.2691  0.2445
23351W        W42885   9.550   8.400  15.876 -0.3657 -0.0510  0.2781
23352W        W42886   3.362  14.663  12.537 -0.1655 -0.1440  0.1618
23353W        W42887  17.573  15.496   2.579  0.0221 -0.1344 -0.0998
23354W        W42888  16.782  15.950   4.475  0.3201  0.1038 -0.1404
23355W        W42889  15.706   5.901   5.116  0.4496 -0.0503 -0.0662
23356W        W42890   9.121   8.295   3.462  0.2656  0.0884 -0.1366
23357W        W42891  16.855  10.364   3.612 -0.0406 -0.1344 -0.0259
23358W        W42892   6.065   0.544  15.878 -0.0398 -0.2740  0.1808
23359W        W42893  15.846   8.189  12.482 -0.0013  0.0982 -0.1472
23360W        W42894   6.096   0.481   2.010  0.2702  0.0820  0.0898
23361W        W42895   2.364   8.900  14.535  0.1347 -0.0308 -0.1027
23362W        W42896   6.528   2.089  16.590  0.3982  0.1529 -0.0834
23363W        W42897   4.896   0.818   0.210 -0.0115  0.1849 -0.1215
23364W        W42898  16.660  10.693  16.046  0.1617  0.0345  0.0441
23365W        W42899   8.267   1.898  14.837 -0.0048  0.1427  0.0288
23366W        W42900  10.090  16.303  15.215 -0.0132 -0.1247  0.1632
23367W        W42901   5.757  15.344   0.783 -0.3712 -0.2342  0.2644
23368W        W42902  16.924  16.301   3.488 -0.3816  0.0170  0.1960
23369W        W42903  10.318   8.732   3.613 -0.2865 -0.1454 -0.0931
23370W        W42904  17.651   3.428  15.683  0.0214 -0.0139 -0.4532
23371W        W42905   7.328  15.906   4.525  0.1499 -0.0261  0.0860
23372W        W42906   2.232   7.175   0.776 -0.0608  0.0401  0.1414
23373W        W42907  11.485  13.919  12.550  0.1524 -0.1646 -0.2152
23374W        W42908   5.624   4.036  16.011  0.0976  0.0717  0.6828
23375W        W42909  16.629  16.407   1.651  0.0180  0.0168 -0.1808
23376W        W42910   6.296  11.507   4.834 -0.1998 -0.1788 -0.1941
23377W        W42911   4.936   6.008   5.030 -0.3104  0.0276  0.2053
23378W        W42912   0.021  15.217   0.277 -0.1475  0.0370  0.1190
23379W        W42913   7.248   7.417   5.883 -0.1544 -0.1926  0.1295
23380W        W42914  12.602   5.573   0.423 -0.1259 -0.1631 -0.2080
23381W        W42915  11.035   3.863   2.674  0.1230  0.0105 -0.3510
23382W        W42916  10.283   3.265  12.028 -0.3583  0.1422 -0.0124
23383W        W42917  13.259   6.806   4.032 -0.2053 -0.0650 -0.0804
23384W        W42918  15.948  12.769   5.069  0.1487  0.1041 -0.0056
23385W        W42919   5.529   9.559  16.388  0.0919  0.0329  0.0732
23386W        W42920  11.839  17.479  12.608 -0.3272 -0.2173  0.3244
23387W        W42921   6.945   5.726  14.967  0.0149 -0.1711 -0.3503
23388W        W42922  17.586  10.630   3.259  0.1139  0.0944 -0.1112
23389W        W42923  11.613   0.086   4.560  0.0046 -0.0735  0.1112
23390W        W42924  11.964   1.657  12.480 -0.0479 -0.1591 -0.0652
23391W        W42925   7.383   7.805  16.824  0.2279  0.2055 -0.3418
23392W        W42926   4.749  12.317  11.090 -0.0415  0.1211  0.0120
23393W        W42927   5.545  14.332  16.576  0.2432  0.2950 -0.0913
23394W        W42928  10.717   8.014  11.042  0.0908  0.0265  0.0732
23395W        W42929   2.285  16.826  15.844 -0.0616 -0.3783 -0.0379
23396W        W42930  15.162   7.558  16.146 -0.1456 -0.4819  0.0225
23397W        W42931  15.217  17.607   4.307  0.0849 -0.1711 -0.1145
23398W        W42932   2.046   9.174  14.909 -0.0610  0.1005  0.1990
23399W        W42933   1.187   9.636  16.866 -0.2029 -0.5357  0.0065
23400W        W42934  13.441   7.653  16.723 -0.0201  0.0637 -0.0113
23401W        W42935   9.254  15.786   1.919  0.2266  0.2244  0.2114
23402W        W42936   2.647   0.921   2.206  0.2654  0.2967 -0.0736
23403W        W42937  17.581   7.654  12.492 -0.0740  0.1386 -0.2181
23404W        W42938   4.213   2.159   3.198 -0.0110  0.1704 -0.0043
23405W        W42939   4.836  15.435   2.811  0.0796  0.1555 -0.0801
23406W        W42940   3.247  14.442  15.836 -0.1976 -0.0696 -0.1060
23407W        W42941   8.332   3.376  14.426 -0.0043 -0.1300  0.0017
23408W        W42942  13.535   6.516   2.762 -0.1558  0.1391 -0.0628
23409W        W42943   8.354   6.059  15.560  0.0193 -0.2425  0.0582
23410W        W42944   1.309   5.482  15.083  0.3410  0.1765 -0.1332
23411W        W42945   7.923   4.693   4.317  0.2547 -0.0532  0.2903
23412W        W42946   5.279   8.091   2.126  0.3677  0.0841  0.2824
23413W        W42947  11.429   0.608   2.583 -0.0154 -0.2202 -0.3150
23414W        W42948   7.636   5.259  11.775  0.1875  0.0676 -0.0167
23415W        W42949  17.043   9.876   3.505  0.3685  0.1190  0.2762
23416W        W42950   4.851  13.956   3.885  0.0313 -0.0944 -0.4453
23417W        W42951  13.765   6.107  13.009  0.0281 -0.1610  0.0703
23418W        W42952   2.762   3.740   4.515 -0.0554  0.3211  0.1919
23419W        W42953  15.967  16.885   1.030 -0.1308 -0.0295  0.0159
23420W        W42954   1.973   3.662  16.044  0.1878 -0.2168  0.0647
23421W        W42955  14.305  10.091   5.067  0.1808  0.0479  0.0745
23422W        W42956  17.216   6.959   0.509 -0.0669 -0.0971  0.2565
23423W        W42957   2.687  16.001  12.981 -0.2955 -0.2903 -0.2229
23424W        W42958  12.794   6.695   4.219 -0.2661  0.2322  0.0690
23425W        W42959  10.777   1.288  12.711 -0.2211  0.2628  0.0057
23426W        W42960   1.117  17.328  14.212  0.1120 -0.0726 -0.1664
23427W        W42961   3.502   3.120  14.591 -0.0389 -0.0547  0.4762
23428W        W42962  14.305   9.452  13.640  0.3094  0.2056  0.1941
23429W        W42963  11.222  14.257  13.318  0.1523  0.0876 -0.2334
23430W        W42964  10.721   0.807  14.519  0.0255 -0.0163 -0.1907
23431W        W42965  14.003   0.086  14.211  0.1645 -0.1672  0.1749
23432W        W42966   3.167   6.390  11.322 -0.3452 -0.0363  0.0972
23433W        W42967  16.947   3.308  16.692 -0.0004  0.1981 -0.0117
23434W        W42968  13.520   1.927   1.302  0.1917  0.1018  0.1871
23435W        W42969   8.120  11.505  14.771  0.3518 -0.1294  0.2792
23436W        W42970  12.416   6.043   4.839 -0.0437 -0.3821 -0.3206
23437W        W42971   4.746  12.714   3.545 -0.0977 -0.1140  0.1687
23438W        W42972  14.973  14.113  17.000 -0.1539  0.1654 -0.1606
23439W        W42973   5.703   4.737   0.236 -0.1649  0.2265 -0.0135
23440W        W42974   5.090   4.770   3.897 -0.0345 -0.0204  0.1917
23441W        W42975  14.796   4.390   3.873 -0.1503 -0.0298 -0.0127
23442W        W42976  12.115   3.175  14.408 -0.0822  0.0832  0.0811
23443W        W42977  10.793   1.041   5.789  0.0344  0.1084 -0.1578
23444W        W42978  11.753  16.263  15.715  0.0598  0.2198 -0.1152
23445W        W42979  16.565   5.064  15.484  0.1040 -0.2863 -0.0234
23446W        W42980  10.255  17.411  13.891  0.0897 -0.1571  0.0298
23447W        W42981   2.728   3.967   1.832 -0.0737  0.2584 -0.2510
23448W        W42982  14.307  11.145  12.225  0.1394  0.0303  0.0128
23449W        W42983  13.922  14.455   3.170  0.0955  0.2847  0.1024
23450W        W42984   8.205   0.960  15.366  0.3346  0.1544 -0.2251
23451W        W42985   4.848  13.446   4.859  0.0452 -0.1778 -0.3528
23452W        W42986   1.553  11.184  12.694  0.0482  0.0430 -0.0805
23453W        W42987   0.932   9.223  15.374  0.1852  0.1258  0.0189
23454W        W42988  15.132   0.535  13.443 -0.0220  0.1852  0.1559
23455W        W42989   0.954  11.025   3.556  0.1540  0.1554 -0.1056
23456W        W42990   3.437   1.002  15.440 -0.1770  0.2950 -0.1427
23457W        W42991   2.969   8.672   3.008 -0.1700 -0.2049 -0.2480
23458W        W42992  13.869  13.402  15.900  0.4405  0.0323  0.1347
23459W        W42993   4.388  14.649  13.112  0.0896 -0.2414  0.4177
23460W        W42994   1.488   3.419   4.093 -0.1799  0.0578 -0.1134
23461W        W42995   2.652   4.706  16.641 -0.2728 -0.1317  0.1775
23462W        W42996   1.888   4.979   1.316 -0.1876  0.1027 -0.0769
23463W        W42997   1.742   7.575  16.437 -0.1317 -0.1108  0.0055
23464W        W42998   2.229  10.772  13.914  0.1263  0.1091 -0.5479
23465W        W42999  12.102  12.401   5.071  0.3860 -0.0440 -0.1176
23466W        W43000   9.417  15.997  12.510  0.4083 -0.0230  0.0272
23467W        W43001   2.039   3.039   3.203  0.1489  0.1938  0.0134
23468W        W43002   5.568  16.632  15.596 -0.1081  0.3502  0.2148
23469W        W43003  11.903   1.404   1.180 -0.1077 -0.0962 -0.0526
23470W        W43004   1.639   1.065  13.206 -0.2033  0.2551 -0.1203
23471W        W43005   2.398   2.756  13.924  0.0457 -0.0004  0.2167
23472W        W43006   9.195  13.123  16.734  0.0078  0.0105  0.0463
23473W        W43007  11.355   5.290  14.748  0.0446  0.0181  0.0039
23474W        W43008  12.055   9.286   2.960 -0.0665 -0.2661 -0.1252
23475W        W43009   0.685   9.333  14.894  0.0192  0.1230 -0.0618
23476W        W43010  12.426   7.174  15.153 -0.0993 -0.1193 -0.3715
23477W        W43011  11.886  12.979   4.344 -0.1310  0.1459 -0.0909
23478W        W43012   5.666   4.009  16.745 -0.0338 -0.1510  0.0663
23479W        W43013  11.867   1.988  13.489  0.0248  0.0132  0.2265
23480W        W43014   2.759  15.090  13.243 -0.0246 -0.0511  0.1109
23481W        W43015  16.640  11.973   4.252 -0.1395 -0.1753 -0.3798
23482W        W43016  10.933   9.757   0.367  0.2440  0.2112  0.1887
23483W        W43017   5.167   5.085   2.546  0.1206 -0.0848  0.0457
23484W        W43018  14.366  13.855   0.993  0.1900  0.0317 -0.0721
23485W        W43019   0.252   9.124  14.474  0.1097 -0.4129  0.0332
23486W        W43020  12.225  16.448  15.579 -0.0553  0.1487  0.1008
23487W        W43021  16.449   3.757   4.352 -0.1315  0.1990 -0.1358
23488W        W43022  16.296   2.679   2.161 -0.0784 -0.2358 -0.2137
23489W        W43023   8.975   4.249  12.295  0.0429  0.0253 -0.2827
23490W        W43024   8.396  11.388  13.206 -0.2197 -0.4012 -0.0847
23491W        W43025   5.844   4.890   1.645  0.0652  0.1559  0.0831
23492W        W43026   2.881   9.862  16.480 -0.1184  0.3288 -0.0204
23493W        W43027   1.164   6.052   4.614 -0.2727  0.0511 -0.0723
23494W        W43028   2.428   4.481  13.509 -0.0192 -0.1079 -0.3674
23495W        W43029  13.096   9.402   3.257 -0.1923 -0.4064 -0.4646
23496W        W43030  15.447  17.021  15.184  0.1727 -0.1305 -0.1110
23497W        W43031  14.918  13.789   2.793  0.1888  0.2550  0.1265
23498W        W43032  13.384  10.894   0.213  0.0158 -0.0227 -0.1798
23499W        W43033  11.606  15.898   1.110  0.1704  0.1670 -0.0593
23500W        W43034   0.084   1.863   4.621 -0.0532 -0.1801 -0.2380
23501W        W43035   5.401  11.780  13.920  0.3496  0.0009  0.0065
23502W        W43036   8.420   9.682   0.564  0.2615 -0.0691 -0.0114
23503W        W43037  11.769   4.789  12.133  0.0990  0.1509 -0.0254
23504W        W43038  13.330  17.019   4.531 -0.0294 -0.0085  0.0169
23505W        W43039  13.516  17.297   2.782 -0.1426 -0.1079  0.0634
23506W        W43040   4.940   9.372   1.128  0.0724 -0.1340 -0.1352
23507W        W43041  10.016   6.743  11.922 -0.0520  0.1157 -0.4023
23508W        W43042   2.575  16.054  12.486 -0.0799 -0.3523  0.1661
23509W        W43043   1.185   7.932   3.030 -0.1439  0.3529  0.0737
23510W        W43044   6.602  12.859   2.890  0.2355  0.1383  0.0495
23511W        W43045   1.225  16.732  16.688  0.1399 -0.1385  0.0771
23512W        W43046   5.776   1.606  12.228 -0.2481 -0.2049  0.1882
23513W        W43047   8.982   7.800  15.235  0.1455  0.2770 -0.1912
23514W        W43048   5.740   1.548   2.939  0.1280 -0.2180  0.4457
23515W        W43049   0.408  14.025  15.557  0.2139 -0.1306  0.0920
23516W        W43050  12.957   3.075  15.691  0.2489  0.1184 -0.1815
23517W        W43051   6.472  10.697  14.270  0.1224 -0.3211 -0.0989
23518W        W43052   7.131   5.094   0.205 -0.2037  0.1352  0.1403
23519W        W43053   3.311   0.056  15.666 -0.0688 -0.0564 -0.0240
23520W        W43054   0.993  17.662   3.899 -0.1846 -0.0098 -0.1561
23521W        W43055   8.515   5.634  16.791  0.0386 -0.2385 -0.1159
23522W        W43056   1.893   5.452   5.102 -0.1633  0.2794 -0.2355
23523W        W43057  13.356   9.059   4.160  0.0858 -0.0396  0.1383
23524W        W43058   7.250  16.706   3.035  0.0810  0.1002 -0.1581
23525W        W43059  16.467   9.442  16.561 -0.1996 -0.6130 -0.2206
23526W        W43060   2.991  16.744  15.707  0.0304  0.2000 -0.2004
23527W        W43061  12.692   6.533   2.254  0.0900  0.0642  0.0255
23528W        W43062  13.615   2.877   4.209 -0.2028  0.2935 -0.2130
23529W        W43063   2.905   3.532  12.143  0.0496  0.3350  0.1192
23530W        W43064  15.960  12.239  15.899 -0.0469 -0.2950 -0.0362
23531W        W43065  12.358   7.079   3.241  0.1047 -0.0105  0.0093
23532W        W43066  16.208   3.056  16.594  0.4298 -0.1594 -0.0548
23533W        W43067   0.685  13.918  16.257 -0.1069 -0.4265  0.1686
23534W        W43068   2.123  13.756  16.171  0.1560  0.2059  0.1794
23535W        W43069  15.106   7.001   4.363 -0.0362 -0.2057 -0.1917
23536W        W43070  14.744   7.734  15.014 -0.0096  0.1478 -0.1285
23537W        W43071  15.397  11.545   3.099  0.2531  0.0802  0.0420
23538W        W43072  11.535  17.269   2.874  0.0367 -0.1894 -0.1044
23539W        W43073  16.345   6.929   4.271 -0.1185 -0.1699  0.0990
23540W        W43074   8.423  14.793  16.915  0.2283 -0.0048  0.1561
23541W        W43075   5.324  12.348   5.195  0.0034  0.1975 -0.1810
23542W        W43076  12.619   2.000   2.675 -0.0035  0.3716  0.1921
23543W        W43077   4.638  15.271   0.233  0.0053  0.2641 -0.0157
23544W        W43078   9.553   3.696   4.756  0.0867  0.3735  0.1283
23545W        W43079   9.688   4.843  13.551  0.0721  0.1586 -0.0970
23546W        W43080   5.108  15.681  12.768 -0.0761  0.0216  0.3175
23547W        W43081   7.826   3.894  16.064 -0.1819  0.0034  0.3301
23548W        W43082   1.763   4.971   3.451 -0.2800  0.1760 -0.2012
23549W        W43083  11.325  17.314   2.367  0.0858  0.0338 -0.0097
23550W        W43084  12.017  10.891   2.107  0.0741  0.1792 -0.0322
23551W        W43085   6.990  10.825   3.693 -0.1398 -0.1190 -0.1664
23552W        W43086  16.517  14.822   0.732  0.1976 -0.0214  0.0177
23553W        W43087  10.719   1.267  13.263  0.1218  0.0406 -0.1539
23554W        W43088   2.635  12.883  16.556 -0.0201  0.1383 -0.0697
23555W        W43089   8.131   7.886  14.929  0.2266 -0.2064 -0.0004
23556W        W43090   8.842   3.217   3.447  0.2743 -0.0031 -0.1028
23557W        W43091  15.124   9.768   3.416  0.0409 -0.0077  0.1511
23558W        W43092   0.896  14.193   4.743 -0.2001  0.1816  0.0008
23559W        W43093  17.306   5.590  13.077  0.1831  0.2188 -0.3658
23560W        W43094   1.603  16.842   5.167 -0.4680  0.1547  0.0827
23561W        W43095  11.660  17.271   4.450 -0.0107 -0.3440  0.2501
23562W        W43096   8.435   6.351  11.037 -0.0443  0.1474 -0.0126
23563W        W43097   5.885  16.123   1.521  0.0452 -0.0147  0.0884
23564W        W43098  16.033  13.320   3.722 -0.1641 -0.0243  0.2692
23565W        W43099  15.449  16.663  12.955 -0.1685  0.1070  0.0512
23566W        W43100  11.086  13.972   4.051 -0.0550 -0.0495 -0.0222
23567W        W43101  11.490   8.097   0.685  0.1322 -0.3747 -0.1231
23568W        W43102   2.323   3.389  12.620 -0.1153 -0.0681 -0.4870
23569W        W43103   1.527   1.711  13.078 -0.1906 -0.2406  0.4110
23570W        W43104   9.691   0.653   1.264  0.0181 -0.2313  0.0173
23571W        W43105   2.485  12.636  12.976 -0.1544  0.2798 -0.1263
23572W        W43106  16.658  14.836   1.530  0.1147  0.0844  0.1013
23573W        W43107   7.768  11.950  13.477  0.0150 -0.0002 -0.5160
23574W        W43108   0.745  12.388  12.635  0.2596  0.1519  0.0271
23575W        W43109  13.709   4.995  16.865  0.0914 -0.0300  0.0675
23576W        W43110   3.376   4.526  14.047 -0.0977 -0.0843 -0.1912
23577W        W43111   5.222   3.963  12.437 -0.0646  0.0165  0.2984
23578W        W43112   5.228   7.772  16.261 -0.2175  0.1375  0.1213
23579W        W43113   3.298  10.030   1.105 -0.0454  0.1878  0.0142
23580W        W43114   2.115  11.994   2.575  0.3251  0.0202  0.0790
23581W        W43115  13.145  12.615   2.863  0.1389 -0.1707 -0.0527
23582W        W43116   1.377  15.587  12.220 -0.0278  0.0112 -0.0559
23583W        W43117  14.339  16.687   0.329 -0.1461 -0.0815 -0.0465
23584W        W43118  12.119  12.109   0.215 -0.1758  0.0775  0.1356
23585W        W43119   9.622   4.624  14.890 -0.3331 -0.0808  0.0136
23586W        W43120   5.580   0.744   0.836  0.0290 -0.2709 -0.1474
23587W        W43121   2.115   3.764   3.659  0.1293 -0.3128  0.0064
23588W        W43122  15.391  14.908   0.120  0.0841 -0.1362 -0.0149
23589W        W43123  12.651  11.317   0.394 -0.2227 -0.3124  0.2693
23590W        W43124   5.405   7.063   3.479 -0.1251  0.0108 -0.0330
23591W        W43125  13.116   1.274  15.337 -0.1633 -0.4491  0.1929
23592W        W43126   2.621   6.534   2.158  0.0402  0.0217 -0.0158
23593W        W43127   5.224   6.069  15.122 -0.1360 -0.0127  0.0485
23594W        W43128  11.591  10.319  16.706  0.1620  0.0349  0.0700
23595W        W43129   7.830  14.772  16.307  0.2865 -0.0615 -0.1302
23596W        W43130   5.347   8.390  13.264 -0.4539  0.0829  0.0733
23597W        W43131   4.585  12.926   3.035 -0.0133  0.0586 -0.1314
23598W        W43132   5.681  14.922  12.001 -0.0659  0.0224 -0.2535
23599W        W43133  12.455  14.015  14.267  0.0587  0.3113  0.0275
23600W        W43134  11.643   5.724  16.490  0.1979  0.0522  0.3014
23601W        W43135   9.030   3.246  15.147  0.0621 -0.1892 -0.0009
23602W        W43136   2.009  12.334   3.485 -0.0414  0.0339  0.1338
23603W        W43137  12.259   4.302  16.806 -0.2872 -0.1408 -0.1719
23604W        W43138  13.581   0.812   4.332  0.0743  0.1836 -0.1291
23605W        W43139  12.252  12.422   4.398 -0.2783 -0.4261 -0.0902
23606W        W43140  15.710   1.099   2.269 -0.0527 -0.2754  0.0350
23607W        W43141   6.762   0.798   0.595  0.1728 -0.0970 -0.0957
23608W        W43142   3.471   2.958  16.050 -0.1542 -0.0343  0.0035
23609W        W43143  14.318  10.248   3.677  0.0413 -0.0613  0.0900
23610W        W43144  11.638  14.222   4.056 -0.1966 -0.1500 -0.1212
23611W        W43145   2.887  10.455  16.715 -0.2214 -0.0427 -0.0793
23612W        W43146  12.931   7.673  12.242 -0.1238 -0.1109  0.0198
23613W        W43147  17.388   9.293  14.454 -0.0050  0.0077  0.1399
23614W        W43148  15.767  13.829   4.392  0.1583  0.0742 -0.0615
23615W        W43149   8.526   6.807   4.543  0.1800  0.0376  0.1285
23616W        W43150  16.198   4.602   0.721  0.1374 -0.2587  0.0676
23617W        W43151   7.980   6.568  14.687  0.1895  0.0329 -0.0494
23618W        W43152   8.131   2.530   4.743  0.0573  0.1379 -0.2654
23619W        W43153  14.570  12.717   1.974  0.0703 -0.3353 -0.0802
23620W        W43154   8.853  11.414  11.694  0.3484 -0.0953 -0.0532
23621W        W43155  10.380   6.320   4.619 -0.0128  0.0762 -0.0706
23622W        W43156  13.487  12.152  13.174 -0.1909  0.0176 -0.2034
23623W        W43157   4.631   4.369  12.160 -0.2469 -0.2402  0.2998
23624W        W43158  11.285  11.420   3.461 -0.3534 -0.0481  0.1466
23625W        W43159   3.012   1.424   4.976  0.2192 -0.0817  0.2450
23626W        W43160   9.055   2.367  15.206 -0.3577  0.1781 -0.1661
23627W        W43161   0.666   5.381  12.196 -0.2172 -0.1288  0.1968
23628W        W43162   4.812   5.468  16.668  0.0573 -0.0644  0.3218
23629W        W43163   0.645  17.525  16.746  0.1199 -0.0437 -0.0081
23630W        W43164  13.036  17.048   3.658 -0.3037 -0.2592 -0.0583
23631W        W43165  11.392   6.544  11.947  0.4382  0.1687  0.0800
23632W        W43166  13.047  12.159  13.931  0.0074  0.2848 -0.1026
23633W        W43167   7.620   7.769   4.151  0.3191  0.0413  0.1066
23634W        W43168  13.608   1.500   4.534 -0.1819  0.1277 -0.2618
23635W        W43169  16.463  15.865  12.501 -0.1954  0.0180  0.2009
23636W        W43170  12.092   4.716   1.226 -0.1483 -0.0284  0.1073
23637W        W43171  16.118  15.139  15.095  0.3169 -0.3157  0.0279
23638W        W43172   3.068   8.294  13.011 -0.0687 -0.1625  0.3840
23639W        W43173  12.273  10.659   3.364 -0.0379 -0.0748  0.1794
23640W        W43174   8.443  14.495   4.323  0.0437  0.1229  0.1427
23641W        W43175   1.350   6.069  13.950 -0.1001 -0.2065  0.1652
23642W        W43176  10.779  11.482   2.524  0.0606  0.0556  0.4245
23643W        W43177  11.142  13.960   1.221  0.2113  0.1855  0.2309
23644W        W43178  11.533   1.729   1.361  0.0528  0.0991 -0.0444
23645W        W43179   9.510   3.620   0.934  0.0309  0.0446 -0.1777
23646W        W43180  13.441   5.986   3.915 -0.4309  0.0471 -0.0014
23647W        W43181  17.506  14.443  13.529  0.1485  0.1647 -0.2248
23648W        W43182   5.409   4.567  16.811  0.1486  0.2733 -0.0243
23649W        W43183  16.890  15.082  12.821 -0.1592 -0.0951 -0.1799
23650W        W43184   0.014   8.524   3.049  0.1348 -0.0406 -0.1426
23651W        W43185  15.679   3.486   1.206 -0.2084  0.0437 -0.2650
23652W        W43186   1.840   4.972   2.977  0.0891 -0.1457  0.0882
23653W        W43187   4.625   0.346   1.469  0.0443 -0.1631  0.3875
23654W        W43188  11.360   5.194   0.648 -0.0493  0.0503  0.0869
23655W        W43189   8.258  11.182   2.670  0.1223 -0.1558 -0.2416
23656W        W43190   3.379   7.675   4.713 -0.3198  0.1348  0.0507
23657W        W43191  10.173   8.877  16.618  0.2101 -0.1189 -0.2134
23658W        W43192  15.172  16.299  16.994 -0.1514  0.3009 -0.0171
23659W        W43193   7.069   0.544   5.446  0.1244 -0.0161 -0.0537
23660W        W43194  11.045   7.584  13.295  0.1561  0.0001 -0.1162
23661W        W43195   1.761   9.580   0.304  0.0683 -0.0599  0.0659
23662W        W43196  17.234   3.625  15.989 -0.0312 -0.0726 -0.0711
23663W        W43197  14.950   2.853  14.447 -0.1881  0.3848  0.0918
23664W        W43198   5.746  17.502  16.294  0.0322 -0.1362 -0.0084
23665W        W43199  14.288   7.365  12.592  0.3143  0.1647 -0.0271
23666W        W43200  14.330   5.090   2.422  0.0621  0.2860 -0.2067
23667W        W43201   9.236   0.687  16.260  0.1057  0.0133  0.0227
23668W        W43202   6.029  13.855  14.044 -0.1684  0.0587 -0.1056
23669W        W43203   7.377   6.128   1.753  0.0502 -0.0579 -0.0443
23670W        W43204   9.172  10.720  14.797  0.2630 -0.0225  0.1857
23671W        W43205  10.617   8.923  13.764  0.0973  0.1262 -0.2376
23672W        W43206  10.454   4.622  15.347  0.2119 -0.1574 -0.0423
23673W        W43207   2.505   0.098   1.434  0.2535 -0.0499 -0.1325
23674W        W43208  10.129  15.445  15.216  0.1489 -0.0619 -0.2668
23675W        W43209   0.662  12.383  10.857  0.1090  0.0435  0.1601
23676W        W43210   5.779  16.738   2.070 -0.1804 -0.1077 -0.0584
23677W        W43211   7.972   1.032   0.508 -0.0897  0.1094  0.1301
23678W        W43212   4.970   6.725   1.262 -0.0479 -0.0889  0.3297
23679W        W43213  14.834   7.016   2.872 -0.5997  0.2269 -0.1633
23680W        W43214   1.446   9.557   1.151 -0.1408  0.0942  0.0959
23681W        W43215  15.206  15.942  15.934  0.1173 -0.1112 -0.0116
23682W        W43216   1.936  14.202  15.915  0.1587 -0.0497 -0.0033
23683W        W43217   3.881  15.251   0.437  0.0456 -0.0522 -0.0227
23684W        W43218   5.146   1.284   1.877  0.1482  0.1622 -0.0838
23685W        W43219   5.425   9.635  13.976 -0.1584 -0.0468 -0.2452
23686W        W43220   1.430   4.722  15.374 -0.1820 -0.1311 -0.1341
23687W        W43221  16.196   3.617  13.018  0.1767  0.1140  0.2389
23688W        W43222   8.621   3.929   0.071 -0.3333  0.1792  0.0889
23689W        W43223  16.605   9.462   4.209  0.2372 -0.0688 -0.3337
23690W        W43224  13.485  12.385   3.544  0.1213  0.0682  0.2238
23691W        W43225   7.187   6.494   3.405 -0.0635  0.1308  0.1991
23692W        W43226   0.069   0.111  15.216  0.2211  0.1617  0.1158
23693W        W43227   2.865  12.416   3.705  0.2046 -0.1095 -0.0310
23694W        W43228  13.875  15.458  16.538  0.1973 -0.1716  0.0126
23695W        W43229  17.361  10.181  12.133 -0.0571 -0.0865 -0.3178
23696W        W43230  13.636   9.638   4.780  0.1532 -0.2328 -0.3702
23697W        W43231   6.504   3.555  13.522 -0.2537  0.1302 -0.2632
23698W        W43232   5.521   5.168   5.047 -0.0571 -0.3916 -0.0381
23699W        W43233  12.953   7.661   1.163 -0.0327 -0.1079  0.0435
23700W        W43234  11.950   3.722  12.965  0.2642 -0.2053 -0.2437
23701W        W43235  10.738   5.353   0.270 -0.2778 -0.2061  0.0401
23702W        W43236   1.959   1.349  17.072 -0.1673 -0.1378 -0.2577
23703W        W43237   9.715  13.667  13.780  0.2246 -0.0116  0.1867
23704W        W43238  12.218   6.874  13.420  0.0260  0.0999 -0.2408
23705W        W43239  16.934  11.880  16.303 -0.0288 -0.1664 -0.3256
23706W        W43240   8.928   1.732  14.190 -0.3305 -0.1146 -0.2887
23707W        W43241   7.545   9.778  12.176  0.2025 -0.3010 -0.0126
23708W        W43242  10.783   0.803  15.635 -0.3249  0.3132 -0.2236
23709W        W43243  11.180   5.050   0.252 -0.0262  0.2114  0.0834
23710W        W43244   1.583  16.466   3.998 -0.0013 -0.0647 -0.2907
23711W        W43245  10.320   0.909  15.464 -0.0050 -0.0026 -0.3010
23712W        W43246  12.847  11.693   2.742  0.0296  0.3609 -0.2450
23713W        W43247  11.347  14.835  15.300 -0.1952 -0.3789  0.1735
23714W        W43248   8.724  15.966   1.519 -0.0135 -0.1663 -0.2312
23715W        W43249   1.351   9.492  12.585  0.0134 -0.0905 -0.3863
23716W        W43250   1.241  12.577   1.149 -0.0601 -0.0216  0.3097
23717W        W43251  15.112   1.353  13.048  0.1239 -0.0662 -0.1343
23718W        W43252   3.869  17.603   1.349 -0.0797  0.2045 -0.3328
23719W        W43253  13.432  16.955   3.949 -0.0014  0.1021 -0.3631
23720W        W43254  16.679   2.969  12.966  0.2009 -0.1145 -0.0189
23721W        W43255   0.512   5.773  16.563 -0.0642 -0.0826  0.0066
23722W        W43256  14.548  15.087  13.715 -0.2075 -0.0207  0.5940
23723W        W43257   8.814  13.118  12.967  0.0463  0.1383 -0.2673
23724W        W43258  15.538   4.760  13.449 -0.0356  0.0519 -0.0388
23725W        W43259   9.771   5.671   4.406 -0.1409 -0.1737  0.3450
23726W        W43260   8.591   1.412   3.273  0.3295 -0.1101  0.0858
23727W        W43261   4.616   2.751   1.640 -0.0337 -0.2390 -0.0583
23728W        W43262   6.125   6.588   0.085 -0.2232 -0.1372 -0.0745
23729W        W43263   6.735  12.338   4.460 -0.2266  0.0651 -0.0471
23730W        W43264   2.363   3.591   3.292  0.2762  0.3404  0.1570
23731W        W43265   2.653   8.258   1.514  0.0714 -0.0542  0.0782
23732W        W43266   4.536   5.791  15.435  0.1937 -0.0160 -0.0940
23733W        W43267   4.821   5.421   0.696 -0.2674  0.1913 -0.0197
23734W        W43268   5.230   1.980  14.656  0.1359  0.1340  0.2102
23735W        W43269  14.592  14.033  12.654  0.0212 -0.1252  0.0529
23736W        W43270   8.622  14.982   1.998 -0.0268 -0.0979 -0.1448
23737W        W43271   9.533   7.248   4.144  0.3167  0.0712  0.3199
23738W        W43272   1.083  17.026   5.049  0.0464  0.4132 -0.0942
23739W        W43273   9.052   7.239   1.381 -0.1045  0.2169 -0.0803
23740W        W43274   7.871   2.773  12.063  0.0403 -0.0259 -0.4813
23741W        W43275  14.979   0.469   0.651  0.2224 -0.0319 -0.0451
23742W        W43276   6.982  14.792  13.943 -0.2400 -0.0862  0.0788
23743W        W43277   1.623   8.757  15.723  0.2930  0.3013 -0.1806
23744W        W43278   6.858  17.140   1.313  0.1041  0.1137  0.1960
23745W        W43279   1.441  16.877  13.469 -0.0159  0.1757 -0.0864
23746W        W43280  14.068   4.304  12.558  0.1601 -0.1764 -0.1602
23747W        W43281  15.583  10.728  16.295 -0.2792 -0.1367  0.2968
23748W        W43282   6.091   3.004   5.013 -0.0860 -0.1839  0.3343
23749W        W43283   6.864   1.402  15.445 -0.1225 -0.2522 -0.0064
23750W        W43284   1.364   6.741  15.178 -0.0932  0.1876  0.4985
23751W        W43285   1.871  13.098   4.769 -0.1127  0.2166  0.0006
23752W        W43286  10.717   7.694   1.151 -0.3811 -0.1331 -0.3536
23753W        W43287   4.553  10.636   1.801 -0.1691  0.1592 -0.1897
23754W        W43288   6.317  14.470  14.755 -0.2513 -0.1124  0.3490
23755W        W43289  17.007   0.537   2.609 -0.1132 -0.2708 -0.1815
23756W        W43290   1.676  12.228  16.502  0.3043  0.0458 -0.2022
23757W        W43291   8.896   8.750   1.240 -0.2383 -0.3291  0.1021
23758W        W43292   2.756   8.310   4.164  0.1042 -0.1652  0.1549
23759W        W43293   6.360  13.357  16.092  0.0565 -0.0771  0.0273
23760W        W43294   2.662   4.586  14.045 -0.1259  0.1797 -0.0830
23761W        W43295  13.214  14.841   4.068  0.0605 -0.0737 -0.0920
23762W        W43296   5.121  11.652  15.268  0.2478  0.0164 -0.1157
23763W        W43297  11.547   4.051  13.314  0.1674 -0.2234 -0.1112
23764W        W43298  16.254   4.315  12.405  0.1538  0.1380  0.1103
23765W        W43299   1.550  11.398   1.538 -0.2940  0.1704 -0.2358
23766W        W43300   5.098  17.079   3.468 -0.0621  0.2607  0.4374
23767W        W43301   5.676   3.420  13.244 -0.0658  0.1505  0.1994
23768W        W43302   9.162   8.700   5.373 -0.1189 -0.0640 -0.0998
23769W        W43303   9.823  10.760  12.509  0.0377  0.0822  0.0780
23770W        W43304  11.423  12.259  13.152 -0.0320 -0.0959 -0.0442
23771W        W43305   2.977   8.679   1.229  0.0845 -0.0333 -0.0925
23772W        W43306   1.516   9.690   4.506 -0.0989  0.0377 -0.2445
23773W        W43307   9.738  16.139   3.554  0.0266  0.2355  0.3212
23774W        W43308   5.044   9.057   3.032  0.0976 -0.0542  0.0449
23775W        W43309  17.150   7.712  14.352 -0.0555 -0.1259 -0.2518
23776W        W43310  10.562   9.405  14.827 -0.1574  0.0550 -0.2341
23777W        W43311   0.625  11.814   2.460 -0.2200  0.2176  0.0641
23778W        W43312  10.094  15.853  14.907 -0.0445 -0.1875 -0.2472
23779W        W43313   9.762  11.898   2.371  0.1053  0.1270 -0.0279
23780W        W43314   7.742  15.231  16.715 -0.2928 -0.1971  0.0121
23781W        W43315   5.483   2.641   3.532  0.1092 -0.2806  0.1651
23782W        W43316  11.420   1.650   4.918  0.0486 -0.2682  0.1903
23783W        W43317  13.459   3.332   1.043 -0.0144 -0.1628 -0.2332
23784W        W43318   5.070   7.026  15.153  0.1796  0.3428  0.0615
23785W        W43319  14.530  11.584   2.748  0.0548 -0.2108 -0.1085
23786W        W43320  15.403  12.446   3.402  0.0222  0.2032 -0.1534
23787W        W43321  13.449  14.606   6.517 -0.0013 -0.2136 -0.0268
23788W        W43322   8.077   3.944  16.539 -0.0721 -0.2048  0.0926
23789W        W43323   2.407   8.739   3.363 -0.2778  0.3135 -0.2970
23790W        W43324   2.053   0.403  12.485 -0.1132 -0.1422  0.2140
23791W        W43325   3.158   1.378  15.626 -0.1906  0.1261 -0.0834
23792W        W43326  16.354  14.622  15.833  0.2031 -0.0172 -0.0851
23793W        W43327  16.593   9.514   4.834  0.0132 -0.4490 -0.1167
23794W        W43328   4.000  10.263  16.527 -0.0604 -0.0800  0.2150
23795W        W43329  14.296   5.770  16.878  0.2073 -0.1096 -0.0900
23796W        W43330  17.232   5.913   4.918  0.1052 -0.1090  0.0099
23797W        W43331   4.966   4.292  17.063 -0.0815 -0.1334  0.1238
23798W        W43332   4.852  15.914  14.897 -0.0553 -0.0064  0.1277
23799W        W43333   5.194  15.570   1.366  0.1098 -0.2816  0.0741
23800W        W43334   4.350   5.084  12.680 -0.2058 -0.2314 -0.0571
23801W        W43335   6.945  15.914  11.684  0.1283  0.0402 -0.2966
23802W        W43336  11.154  11.406  16.397 -0.0015  0.0436  0.2119
23803W        W43337   5.927  15.795  11.174 -0.3296 -0.1896 -0.1890
23804W        W43338   6.844   0.986  15.767 -0.3366 -0.0378 -0.2688
23805W        W43339   7.769   2.758  14.005 -0.0569  0.1280 -0.1373
23806W        W43340   9.351  13.169   4.566  0.0187  0.0624 -0.1886
23807W        W43341  10.532   7.569  12.905  0.1092 -0.1261 -0.1380
23808W        W43342   1.907   9.194  16.972  0.0302 -0.1074  0.0676
23809W        W43343  16.070   9.899   4.872 -0.2366  0.0048 -0.0074
23810W        W43344   2.068   7.955  14.150 -0.1542  0.0390  0.0592
23811W        W43345  13.973   6.300   2.403  0.0403  0.2198  0.4344
23812W        W43346   2.774   2.269   1.587 -0.0934 -0.2581 -0.0124
23813W        W43347  10.613   3.791   3.278  0.1047  0.0544 -0.0480
23814W        W43348   7.354   1.495   4.585 -0.2183  0.0110 -0.2596
23815W        W43349   1.439  12.903   0.708 -0.3033  0.0022 -0.0375
23816W        W43350  12.218   4.662   3.334 -0.4071  0.4094 -0.2031
23817W        W43351  12.132  16.803  13.008  0.0947 -0.2711 -0.1610
23818W        W43352   6.355   8.495  13.608  0.2860  0.0696 -0.0867
23819W        W43353  16.034   3.552   0.241  0.0310  0.0558  0.1406
23820W        W43354  15.409   4.078  16.545 -0.3696  0.3959 -0.2084
23821W        W43355   7.078   7.073   4.580  0.0588 -0.3827 -0.0242
23822W        W43356  11.333  11.106  12.996  0.2682 -0.0312 -0.1289
23823W        W43357  10.005   8.416  15.697  0.0431 -0.3171  0.2840
23824W        W43358   4.947   3.845   3.945  0.0285 -0.0010  0.0753
23825W        W43359   5.242   5.163   1.090  0.2776  0.4054  0.1885
23826W        W43360   4.101   3.724   1.482  0.2638  0.2397 -0.2580
23827W        W43361   0.505  16.236  12.085 -0.0023 -0.0920  0.1310
23828W        W43362   5.221   1.731  17.064  0.1340 -0.4213  0.1150
23829W        W43363   2.015   3.728  13.793  0.0613  0.0461 -0.1684
23830W        W43364   2.302   3.751   2.831  0.1078  0.0514  0.1188
23831W        W43365  16.073  14.262  11.947  0.2440 -0.1824  0.0083
23832W        W43366  10.193  10.353  11.855  0.1582  0.2628 -0.0134
23833W        W43367   3.126   4.853  15.949  0.1381  0.1411 -0.2185
23834W        W43368   8.143   0.882   1.866  0.1253  0.0681 -0.1415
23835W        W43369  13.220  14.056   4.688  0.2367 -0.0143 -0.1757
23836W        W43370   7.896  10.689   0.962 -0.0688 -0.0072  0.3998
23837W        W43371   3.352   6.625   1.479  0.0094  0.1674 -0.0438
23838W        W43372  13.464   4.698   4.875 -0.1741  0.0824  0.2916
23839W        W43373   5.047  10.100   1.550 -0.2968 -0.1849 -0.0314
23840W        W43374   9.571   6.990  14.289  0.1054 -0.0949  0.3360
23841W        W43375   6.137   6.919   0.495 -0.0113  0.1401  0.1975
23842W        W43376   2.322  13.416  15.867  0.0784 -0.0707  0.0487
23843W        W43377  12.656   9.349   2.061  0.3573  0.3152 -0.3953
23844W        W43378  17.603  14.290   3.734  0.0324 -0.0033  0.0796
23845W        W43379   2.672   1.820   5.094 -0.2166  0.2123 -0.2784
23846W        W43380   1.882   1.086   3.792 -0.2623  0.0125 -0.0140
23847W        W43381   7.001  13.210   2.916  0.1731  0.2349  0.0494
23848W        W43382   2.314  14.874   3.560 -0.2950 -0.0512  0.0253
23849W        W43383   3.065   0.049  13.065 -0.0387  0.0061 -0.1213
23850W        W43384  11.528   7.542  15.887 -0.1868 -0.1608 -0.3078
23851W        W43385   4.582   7.776   0.722 -0.1351 -0.1226  0.0690
23852W        W43386  12.789   1.446   5.326 -0.2380 -0.1606  0.0695
23853W        W43387   1.519   5.341   3.697 -0.0655  0.0899  0.0219
23854W        W43388   5.000   6.316  12.669 -0.2057  0.0424  0.2435
23855W        W43389  14.510   1.399   4.198 -0.0224 -0.1574 -0.3236
23856W        W43390  15.924  15.687   0.141 -0.1675 -0.2300 -0.2927
23857W        W43391  11.969   3.901   3.395 -0.1513 -0.1889  0.0781
23858W        W43392   4.025  10.398  14.710 -0.0924  0.1624 -0.0217
23859W        W43393  17.608   6.198  11.276  0.1312 -0.2169  0.0504
23860W        W43394  14.966   6.324   4.997 -0.2484  0.1325 -0.0883
23861W        W43395  11.834   6.222  14.616  0.3626  0.3957 -0.1109
23862W        W43396   7.473  12.175   2.325  0.2299 -0.2448 -0.1652
23863W        W43397  11.266  15.343  13.121  0.0485 -0.0997  0.1514
23864W        W43398   4.670  11.839  15.179 -0.3674 -0.1085  0.0465
23865W        W43399  13.789   0.918   1.422  0.1565  0.1589  0.0966
23866W        W43400   1.137  17.044   0.315 -0.0886 -0.0809 -0.1857
23867W        W43401  10.531   5.615   0.735  0.1162 -0.2104  0.1754
23868W        W43402   5.488  13.448  12.804 -0.0985  0.1203  0.2114
23869W        W43403   8.420   4.712   4.316 -0.0341 -0.1012  0.0679
23870W        W43404   6.298   5.799   4.190  0.2282  0.0745  0.1708
23871W        W43405  15.630  11.232  13.079  0.0756 -0.0078  0.1925
23872W        W43406   2.439   4.090  16.751 -0.2131  0.1146 -0.1002
23873W        W43407   0.899   3.501  13.233  0.0479 -0.1210 -0.1258
23874W        W43408   5.100   3.356   3.183 -0.4031 -0.1204  0.2101
23875W        W43409   2.786   1.157  12.957  0.1436 -0.0438 -0.1869
23876W        W43410  17.133   3.675  13.035  0.2382  0.3576 -0.1097
23877W        W43411  10.049   2.484   0.971 -0.3223 -0.1151 -0.1411
23878W        W43412   8.151  13.620  14.941  0.3204  0.0719 -0.1118
23879W        W43413   9.729   0.578  16.066 -0.0580  0.2358 -0.0126
23880W        W43414  16.409  10.389  13.395  0.0847 -0.0210 -0.0386
23881W        W43415   2.399   7.569   1.105  0.0292 -0.2335  0.2687
23882W        W43416   8.016  10.322  12.564 -0.3470 -0.0039  0.2394
23883W        W43417   2.985   2.531   3.238  0.1426 -0.2884 -0.0646
23884W        W43418  15.621  10.285  14.927 -0.1185 -0.1733 -0.1642
23885W        W43419   2.657   3.944  15.022  0.2628 -0.0972 -0.2628
23886W        W43420   6.329   0.715  15.031  0.1161 -0.4163  0.1640
23887W        W43421  11.207   7.765  15.095  0.2271 -0.2270  0.1614
23888W        W43422  12.543   5.067   1.399 -0.0154 -0.0055 -0.3842
23889W        W43423   0.116   0.008   0.277 -0.1368  0.0368 -0.1607
23890W        W43424  14.529  14.518  13.938  0.1123 -0.0011  0.0539
23891W        W43425  13.669   4.731  16.354  0.0635 -0.0397  0.0749
23892W        W43426   5.945   0.354   0.950 -0.0965 -0.1741  0.0824
23893W        W43427  10.974   3.716   1.359 -0.0537  0.0246  0.0856
23894W        W43428   2.494   0.489   3.784 -0.2047 -0.2062 -0.1129
23895W        W43429  11.050  12.220   4.110 -0.0907 -0.1446 -0.2910
23896W        W43430   9.318  17.212   3.374 -0.3445 -0.3281 -0.0383
23897W        W43431   2.253  11.587  16.918 -0.0650 -0.2845 -0.2289
23898W        W43432   9.216  10.005   2.149  0.1158 -0.0528 -0.0271
23899W        W43433  12.218  10.270   1.271 -0.1693 -0.2407 -0.2341
23900W        W43434   2.815   1.545  14.933 -0.0547  0.0438  0.1364
23901W        W43435   0.021  11.703  13.887  0.1880  0.1686 -0.0473
23902W        W43436   5.415   6.170   4.991  0.1029  0.1370  0.2938
23903W        W43437  13.860   0.393   2.364 -0.1006 -0.2172  0.1295
23904W        W43438  16.715   6.219  11.333 -0.3364  0.0684  0.0134
23905W        W43439   8.930   5.351  17.044 -0.1094 -0.1585  0.2404
23906W        W43440   4.757   9.696   1.607  0.2452 -0.0116 -0.2759
23907W        W43441   5.857   5.464   5.216  0.2604 -0.4426  0.0398
23908W        W43442   2.866  12.881  14.594 -0.1366  0.0559  0.1122
23909W        W43443   6.875   1.671   4.927 -0.1672 -0.0297 -0.1674
23910W        W43444  14.913  14.105  13.003 -0.1797  0.4195  0.2852
23911W        W43445   6.358   2.109   0.651  0.1426 -0.2247 -0.0085
23912W        W43446   7.525  11.384  14.771 -0.1465  0.0590  0.0892
23913W        W43447  12.129   3.835   2.026 -0.3366  0.0356  0.0178
23914W        W43448  12.865   0.412   1.387 -0.2230  0.2691 -0.1664
23915W        W43449   2.239  15.903   4.600  0.1852  0.1144  0.0119
23916W        W43450  16.385   7.574  15.489 -0.0576  0.1207 -0.1313
23917W        W43451  12.374  15.223  14.457 -0.3780 -0.0255  0.0243
23918W        W43452  11.065   1.702   4.532 -0.2047 -0.1170  0.0553
23919W        W43453   8.295   7.285   4.755 -0.2056  0.0261  0.1165
23920W        W43454   4.436   9.380  12.491  0.1692 -0.0674 -0.2470
23921W        W43455   7.235  12.704   1.482  0.1472 -0.0573  0.0767
23922W        W43456  12.874  12.907  13.506  0.2531  0.0707  0.2609
23923W        W43457  16.552  17.201  12.948 -0.1030  0.0736  0.0002
23924W        W43458  11.452   5.992  15.457  0.4465 -0.3694  0.0166
23925W        W43459   1.933  13.666  15.662 -0.5023 -0.1370 -0.0509
23926W        W43460  13.606   1.371   0.612  0.1356 -0.2156 -0.0842
23927W        W43461   7.641  13.517  15.350  0.0343  0.2863  0.0372
23928W        W43462   2.801   0.481  16.806  0.2770  0.1229  0.0037
23929W        W43463  15.768   0.081   0.778  0.0262 -0.0159  0.1511
23930W        W43464   4.119  11.516  13.429 -0.0299  0.1695 -0.0898
23931W        W43465   7.413  13.489  12.500  0.0740 -0.1360  0.2717
23932W        W43466   4.332  14.386  12.089 -0.2545  0.0062  0.2545
23933W        W43467   8.386  10.925   0.068  0.1766 -0.0663  0.0658
23934W        W43468  16.927   5.639   4.598 -0.0753 -0.1503  0.1915
23935W        W43469   8.923   5.622  13.515 -0.4111 -0.1040  0.0160
23936W        W43470   6.666  13.889  17.053  0.1576 -0.1488 -0.0867
23937W        W43471   2.551   6.038  17.030 -0.0045  0.1395 -0.0329
23938W        W43472   9.232   5.887  16.323  0.3084 -0.2119  0.1099
23939W        W43473   8.315   0.330   3.496  0.1695 -0.1011  0.0734
23940W        W43474  14.348  12.580   3.753  0.2616 -0.0472 -0.0456
23941W        W43475  16.496   7.473  12.568  0.1399 -0.1478  0.0856
23942W        W43476   6.076  13.754  15.386  0.1277  0.1450  0.2045
23943W        W43477   2.353   4.174   0.226  0.1793 -0.1241 -0.0404
23944W        W43478   1.082   4.089  13.805 -0.0421 -0.0338 -0.2150
23945W        W43479   0.784   5.734   4.423  0.1447  0.0203 -0.1044
23946W        W43480   7.749   6.009  14.383 -0.0351 -0.0974  0.1586
23947W        W43481  11.819  13.033   0.598 -0.2010  0.0049 -0.1431
23948W        W43482  11.135   5.885   4.626 -0.0393  0.0601 -0.1508
23949W        W43483  15.011   4.824  13.579  0.1601  0.1139 -0.3188
23950W        W43484   7.828   9.346   1.176  0.0025 -0.0233 -0.0304
23951W        W43485   1.796   1.983   3.905  0.0920 -0.0898  0.1859
23952W        W43486  11.719   2.806  16.979 -0.0810  0.0932  0.2590
23953W        W43487  11.299  12.972   2.028  0.0432  0.1116 -0.0936
23954W        W43488   1.917   3.292   3.851  0.0526 -0.1879 -0.1857
23955W        W43489  13.425   3.618   3.425  0.0437  0.3265  0.0581
23956W        W43490   3.834   5.124   4.266 -0.0394 -0.2033  0.2160
23957W        W43491  15.583  17.562   2.226 -0.0999 -0.2130  0.0623
23958W        W43492   1.890  16.820   3.905 -0.1841  0.0634 -0.3260
23959W        W43493  13.561   8.278  15.276 -0.0002 -0.4194  0.0464
23960W        W43494   7.335   2.809   4.115  0.0051 -0.0182 -0.0087
23961W        W43495   8.128  12.145  15.748  0.0616 -0.1648  0.2644
23962W        W43496  13.709  16.757   1.474 -0.0593  0.0193 -0.0143
23963W        W43497   7.047  17.003   0.668  0.1280  0.1707 -0.2672
23964W        W43498  10.454   7.451   3.504  0.0628  0.0827  0.2108
23965W        W43499   4.290  11.286   0.414  0.1938 -0.2379  0.0866
23966W        W43500   0.370   0.924  15.186 -0.0442 -0.0953  0.1417
23967W        W43501  13.488   0.422  12.803 -0.0412 -0.3901 -0.2070
23968W        W43502  10.148   1.958   3.202 -0.0148 -0.1230 -0.1974
23969W        W43503   7.501  12.435  15.583  0.0296  0.1022 -0.0767
23970W        W43504   8.812  17.150   3.407  0.1482  0.2178  0.4507
23971W        W43505   9.791  17.634   2.017  0.2326  0.0756 -0.0930
23972W        W43506  11.256   8.771  15.670 -0.0486 -0.2502  0.1018
23973W        W43507  12.475   3.127   6.157 -0.1959  0.3060 -0.1601
23974W        W43508  15.943   3.131   2.772  0.0556  0.1313 -0.0275
23975W        W43509  10.570  15.036   1.669  0.0939  0.1916  0.3451
23976W        W43510  13.459   1.677   0.208  0.0690 -0.1418  0.1202
23977W        W43511  17.104   4.468   1.255  0.1254 -0.0798 -0.2326
23978W        W43512  10.108   6.022  15.187  0.2172  0.1568 -0.2946
23979W        W43513   3.938  15.351  12.117 -0.0838 -0.0431  0.3020
23980W        W43514  15.048  12.772  12.796  0.2302 -0.1190 -0.0712
23981W        W43515  17.304   7.307  16.443 -0.0520  0.1368 -0.2589
23982W        W43516   8.370   3.428  13.508 -0.0603 -0.1821 -0.2747
23983W        W43517   5.624   6.568  12.294  0.0158 -0.0742  0.1619
23984W        W43518  15.092   9.597  12.554 -0.0280 -0.3558  0.1451
23985W        W43519   5.724  11.366  15.232 -0.0878  0.1156 -0.1566
23986W        W43520   6.178   1.757  15.753 -0.0929 -0.2105 -0.0364
23987W        W43521   5.395  11.470   1.666  0.1908  0.0778  0.0302
23988W        W43522   8.554   5.140  16.773 -0.1022 -0.1796  0.0384
23989W        W43523  10.621  12.070   4.355 -0.0753 -0.0528  0.1112
23990W        W43524  15.979   0.223   2.188 -0.0423  0.3428 -0.1036
23991W        W43525   7.909   0.857   4.769 -0.2186  0.0129  0.2715
23992W        W43526  10.459  11.812  14.055  0.0907 -0.0999  0.1333
23993W        W43527   0.235  16.884   4.954 -0.3689 -0.0215 -0.1622
23994W        W43528  13.507   3.068  12.690  0.1378 -0.0657 -0.1007
23995W        W43529   0.952  15.901  14.597  0.2452 -0.0497 -0.0854
23996W        W43530  16.345  10.021   4.447  0.1468  0.1522  0.0354
23997W        W43531   5.823   9.417   4.157 -0.0191 -0.1741 -0.1173
23998W        W43532   3.633  17.253  16.748 -0.0417  0.1786  0.0205
23999W        W43533   6.210   2.691   1.337  0.1668 -0.2158 -0.0077
24000W        W43534   9.675   9.109  14.237  0.1090 -0.0795  0.4135
24001W        W43535  16.178   9.086   4.225 -0.0425  0.1353 -0.0462
24002W        W43536   2.520   7.694   4.661 -0.2324  0.0362 -0.1847
24003W        W43537   2.129   8.754  16.897 -0.0894  0.2343  0.2392
24004W        W43538  15.053  11.128   4.166 -0.2324  0.0590  0.1602
24005W        W43539   5.749   2.112   4.842  0.2303  0.1099  0.2647
24006W        W43540   2.739  10.389  15.060  0.1647  0.1744 -0.0487
24007W        W43541  16.569   3.698   0.264 -0.0882 -0.1041 -0.3637
24008W        W43542   0.943   0.958  13.433  0.0554  0.0468  0.0580
24009W        W43543  14.904   4.990  16.594  0.0829  0.0513 -0.1472
24010W        W43544  11.484  10.020  13.418 -0.1037  0.3646 -0.0150
24011W        W43545   9.843  13.849   3.774  0.1347 -0.0841  0.0866
24012W        W43546   3.187   6.023   3.412  0.1890 -0.0767 -0.1965
24013W        W43547  14.485   2.979  14.401  0.1696 -0.0549  0.2103
24014W        W43548   3.805   9.442  14.536 -0.0549 -0.0169 -0.1403
24015W        W43549   5.309  12.554   2.128 -0.1206 -0.0742 -0.1734
24016W        W43550   4.640  17.209  14.718  0.1511 -0.1514  0.2698
24017W        W43551  15.939   7.080  16.194  0.0229  0.0092  0.2339
24018W        W43552   7.191  15.751  13.932 -0.0309 -0.0427 -0.1046
24019W        W43553   7.383  10.038   1.964 -0.2508 -0.1881 -0.3137
24020W        W43554  10.699  11.453   1.763  0.0629  0.2337  0.2751
24021W        W43555   9.588  12.304   3.985 -0.1143 -0.1760  0.0797
24022W        W43556   0.144  14.794  13.289  0.1080 -0.0541 -0.3652
24023W        W43557   4.980   5.439   1.488 -0.1280 -0.1141 -0.1299
24024W        W43558   7.005   3.382   4.775  0.0627 -0.1374 -0.0186
24025W        W43559   6.338  15.912  12.378 -0.0286  0.0589 -0.2459
24026W        W43560  16.612  16.733   3.408  0.4187  0.1427  0.1086
24027W        W43561   4.805  10.260   3.209 -0.1676 -0.0340  0.3123
24028W        W43562   3.774   2.786  13.234  0.1056  0.0530 -0.0892
24029W        W43563   0.872   9.704  13.584 -0.0461 -0.2009  0.1112
24030W        W43564  10.362   2.188  14.571  0.4499 -0.3501  0.0640
24031W        W43565  14.394   2.364   3.821 -0.0746 -0.0352  0.0181
24032W        W43566   5.674   9.732  14.802  0.0151 -0.0739  0.0459
24033W        W43567   9.727   6.461   1.160 -0.0126 -0.3831  0.2494
24034W        W43568   9.433  12.443  12.032  0.3034 -0.0628  0.1398
24035W        W43569  14.623   1.070   3.827 -0.1866  0.0633 -0.2183
24036W        W43570   1.058   3.086   4.273 -0.0454  0.2234 -0.0414
24037W        W43571   5.519   0.709  12.326 -0.0861  0.3420  0.0393
24038W        W43572   6.411  10.280  14.601  0.1289 -0.1761 -0.0492
24039W        W43573   2.332   0.360   3.320  0.3086 -0.1626 -0.0012
24040W        W43574   6.687  15.787  13.791  0.1742  0.2566  0.1645
24041W        W43575   1.434  10.319   2.600 -0.0250  0.0155  0.0643
24042W        W43576   7.821  11.823   0.008  0.4525  0.1434 -0.1071
24043W        W43577   6.704   3.313  13.089 -0.2701  0.0880  0.0133
24044W        W43578   8.561  12.737  13.047  0.1143  0.2316 -0.0832
24045W        W43579   0.279   1.774  16.582 -0.0064 -0.3091  0.1551
24046W        W43580   4.466   7.418  16.816 -0.0185 -0.0019  0.1036
24047W        W43581  15.779  17.111   2.442  0.4854  0.1338  0.2211
24048W        W43582  15.543   6.934  14.396 -0.0459  0.3251 -0.2564
24049W        W43583   4.310  12.787   1.133 -0.0211  0.1422  0.1764
24050W        W43584   7.270  11.275   0.605  0.2170 -0.0522 -0.1032
24051W        W43585  10.443  14.605   3.036  0.3872  0.0169  0.0981
24052W        W43586   4.222   1.359   1.274 -0.0587  0.3832 -0.2358
24053W        W43587   8.621  16.420  16.369  0.0213 -0.1078 -0.0854
24054W        W43588   9.607   3.722   1.959  0.0126  0.2735  0.4506
24055W        W43589  11.392   8.126  12.120  0.0502  0.0637  0.3952
24056W        W43590   4.303  14.224   0.396 -0.1496 -0.2087 -0.3644
24057W        W43591   1.480  17.184   3.050 -0.2276  0.2110  0.1654
24058W        W43592  10.521   7.821  14.504  0.1614  0.1444  0.1467
24059W        W43593  13.941   0.100   3.415 -0.0424  0.0066 -0.0411
24060W        W43594  12.311   1.375   0.254  0.1953  0.1767 -0.0953
24061W        W43595  15.246   8.386  13.333  0.0599 -0.3126  0.4085
24062W        W43596  11.097   2.066   2.794 -0.1440 -0.0031  0.0596
24063W        W43597  17.307  12.242  16.184 -0.1075  0.0949  0.0212
24064W        W43598   8.350   9.650  14.767 -0.3184 -0.1221  0.1674
24065W        W43599  10.619  10.610   2.633  0.2769 -0.1379 -0.2872
24066W        W43600   7.801   9.579  16.516 -0.1868  0.0163 -0.1863
24067W        W43601   8.688   9.427   2.905  0.3773  0.0787  0.0832
24068W        W43602  13.709   9.517  12.920  0.2575  0.1376  0.0618
24069W        W43603   0.902   0.500   4.195 -0.2506 -0.0411 -0.1979
24070W        W43604   7.667  16.292  14.933 -0.2091  0.2779 -0.0158
24071W        W43605  11.515   9.669  14.775  0.0979  0.0772 -0.1781
24072W        W43606  11.660   0.037   5.353  0.1561  0.0664 -0.0717
24073W        W43607   3.088   8.586   1.707  0.1539 -0.1291  0.1750
24074W        W43608   4.853   8.172  12.670  0.2617 -0.0686  0.0073
24075W        W43609  16.579   4.742  15.133  0.1063  0.4884 -0.4064
24076W        W43610   4.811   9.917  14.904 -0.0316  0.0558 -0.0098
24077W        W43611  16.543  14.903   2.362  0.1256 -0.0591 -0.2339
24078W        W43612  16.349  15.035  16.140  0.2643  0.3455 -0.2393
24079W        W43613   8.132  12.237   0.208  0.1585 -0.0429  0.3162
24080W        W43614   3.825   3.011   2.068 -0.0026 -0.3370  0.1513
24081W        W43615   6.139   3.126  15.918  0.1729  0.2035  0.1929
24082W        W43616  10.475   5.464   3.571 -0.3912  0.1859 -0.2495
24083W        W43617  11.311   1.225   0.342  0.1697  0.2259  0.0662
24084W        W43618   5.382  16.952  12.708  0.1668 -0.1566 -0.0760
24085W        W43619   6.394  13.398  15.306 -0.4128  0.0305  0.0430
24086W        W43620   1.651  12.878   1.174  0.1472 -0.1501  0.0661
24087W        W43621  14.916   6.368   1.080  0.0762 -0.1984  0.1347
24088W        W43622   9.591   2.753   3.814  0.0833 -0.2619  0.0592
24089W        W43623   7.858  16.325   0.707 -0.1624  0.0362  0.1099
24090W        W43624   8.604   2.056  15.937  0.1400  0.2464 -0.1190
24091W        W43625  10.064  14.212   2.546 -0.0170  0.3806  0.0809
24092W        W43626   0.494  14.351  14.193 -0.0313 -0.0388  0.0539
24093W        W43627   2.230  15.280  16.099  0.1693  0.0626  0.1214
24094W        W43628  11.338  14.665   5.689 -0.3430  0.0580 -0.1945
24095W        W43629  17.632   7.382  14.296 -0.0044  0.1044  0.2621
24096W        W43630  16.229   3.271   3.705 -0.0871 -0.2367 -0.1690
24097W        W43631  13.191   0.659   0.296 -0.0825  0.1777  0.2960
24098W        W43632  15.801   1.013  15.812  0.0340 -0.0846 -0.0791
24099W        W43633  14.070   5.823  14.299 -0.1091 -0.1691 -0.0999
24100W        W43634   4.937  13.899   0.190 -0.2694  0.3209 -0.0487
24101W        W43635   9.974  11.862  15.177 -0.1361  0.0112  0.2223
24102W        W43636  12.160  14.615  14.304  0.1797  0.0971 -0.2610
24103W        W43637   7.922   3.355  16.895  0.0905 -0.3303  0.0452
24104W        W43638  16.055   1.371  16.001 -0.1402 -0.4136  0.1099
24105W        W43639   2.913  11.181  13.996  0.2099  0.1272 -0.2188
24106W        W43640   2.816  13.883   2.539  0.3314  0.2666  0.0607
24107W        W43641  17.020  12.220   3.894 -0.2723 -0.0726  0.0135
24108W        W43642  10.597   5.369  14.832  0.1859 -0.1964 -0.0838
24109W        W43643   0.425  15.107  13.633  0.1020 -0.0721 -0.1329
24110W        W43644  10.090  12.732   3.081  0.0168  0.3626  0.0108
24111W        W43645  10.310  14.766   3.650 -0.0933 -0.0683 -0.1825
24112W        W43646  11.347  13.227   0.539  0.2044 -0.0784  0.3714
24113W        W43647   6.644   1.370  14.368 -0.1801  0.2662  0.0166
24114W        W43648   2.593  12.366   0.180 -0.0078 -0.0537 -0.3097
24115W        W43649  12.187   0.779   2.761  0.0512  0.0827  0.3511
24116W        W43650   6.995  14.857  16.968 -0.1979 -0.0306  0.0536
24117W        W43651  17.614   1.718   5.109  0.2164 -0.0441 -0.0068
24118W        W43652   0.780   0.005  15.017 -0.0310 -0.3113  0.0938
24119W        W43653   2.382   4.889   1.199 -0.5113 -0.1775 -0.1871
24120W        W43654  15.482  11.961  12.499  0.0224 -0.1518  0.1246
24121W        W43655  10.305  14.056  16.477 -0.1880  0.0351  0.1942
24122W        W43656   3.133   9.126  12.827 -0.2695  0.3107 -0.1371
24123W        W43657   3.012  15.540   0.337 -0.0782 -0.1208  0.1772
24124W        W43658   4.400  10.237  15.511  0.3902  0.0365  0.0251
24125W        W43659  11.212   3.921   1.797  0.1382 -0.1085  0.1163
24126W        W43660   3.499  14.695   3.467 -0.1587 -0.0101 -0.0600
24127W        W43661   5.050  15.412   0.380  0.2374 -0.1192 -0.0509
24128W        W43662   9.073   1.257   3.180  0.0451  0.1102 -0.0852
24129W        W43663  16.085  13.807   3.626 -0.0494  0.0151  0.1927
24130W        W43664   9.060   2.732   2.341 -0.0784  0.1498 -0.1336
24131W        W43665  15.270   0.721   2.175 -0.2653  0.0815  0.0476
24132W        W43666   2.179  10.870   3.946 -0.0178 -0.0637 -0.0520
24133W        W43667   6.111  10.974   3.861  0.3057 -0.0514 -0.1534
24134W        W43668   5.718   6.885   4.408 -0.0359 -0.1866 -0.0581
24135W        W43669   0.229  12.569   3.665 -0.1107 -0.1324 -0.0833
24136W        W43670   6.118   7.895  15.624  0.1812  0.0340  0.0580
24137W        W43671   5.975   9.940   4.047  0.3910  0.0769 -0.0178
24138W        W43672  17.397   2.012   1.191  0.0520 -0.0454 -0.1553
24139W        W43673  15.018   2.447  14.932  0.2236 -0.0928 -0.1205
24140W        W43674   7.887  10.804   0.021 -0.0311 -0.2110  0.1054
24141W        W43675   6.098   7.031   4.151 -0.1171  0.1683 -0.2243
24142W        W43676   7.044  16.108   2.356  0.1980 -0.2909 -0.1058
24143W        W43677  15.791   7.285   2.385  0.2360 -0.0332  0.2029
24144W        W43678   9.504   1.099   3.129 -0.0826  0.2284  0.1010
24145W        W43679  11.623   1.804   4.490 -0.2569 -0.2154  0.2807
24146W        W43680  10.368   3.031  13.425 -0.1251  0.0435 -0.2369
24147W        W43681   5.974  11.970  15.330  0.0392 -0.2615  0.0811
24148W        W43682   0.657   6.747   3.197  0.2334  0.0082 -0.3004
24149W        W43683  16.781   5.006  14.743 -0.2181 -0.1193  0.0056
24150W        W43684   4.715   6.272  16.254 -0.0199 -0.2685 -0.2776
24151W        W43685   1.443  11.660  14.792  0.0440  0.1411  0.0209
24152W        W43686  15.947   9.444  12.139  0.0866 -0.0917 -0.3601
24153W        W43687   7.601   5.205   3.215  0.1869  0.1728  0.3399
24154W        W43688  10.893   8.555  12.143  0.0098  0.2260 -0.0070
24155W        W43689   7.355   4.956  13.472  0.3437 -0.1340  0.1175
24156W        W43690   3.537   3.716  11.107 -0.1687  0.0322 -0.1628
24157W        W43691   9.557  15.431  12.525  0.0283  0.0035 -0.0437
24158W        W43692   9.127  14.977   1.450  0.0339  0.2150 -0.3160
24159W        W43693  15.094  17.318   3.921  0.1221 -0.3284  0.2069
24160W        W43694   3.266   2.049   4.441  0.0915  0.1971 -0.2735
24161W        W43695   3.723  16.707   2.183  0.0631  0.0498 -0.1903
24162W        W43696  12.640  13.730  12.829  0.1579 -0.0561 -0.0177
24163W        W43697   8.194   5.533   1.597  0.0912  0.0625 -0.1296
24164W        W43698  16.161   9.257   0.117 -0.1531  0.0142  0.1048
24165W        W43699  14.700  17.546  14.603  0.0050  0.3659  0.2287
24166W        W43700  17.027   6.869  16.494  0.0718 -0.1504  0.0423
24167W        W43701   6.540   5.325   0.246  0.0106  0.0709  0.1447
24168W        W43702  16.550   4.539  13.703 -0.0498  0.0710  0.1320
24169W        W43703  15.792   8.219  16.709 -0.0927  0.1659  0.1157
24170W        W43704   0.099  14.009   1.560 -0.0328 -0.2887 -0.0054
24171W        W43705  12.395  12.877  14.871  0.3002  0.2818  0.3641
24172W        W43706   0.542  13.999  14.628 -0.1699 -0.2952  0.4291
24173W        W43707  17.456   6.469   0.455 -0.0076  0.0569 -0.0052
24174W        W43708  12.309   8.839  15.031  0.1012 -0.0899 -0.0551
24175W        W43709  16.999   8.102   3.540  0.1530 -0.1577 -0.0273
24176W        W43710  16.326  16.071   1.378 -0.2959 -0.3064 -0.0535
24177W        W43711  11.607   7.058   2.662  0.0700 -0.1593  0.1400
24178W        W43712  14.726   4.128   2.236 -0.3099  0.0601 -0.1172
24179W        W43713  15.406   4.437   0.401  0.0562  0.0293 -0.0352
24180W        W43714  10.050   8.078   1.629  0.1635  0.0416 -0.2853
24181W        W43715   8.428   4.240   1.924  0.0612  0.1345  0.2267
24182W        W43716   3.435   7.666  15.810 -0.0039 -0.0688  0.0364
24183W        W43717   0.496  11.348   0.719 -0.3671 -0.0701  0.1364
24184W        W43718   5.351   4.267  14.637  0.0738 -0.3832  0.0376
24185W        W43719  13.096   7.839  14.186 -0.2716 -0.1414 -0.0846
24186W        W43720  16.880  10.980   1.869  0.1333  0.1537 -0.2268
24187W        W43721  14.167   6.221   0.643 -0.0700 -0.0601 -0.0713
24188W        W43722   9.340   6.871   3.789  0.2871 -0.3791 -0.2671
24189W        W43723  11.557  12.519  12.295  0.1514  0.1210 -0.3043
24190W        W43724   8.542   9.105   5.021 -0.0391 -0.2106  0.0128
24191W        W43725  17.557  15.197   3.744 -0.1807 -0.1842 -0.1274
24192W        W43726   7.506   5.716  16.875 -0.1514 -0.1761 -0.1620
24193W        W43727  13.944   9.912   3.079  0.2331  0.0721  0.2091
24194W        W43728  10.301   9.990  13.017 -0.0690 -0.1247 -0.2272
24195W        W43729  12.368  17.108   0.311  0.1371  0.2614 -0.0505
24196W        W43730  13.254  10.312  16.200 -0.1944 -0.2770 -0.0257
24197W        W43731   7.558   2.950   0.745 -0.0649 -0.3472  0.0490
24198W        W43732  13.683   2.082  16.462  0.5074  0.2106  0.0848
24199W        W43733  17.118   2.836  12.763 -0.3475  0.1350  0.1910
24200W        W43734   9.511  14.673  13.275  0.0456  0.3433  0.0251
24201W        W43735   7.005  16.247  12.933  0.1349  0.1066 -0.0803
24202W        W43736  12.784   3.039  14.026 -0.0641  0.0453 -0.1310
24203W        W43737  13.868   3.782  15.977  0.1010  0.2591 -0.6369
24204W        W43738  12.575  15.455  15.050  0.2227  0.2581 -0.1128
24205W        W43739   2.315   6.109   0.750  0.1901 -0.0056 -0.2084
24206W        W43740  12.080   1.540   4.862 -0.0151 -0.0718 -0.1785
24207W        W43741   5.535   2.227   1.746  0.0773 -0.2060  0.2255
24208W        W43742   2.208   4.649   0.791  0.1457 -0.3238  0.2239
24209W        W43743  10.095  14.302   3.887 -0.1395  0.1360 -0.4449
24210W        W43744   7.052   7.393  16.785  0.1300 -0.0460 -0.0796
24211W        W43745   9.443   2.285   0.793  0.0112 -0.2386 -0.2488
24212W        W43746   6.821  13.539   2.034 -0.1113 -0.0917 -0.0261
24213W        W43747   6.231   1.473  13.442  0.0093 -0.1089  0.3048
24214W        W43748   3.604  14.098  15.554 -0.2072 -0.1177 -0.0218
24215W        W43749  16.592  16.681   2.576  0.3071 -0.1611  0.1317
24216W        W43750   4.524   5.851   4.234 -0.1897  0.1931  0.0961
24217W        W43751   4.145   4.384   2.827 -0.1330  0.3076  0.1378
24218W        W43752   3.154   2.642   3.662  0.1247 -0.1062  0.1102
24219W        W43753  16.319   7.445   0.628  0.1585  0.3162 -0.0517
24220W        W43754   8.553   2.779   1.599 -0.0090 -0.3244 -0.1260
24221W        W43755   5.745   1.010  14.760 -0.0141 -0.0691 -0.2945
24222W        W43756   1.779   2.838   3.593  0.2733 -0.0758 -0.2852
24223W        W43757   5.390  16.022   4.755  0.1197  0.1328 -0.1805
24224W        W43758   6.379  12.510   1.940  0.0419  0.0293 -0.2176
24225W        W43759   5.751   6.220  13.997  0.0095  0.0624  0.0572
24226W        W43760   7.334  11.255  15.553  0.0504 -0.2905  0.2430
24227W        W43761  13.508   2.576   4.740 -0.1946 -0.2014  0.2320
24228W        W43762  14.229  13.914  16.772 -0.1498 -0.0100 -0.1317
24229W        W43763   5.219   5.147  13.169  0.1970  0.1116 -0.3599
24230W        W43764  13.270   8.466  17.006  0.0500  0.1693 -0.2089
24231W        W43765   9.259  12.950  13.093  0.0826  0.3411 -0.1287
24232W        W43766   5.942  10.391   4.409  0.0513  0.0941 -0.1295
24233W        W43767   6.660   0.496  12.183 -0.0722  0.2830  0.0365
24234W        W43768   3.529   7.815  14.990 -0.1536  0.1102  0.1857
24235W        W43769   8.922   2.468  12.020 -0.0055  0.2828 -0.2466
24236W        W43770   2.232  10.154   3.569  0.0146 -0.0470 -0.3641
24237W        W43771  13.693   3.991  12.582 -0.0827  0.0140  0.1241
24238W        W43772   9.959  16.391   2.307  0.1132  0.2236 -0.0610
24239W        W43773  14.180   6.248   1.563 -0.0052 -0.1179  0.1760
24240W        W43774   9.849  11.672  15.984 -0.0236 -0.2293 -0.0431
24241W        W43775   1.342   3.842  13.028 -0.0729 -0.0792 -0.0717
24242W        W43776   9.011   0.254   2.219  0.0123  0.0665 -0.2831
24243W        W43777   1.623   7.980   3.737 -0.2127  0.2104 -0.0954
24244W        W43778   7.738   3.409  15.756  0.1028 -0.2227 -0.0263
24245W        W43779   8.783  16.942   4.612  0.2172  0.0132 -0.0683
24246W        W43780  15.274  10.444   0.647 -0.0570  0.0265  0.0726
24247W        W43781   1.600  14.202  16.318 -0.1852 -0.2474  0.0230
24248W        W43782   7.920   7.967  12.480  0.1623 -0.2067 -0.1087
24249W        W43783  13.460   1.110  13.461  0.0221 -0.0780  0.2058
24250W        W43784  16.660  11.050   3.280  0.1602  0.1488  0.1846
24251W        W43785   0.203  16.910  13.451 -0.3395 -0.0994 -0.3047
24252W        W43786   7.738  15.346  15.067 -0.0981 -0.1238 -0.0035
24253W        W43787   6.166   0.090  13.090  0.0074  0.1536 -0.1226
24254W        W43788   5.462   2.543   2.155 -0.3196 -0.0382  0.3119
24255W        W43789  14.683   7.847   2.581  0.5179  0.0816  0.1118
24256W        W43790   2.132  13.423   0.792  0.3792  0.0622  0.1466
24257W        W43791  15.241  14.439   0.988 -0.1978 -0.2838  0.1235
24258W        W43792  14.649   1.118   1.588  0.0531  0.0346 -0.0762
24259W        W43793  15.297   3.643  16.284  0.0872 -0.1464  0.0832
24260W        W43794  14.097   5.011  14.558 -0.0597 -0.0835  0.0892
24261W        W43795  14.488   2.525  15.909  0.0828 -0.5173  0.1843
24262W        W43796   3.588  17.044  12.553 -0.0170  0.2438  0.1022
24263W        W43797  12.696  17.449  13.514  0.1188  0.3215  0.3023
24264W        W43798  16.472  16.405   5.068 -0.0676  0.1196  0.2792
24265W        W43799   3.539   2.952   3.790  0.1554  0.1871 -0.3617
24266W        W43800   4.296  17.139   0.358 -0.1616 -0.0927  0.3026
24267W        W43801   7.585   5.935   2.722 -0.1226 -0.4622 -0.0786
24268W        W43802   2.785   3.950   4.072  0.0057 -0.4102 -0.0850
24269W        W43803  10.677   8.113   0.329  0.1749  0.0166  0.0096
24270W        W43804   5.479   1.422  12.858  0.0084 -0.1032  0.0585
24271W        W43805   8.645  16.478   0.333 -0.4641  0.4041  0.1631
24272W        W43806   4.050   8.077   2.704  0.1062 -0.0750  0.0797
24273W        W43807  12.542  17.427   3.328 -0.1268 -0.2062 -0.0300
24274W        W43808   3.074   5.781  14.153  0.1008 -0.2219 -0.1448
24275W        W43809   1.877   2.107   2.084 -0.1314 -0.2199  0.1464
24276W        W43810  15.843   0.872   0.131 -0.1347 -0.1292  0.0660
24277W        W43811   4.360   4.916   2.894  0.0819 -0.0464  0.0808
24278W        W43812  16.183  11.259  16.682 -0.0982  0.1449  0.1181
24279W        W43813  15.679   3.963  14.500  0.0521 -0.1861 -0.1091
24280W        W43814   0.028  11.225   1.016  0.0419 -0.0488 -0.0853
24281W        W43815  14.998  10.683   2.444 -0.0482 -0.5224  0.1781
24282W        W43816  14.387   8.082  14.776 -0.0916  0.0792 -0.1424
24283W        W43817   8.928  12.197   0.592 -0.1940 -0.1421  0.1188
24284W        W43818  14.961  12.567  12.297  0.0108  0.0642  0.2878
24285W        W43819   3.805   2.030   0.981 -0.2590 -0.0461 -0.4175
24286W        W43820  13.071  10.711   3.926  0.2571 -0.2929 -0.2964
24287W        W43821   6.825   7.130   5.038  0.1224  0.0294 -0.1885
24288W        W43822   9.264  15.745  14.284 -0.1724  0.0727 -0.0806
24289W        W43823   9.994  17.144  16.702  0.0456 -0.2375  0.2970
24290W        W43824   0.190   6.789   5.102  0.2026  0.0818  0.2082
24291W        W43825  13.487   9.530   4.056 -0.1118  0.2495 -0.0199
24292W        W43826   7.300   7.376  15.925 -0.1982 -0.3290 -0.2342
24293W        W43827  12.676   3.109   1.552 -0.1959 -0.2100 -0.3180
24294W        W43828  13.586  14.339   5.177 -0.0003 -0.1037 -0.0990
24295W        W43829   3.182  11.659   3.171  0.1704  0.1674 -0.3837
24296W        W43830   7.467   8.353   0.228 -0.0289 -0.0106  0.1095
24297W        W43831   6.472   0.706   2.964  0.3396 -0.0142 -0.1490
24298W        W43832  13.057  13.816   0.297 -0.2058  0.2345 -0.0257
24299W        W43833  15.822   2.739   0.049  0.0776  0.2157 -0.1087
24300W        W43834   2.665  11.968  12.336 -0.0530 -0.2338 -0.2037
24301W        W43835  15.952   2.481  13.472  0.1048 -0.0827  0.0862
24302W        W43836   0.381   8.456   4.574  0.1932 -0.0150  0.0388
24303W        W43837  16.640  17.446   0.937 -0.2583  0.0239  0.1101
24304W        W43838  14.040  13.691  13.359 -0.1207 -0.1471  0.0283
24305W        W43839  17.209   0.969  14.797 -0.0138 -0.2654  0.0496
24306W        W43840  15.172   6.794  15.892 -0.5127  0.2416 -0.0360
24307W        W43841  13.378  10.184   1.355  0.0822  0.0394  0.0298
24308W        W43842   6.944   9.058  14.831  0.1463 -0.0632  0.2068
24309W        W43843   9.962  16.953   3.301  0.2524  0.2428  0.0769
24310W        W43844  17.616  10.855  13.322 -0.1150 -0.2051 -0.0198
24311W        W43845  14.312   9.706  13.235  0.2108 -0.1940 -0.0502
24312W        W43846   3.824  10.978   2.209  0.0305 -0.0036  0.1537
24313W        W43847  11.485   1.345   3.666  0.0610  0.4076 -0.3709
24314W        W43848  10.245   5.704   0.177 -0.0647  0.1061  0.0099
24315W        W43849   7.458   6.801   3.126 -0.1416  0.1498 -0.1889
24316W        W43850  15.208   4.905  13.110 -0.1443 -0.0967 -0.0442
24317W        W43851   8.182   1.952  16.758  0.0988 -0.0096  0.1485
24318W        W43852   0.709  16.083  15.540 -0.0625  0.0481 -0.2588
24319W        W43853  14.509   8.299  12.579 -0.1281 -0.2523  0.0300
24320W        W43854   3.924   7.275  16.627  0.1034  0.1808 -0.0393
24321W        W43855   5.848   2.437   2.492 -0.1476  0.3413  0.1142
24322W        W43856   7.851   6.068  13.832 -0.2226 -0.1378  0.0628
24323W        W43857   8.016  10.564  13.478  0.2041 -0.1022  0.0384
24324W        W43858   9.531  11.435   2.259  0.1162  0.0502  0.1150
24325W        W43859  10.055   1.350   2.382  0.0057 -0.1899  0.0086
24326W        W43860   0.026   2.292  16.339 -0.3397 -0.0447 -0.2490
24327W        W43861  10.650   3.563  14.343  0.1976 -0.0628 -0.2283
24328W        W43862   8.886   1.735  15.614 -0.4181  0.0903 -0.0848
24329W        W43863  17.136  12.517  13.381  0.0639  0.0652  0.2271
24330W        W43864   2.573   9.443   2.265 -0.1205 -0.1718  0.0310
24331W        W43865   9.292  10.723  13.918  0.1938  0.1288  0.2000
24332W        W43866   7.072   4.590   4.236 -0.2630 -0.4492  0.1483
24333W        W43867   3.013   8.551   2.385 -0.5295  0.0961 -0.0815
24334W        W43868  10.246   0.260   4.679  0.0157 -0.0753 -0.1954
24335W        W43869  14.996   7.795  16.584  0.1119 -0.1164 -0.0053
24336W        W43870   7.231  17.005  16.430 -0.1268  0.0935  0.0774
24337W        W43871   4.279   4.173  16.415 -0.0511  0.1653 -0.1557
24338W        W43872  15.651   9.670  12.747  0.0960  0.0886 -0.0376
24339W        W43873   6.865  16.039   0.545 -0.0970  0.0177  0.1195
24340W        W43874   4.343   1.508  15.807 -0.1181  0.3018 -0.0978
24341W        W43875  16.863   4.152   2.845  0.0236 -0.0173 -0.1366
24342W        W43876  14.895   7.930   4.902  0.0587  0.2839  0.0718
24343W        W43877   7.890  14.580   0.281  0.1012 -0.1506  0.0089
24344W        W43878   9.218   5.206  14.823  0.1306 -0.1135 -0.0108
24345W        W43879  14.604  12.440   1.314  0.2909 -0.2469  0.0037
24346W        W43880   9.442   7.552   1.228  0.1334 -0.0842 -0.0844
24347W        W43881   0.943   5.157   0.169 -0.0819  0.0320 -0.0442
24348W        W43882   7.581   7.141   0.353  0.0806  0.1567 -0.0532
24349W        W43883   7.451   6.988   3.713 -0.2812 -0.1553  0.3813
24350W        W43884  11.826   0.967   3.546 -0.1152  0.0943  0.1877
24351W        W43885   6.451   9.225   1.665  0.1217  0.1481 -0.1161
24352W        W43886  10.025   6.500   3.510  0.1047 -0.1186 -0.1598
24353W        W43887  13.289   6.231   1.834  0.1401 -0.0156  0.1792
24354W        W43888  15.835   1.003   5.144 -0.2020 -0.0002 -0.0374
24355W        W43889  15.044  14.350   1.404 -0.2529  0.3182  0.3033
24356W        W43890   7.449   8.976   2.391  0.0274  0.0063 -0.2289
24357W        W43891   5.870  11.711  16.786 -0.1457  0.2010 -0.0138
24358W        W43892  13.182   2.210   1.695  0.2734 -0.1626  0.2026
24359W        W43893   6.528  14.333  16.807  0.1693  0.2789 -0.2512
24360W        W43894  15.666  10.718  14.609 -0.0981 -0.2929  0.1820
24361W        W43895   0.659   8.456   1.806 -0.0482 -0.2718  0.1747
24362W        W43896   7.591  16.378   1.239  0.5456  0.0075  0.0053
24363W        W43897   3.199   2.312  14.237  0.0971  0.2135 -0.0386
24364W        W43898   8.080   8.205   0.210 -0.1642  0.1040 -0.1113
24365W        W43899  17.340   5.410   3.375 -0.0769  0.2326  0.1476
24366W        W43900  11.713   4.876   3.266 -0.0719 -0.0125 -0.3931
24367W        W43901  10.198   9.406   5.022  0.0844 -0.1030  0.0873
24368W        W43902  17.101  13.397  17.044  0.0092 -0.0637 -0.1612
24369W        W43903  12.789   0.982   0.823  0.0162 -0.0434  0.1725
24370W        W43904  15.844  11.207   4.438  0.1805 -0.1724 -0.1952
24371W        W43905  13.258  15.360  14.737  0.2506  0.2413 -0.1388
24372W        W43906  16.599   0.918   0.954 -0.2426  0.0042 -0.0652
24373W        W43907  14.371   2.672  12.892 -0.1237 -0.1996  0.2004
24374W        W43908   2.818   8.188   2.836 -0.3350  0.1021 -0.1749
24375W        W43909  15.554   2.057   4.939  0.1136 -0.2091  0.1442
24376W        W43910   8.156  17.463   4.110 -0.3748  0.1366 -0.1588
24377W        W43911   7.235  11.138  13.929 -0.1282 -0.3598 -0.0389
24378W        W43912   0.128   1.745   1.983  0.1212  0.1810  0.0345
24379W        W43913   9.116  12.718  12.669 -0.0909  0.0174  0.1673
24380W        W43914   8.028   9.369   0.749 -0.0539 -0.1490  0.1803
24381W        W43915   8.548   9.762   1.506  0.3312 -0.1156 -0.1397
24382W        W43916   8.406   3.038  16.834  0.0660 -0.2086  0.0494
24383W        W43917  14.968   0.285   1.792  0.0417 -0.1670 -0.0177
24384W        W43918  14.676  16.960   0.605  0.2429  0.0142  0.0210
24385W        W43919  16.348   2.443  16.465  0.1403  0.0945 -0.3610
24386W        W43920   8.061   8.532  15.079 -0.0841 -0.1420  0.0449
24387W        W43921   9.298   9.986  12.935 -0.0606  0.1236  0.0102
24388W        W43922   9.210  15.175  12.296  0.0842 -0.1199  0.4633
24389W        W43923   6.037  10.128   1.414 -0.0057  0.0280 -0.3389
24390W        W43924  13.538   2.180  13.063  0.1939 -0.3038 -0.1410
24391W        W43925  12.662   4.924  14.349  0.2616 -0.0305  0.0938
24392W        W43926   5.140   6.870  13.922 -0.0095  0.4084  0.2597
24393W        W43927   7.264  14.427  15.802 -0.0940 -0.2155  0.1206
24394W        W43928   8.304  14.761  15.578 -0.0745  0.0403 -0.2447
24395W        W43929   6.116   2.627  14.912 -0.0949  0.0295 -0.1674
24396W        W43930   4.689   8.873   5.836  0.0039  0.1476 -0.1003
24397W        W43931  10.139   3.649  16.698  0.3050  0.2312  0.0022
24398W        W43932   9.181  11.298  16.609 -0.0135 -0.1005 -0.0968
24399W        W43933   4.419  12.452   4.921  0.0370  0.1393  0.0270
24400W        W43934  14.037  13.620  16.443  0.2069 -0.1295 -0.2327
24401W        W43935   2.853   4.247   4.464 -0.0590  0.1889 -0.0437
24402W        W43936  14.032   8.195   4.971 -0.0624 -0.0406 -0.0369
24403W        W43937  11.565   7.728  12.413 -0.1110  0.0023  0.3869
24404W        W43938   2.387  12.782   0.014  0.0181 -0.0235  0.2020
24405W        W43939  13.080  12.079   4.813 -0.1738  0.1665  0.0971
24406W        W43940   1.208   4.341  13.056 -0.0671  0.0481 -0.0563
24407W        W43941  16.303   3.181   2.358  0.1852 -0.0797  0.1271
24408W        W43942  10.237   5.130   3.264 -0.1378  0.2798 -0.2888
24409W        W43943   7.345   3.723  14.353  0.2556 -0.0896  0.0807
24410W        W43944  13.790  12.792   4.583  0.2391  0.2456 -0.3019
24411W        W43945  11.023  12.712  14.719  0.3789  0.0270  0.0134
24412W        W43946  17.486  15.218  15.523  0.0165 -0.2312  0.2342
24413W        W43947  14.272   8.377  14.335  0.0059 -0.0748  0.3329
24414W        W43948  17.017   9.084  16.523  0.2014  0.0161  0.3358
24415W        W43949   7.387  14.475  16.274 -0.1571 -0.1126  0.0726
24416W        W43950   4.086  13.087  13.931 -0.0016 -0.1979  0.4084
24417W        W43951  11.304  15.983  15.840 -0.1530 -0.0532  0.1031
24418W        W43952  17.447   5.323   2.861 -0.0629  0.1907 -0.0629
24419W        W43953   7.747   2.927   4.574 -0.1113 -0.0246  0.1057
24420W        W43954   1.627   5.578   4.179  0.0186 -0.1212  0.3772
24421W        W43955   4.316   1.590   4.522 -0.0118 -0.2740  0.0735
24422W        W43956  13.485  16.961  15.420 -0.2496 -0.1169  0.1853
24423W        W43957  13.237  14.787  16.426  0.2382 -0.4446 -0.1130
24424W        W43958   0.854   2.147   2.595 -0.2633  0.0649  0.0040
24425W        W43959  13.102   0.548  16.815  0.2060  0.0466  0.0159
24426W        W43960  16.993  10.812  16.969 -0.0248  0.2532  0.2798
24427W        W43961   5.708   7.073  12.448  0.0824  0.1210 -0.1667
24428W        W43962  11.848   7.596   4.506 -0.2059  0.0068  0.0562
24429W        W43963   0.240  10.583   0.094  0.2590 -0.2395 -0.1140
24430W        W43964   3.837  11.602  15.912  0.4146 -0.0703 -0.2369
24431W        W43965  15.327   8.714  14.470 -0.0922 -0.0101  0.0316
24432W        W43966   8.106   0.053   3.154  0.1301  0.0419  0.1952
24433W        W43967  12.629   3.722   5.066 -0.2210 -0.2601  0.1379
24434W        W43968  12.392   6.077  15.600 -0.2866  0.0923  0.1529
24435W        W43969  15.301   9.125   0.888 -0.0754 -0.2299  0.1597
24436W        W43970   2.562   0.126  14.403 -0.1006 -0.0893 -0.3539
24437W        W43971  15.033   5.945   1.379 -0.2336  0.1350  0.0000
24438W        W43972   2.220  16.187  12.178  0.3089 -0.2786 -0.4712
24439W        W43973  12.406   1.667  16.850  0.0770  0.0738  0.0798
24440W        W43974   6.821   2.809   3.643  0.0420 -0.0716  0.0538
24441W        W43975   4.313  11.658  12.995 -0.3396  0.2216  0.2620
24442W        W43976   3.409   5.152  13.735 -0.2734 -0.0180 -0.1257
24443W        W43977   9.859   1.778  14.659 -0.2132 -0.2193 -0.1418
24444W        W43978  13.763   6.821  11.653  0.2042 -0.1465  0.0006
24445W        W43979  13.585   2.207   0.207  0.0851 -0.0598  0.0555
24446W        W43980  12.928   8.466   4.459 -0.3716  0.0124  0.0421
24447W        W43981  13.701   4.312  13.142  0.1546 -0.1648 -0.4291
24448W        W43982  17.333  10.768   2.049  0.1746  0.1615  0.0685
24449W        W43983   6.430  14.577   3.113 -0.1258  0.1977  0.1641
24450W        W43984  12.928   6.975  17.058 -0.0348  0.0622 -0.0028
24451W        W43985   1.692  11.123   2.414 -0.3504 -0.1692 -0.1289
24452W        W43986  13.699  13.052  14.991 -0.1596  0.1016  0.1769
24453W        W43987  14.648  16.127   0.285  0.1643 -0.1409 -0.1953
24454W        W43988   7.542  14.025   3.181  0.1545 -0.0593  0.1094
24455W        W43989   5.229   3.410  15.192 -0.1061  0.1018 -0.0879
24456W        W43990  15.376   8.884   0.390  0.0376 -0.2753  0.0882
24457W        W43991  16.503   0.046   1.373 -0.1273 -0.3075 -0.3210
24458W        W43992   9.553  14.367  16.327 -0.2784 -0.0069  0.1933
24459W        W43993  14.056  14.676  14.525  0.0168 -0.1413 -0.0209
24460W        W43994   6.545  10.303   1.428  0.1314  0.1143 -0.2496
24461W        W43995  15.715  17.234  13.635  0.1024 -0.1222  0.3829
24462W        W43996  14.382  17.362  14.194  0.1505  0.1251 -0.1107
24463W        W43997   9.628  15.597   0.197  0.4130 -0.0363  0.0166
24464W        W43998  10.651  10.964  16.484  0.1986 -0.0737 -0.0840
24465W        W43999  13.954  10.635   4.916  0.0315  0.0650  0.0267
24466W        W44000   1.065   3.570  14.829  0.1533 -0.1721 -0.2469
24467W        W44001  13.499   6.026   4.507 -0.0542 -0.0166 -0.2387
24468W        W44002   9.857   0.551  13.534  0.0406  0.0255 -0.0386
24469W        W44003   3.540   6.563  14.327  0.2364 -0.1381 -0.2581
24470W        W44004  12.276   3.603   0.227  0.1237 -0.1684  0.1401
24471W        W44005   2.185   5.037   4.490 -0.3227  0.1828 -0.1291
24472W        W44006  14.685   9.386   3.503 -0.1825  0.0011 -0.1423
24473W        W44007  12.869   5.018  12.606 -0.0433 -0.0247 -0.0779
24474W        W44008  11.193  17.178  12.878 -0.0563 -0.2434 -0.0277
24475W        W44009  16.839  12.363   5.279 -0.3297 -0.0496  0.3075
24476W        W44010   2.110  14.632   4.421 -0.0191 -0.0858  0.0220
24477W        W44011   8.077   5.764   3.826  0.1175  0.2955  0.3191
24478W        W44012   7.956   4.885   2.924  0.1824 -0.1675  0.0952
24479W        W44013   3.713   7.359   2.194 -0.0120 -0.0442 -0.0372
24480W        W44014   2.944   3.939  16.730 -0.4872 -0.1484 -0.0489
24481W        W44015   8.345  11.344  16.066  0.2755 -0.0481 -0.1143
24482W        W44016  10.023  14.074   1.664 -0.0008 -0.1188  0.3377
24483W        W44017   5.890  13.213  12.053 -0.2599  0.2098  0.3267
24484W        W44018   3.305  12.178   3.643  0.1142 -0.1638 -0.0970
24485W        W44019  13.550  12.479  16.255 -0.1425 -0.0971  0.2238
24486W        W44020  10.381  12.647   0.640  0.1061 -0.2406  0.0047
24487W        W44021  16.812  12.250   0.612  0.1344 -0.2802  0.1403
24488W        W44022   2.856   0.977  12.483 -0.0686 -0.1212 -0.0838
24489W        W44023  17.454  15.134   4.662 -0.1251  0.1860  0.1915
24490W        W44024  13.570   5.526   5.448 -0.1847 -0.0874  0.3170
24491W        W44025  15.874   6.190   1.495  0.4476  0.3184  0.1794
24492W        W44026  15.268   5.169  16.239  0.2198 -0.1106 -0.2680
24493W        W44027  12.635   6.982   2.013  0.2043  0.1947 -0.0164
24494W        W44028  12.195   8.993   1.337  0.1757 -0.0467 -0.0372
24495W        W44029   1.837   0.902  14.233 -0.0138 -0.1974 -0.0678
24496W        W44030   1.762   3.858   3.950 -0.0065 -0.1220 -0.1000
24497W        W44031   2.092  10.211   2.250  0.0479 -0.0299 -0.3969
24498W        W44032   8.935   8.608  15.673  0.0681  0.0794  0.2240
24499W        W44033   0.343   0.038   4.572  0.0218 -0.2959  0.0281
24500W        W44034  14.020  14.876   0.050  0.0406  0.0708 -0.1170
24501W        W44035   5.234   4.991  13.771 -0.2483 -0.2838  0.0721
24502W        W44036   8.883   4.586  13.856 -0.1818  0.0454 -0.2827
24503W        W44037  16.066   8.913  12.948 -0.3514  0.0641  0.2075
24504W        W44038  14.295   4.064   1.355 -0.0209 -0.3392 -0.1700
24505W        W44039  14.601   7.471   3.021 -0.1570  0.0910  0.2776
24506W        W44040   0.694  14.599  12.483 -0.0885  0.1454 -0.0565
24507W        W44041   8.447   1.030  16.965  0.0223  0.0468  0.2782
24508W        W44042   7.025  13.461   1.399  0.2443  0.3223 -0.0063
24509W        W44043   9.480  16.886  13.486  0.0322 -0.0311  0.0260
24510W        W44044   2.032  14.574  13.646  0.1149  0.0716  0.1505
24511W        W44045   2.759  11.805   0.242  0.1909 -0.0395  0.1968
24512W        W44046   4.238  11.176  12.929  0.0068 -0.0377 -0.1102
24513W        W44047  16.168  15.812  12.051 -0.3183 -0.2187  0.0589
24514W        W44048   4.525  15.744   4.366  0.0785  0.0522  0.1541
24515W        W44049  14.894   1.430  16.827 -0.0831  0.0755 -0.3487
24516W        W44050  15.055  12.681   2.141 -0.2528  0.1323  0.3891
24517W        W44051   4.328  14.212  16.678 -0.2728  0.0181 -0.0558
24518W        W44052   5.456  14.697   4.373  0.1187  0.2623  0.2096
24519W        W44053   8.060   3.710   4.344 -0.0826 -0.3094 -0.0117
24520W        W44054  17.272   0.362   0.379 -0.0211  0.0264 -0.2281
24521W        W44055  13.282  11.819  12.886  0.3097  0.0799 -0.3683
24522W        W44056   4.634  10.210  13.114  0.0857 -0.1187  0.0820
24523W        W44057   1.056  15.391  14.635  0.0719 -0.0088 -0.0099
24524W        W44058   3.129  10.601  16.008 -0.0236  0.2072  0.0626
24525W        W44059  13.618  13.205  12.275 -0.1356  0.0065  0.0766
24526W        W44060  10.216  12.359  16.205  0.1330 -0.3850 -0.0477
24527W        W44061  11.913   6.784   3.326 -0.3365 -0.2858 -0.0881
24528W        W44062   7.267  11.653  14.254  0.0830  0.1717  0.3490
24529W        W44063   6.588  10.119   0.196 -0.0342  0.2073 -0.0149
24530W        W44064   2.478   5.845  15.688  0.1280 -0.1099 -0.0220
24531W        W44065  10.687   4.259  15.781  0.0146 -0.1383 -0.0488
24532W        W44066   1.013  14.775  11.720 -0.1010 -0.2329 -0.0673
24533W        W44067   9.151   9.773  13.549 -0.2361 -0.2722  0.1573
24534W        W44068  14.847   4.465   0.194  0.1613  0.0770 -0.0757
24535W        W44069   1.353   5.614  13.059 -0.0286  0.4473  0.0756
24536W        W44070   2.350  11.061   1.702 -0.3269 -0.6875 -0.1330
24537W        W44071   7.588   4.497  13.317  0.2986 -0.0051 -0.2305
24538W        W44072  10.538   4.052  14.471  0.2548  0.0456 -0.1339
24539W        W44073   0.441  12.703  15.295 -0.2464  0.0053 -0.0252
24540W        W44074   1.649   4.718   0.927  0.0884  0.2453 -0.1677
24541W        W44075   4.784  12.922  14.998  0.3462  0.0502  0.0918
24542W        W44076  11.209  11.845  13.395 -0.0587 -0.2597  0.2480
24543W        W44077   3.931   0.306   4.234 -0.1264  0.1319 -0.1476
24544W        W44078  13.538  14.164   2.218  0.0098 -0.1337 -0.2128
24545W        W44079  16.161  12.065   4.192 -0.0231 -0.0416 -0.0994
24546W        W44080   5.516  16.096  14.732  0.0337  0.1560 -0.0882
24547W        W44081  12.630   2.272  14.613 -0.1156 -0.3047  0.1306
24548W        W44082   6.039  16.724   1.058  0.0136 -0.2250  0.2121
24549W        W44083   7.959  14.745   1.543  0.3387  0.0402  0.0728
24550W        W44084  10.151  15.084  14.378 -0.0413  0.0808  0.0148
24551W        W44085   5.607  10.647  14.571  0.0676 -0.2626  0.2322
24552W        W44086   3.847   8.999   2.967 -0.2359  0.0899  0.1031
24553W        W44087   3.146  15.398   1.181  0.0078 -0.3565  0.1140
24554W        W44088   8.501   2.220   5.078  0.0290 -0.0622  0.0334
24555W        W44089   3.997  13.374  15.235 -0.1003  0.3204  0.3621
24556W        W44090  16.681  13.398  15.796 -0.3455  0.1128  0.3984
24557W        W44091  11.508   3.518  13.152  0.0368 -0.1897 -0.1682
24558W        W44092   3.818   3.272   0.942  0.2185 -0.1391  0.0323
24559W        W44093   7.701  12.663  14.193  0.2320 -0.1526  0.0578
24560W        W44094   7.763  10.250  14.553  0.0364 -0.1440  0.2972
24561W        W44095   9.524   6.148  16.722 -0.2273  0.3204 -0.1610
24562W        W44096   5.757  16.103  16.814  0.2300 -0.4328  0.1362
24563W        W44097  12.868  13.184  16.117 -0.0029  0.3274  0.0939
24564W        W44098  17.268  13.910   2.962  0.0450 -0.3558 -0.1364
24565W        W44099  13.270  12.751   1.143  0.0433  0.2464  0.0776
24566W        W44100   0.671  13.557  16.537 -0.0433 -0.0329 -0.0499
24567W        W44101  13.886   4.196  15.743  0.4895  0.0074  0.2601
24568W        W44102   2.465   0.765   2.988 -0.2384 -0.2979  0.1204
24569W        W44103  11.997   0.928   1.099  0.0360  0.2730  0.1554
24570W        W44104  16.462   6.254  17.000 -0.0688 -0.0129  0.1913
24571W        W44105  12.418   5.630  12.112  0.0986  0.1751 -0.6245
24572W        W44106  10.306  17.096  16.275 -0.1215 -0.1901 -0.3206
24573W        W44107   4.893   8.191   2.482 -0.1340 -0.0889  0.0819
24574W        W44108   4.010   6.300   1.289  0.3114 -0.3214  0.0330
24575W        W44109  11.809  14.601  12.550  0.0812 -0.0158 -0.0135
24576W        W44110  17.320  12.814   1.715  0.3275  0.0414 -0.0526
24577W        W44111   1.103   4.843   2.618  0.0574 -0.0739  0.0498
24578W        W44112   7.362   6.754  13.539  0.3838  0.2951 -0.0870
24579W        W44113   1.014   2.257  15.312  0.3042 -0.0745  0.0012
24580W        W44114  16.645  15.411   3.782  0.0398  0.3290  0.2031
24581W        W44115  12.739  16.434   3.013 -0.0141  0.2761  0.0443
24582W        W44116   7.683   1.552  13.554  0.1703 -0.0880 -0.1395
24583W        W44117  13.291   2.057  14.886  0.1787  0.2429  0.1894
24584W        W44118  10.855   1.704  16.036  0.1632 -0.1975 -0.3129
24585W        W44119   8.770  10.995   5.349 -0.1648  0.1793 -0.3312
24586W        W44120   4.353  10.467  12.228  0.3323  0.2062  0.4658
24587W        W44121   8.524   7.108  14.424  0.0640  0.1012  0.4535
24588W        W44122  12.787   1.923   1.892  0.1833 -0.2493  0.0712
24589W        W44123   9.493  17.309  15.807 -0.0045  0.2391  0.2639
24590W        W44124   3.724   8.053   1.381 -0.0086  0.4240  0.2072
24591W        W44125   8.684   0.417   3.153 -0.1849  0.0601  0.0584
24592W        W44126  13.201   7.323   3.254 -0.0913 -0.0070 -0.0166
24593W        W44127  14.711   2.679  15.375  0.1234 -0.0913  0.4154
24594W        W44128  16.656  16.419  14.283 -0.1484 -0.0065  0.2352
24595W        W44129  15.913  14.547  12.313 -0.0245  0.3127 -0.1764
24596W        W44130  12.671  12.095   0.939 -0.0976  0.3689  0.1765
24597W        W44131  15.127   0.497  12.456 -0.0359  0.2217 -0.1202
24598W        W44132  12.422  12.228  13.940  0.2680  0.0123  0.0116
24599W        W44133   2.426  14.303   0.225  0.0085  0.3807 -0.0879
24600W        W44134   2.311   5.371   1.346  0.0743  0.2682 -0.2586
24601W        W44135  16.382   7.185  14.217  0.2570  0.1142  0.0816
24602W        W44136   1.180  13.552   3.810 -0.0887 -0.0357 -0.0575
24603W        W44137   3.227   0.444  16.567 -0.2207  0.0229  0.1076
24604W        W44138   0.718   4.538   2.130  0.3265  0.1186 -0.1593
24605W        W44139   6.054  12.751  10.955  0.1891 -0.1286 -0.1547
24606W        W44140   7.290   9.336   1.371 -0.0751 -0.0768  0.2365
24607W        W44141   4.556   4.124   4.834 -0.1315  0.0092  0.0720
24608W        W44142  13.622   8.655   1.691  0.0188  0.1916  0.1514
24609W        W44143  11.565   0.586   4.525  0.0038 -0.2143 -0.1150
24610W        W44144  14.060   6.356  15.359  0.1174  0.2631  0.1759
24611W        W44145  15.503   0.006  15.826 -0.1014 -0.1453 -0.1658
24612W        W44146   5.434   8.641   4.523  0.1235  0.0808  0.2401
24613W        W44147  14.730  16.965  12.268 -0.0095  0.0244 -0.2605
24614W        W44148   8.771  17.441   3.888  0.0045 -0.1798  0.0087
24615W        W44149   9.660  12.763  15.578  0.1938  0.0296  0.3149
24616W        W44150   4.218   3.258  16.489 -0.1766  0.0126 -0.0016
24617W        W44151   2.463   1.670   1.427 -0.2541  0.0042 -0.3761
24618W        W44152   5.590  10.547   0.196 -0.1716 -0.3229  0.0221
24619W        W44153  17.152   8.609  16.271 -0.0927  0.1644  0.0251
24620W        W44154  12.601  16.946  13.899  0.1296 -0.2903  0.0302
24621W        W44155   8.053   1.225   1.500 -0.0523  0.1347  0.0241
24622W        W44156  12.302   1.622  14.105 -0.0138 -0.1523 -0.1360
24623W        W44157   5.553  10.076   4.325 -0.0880 -0.3947 -0.1061
24624W        W44158   1.612   8.800   4.749  0.0618  0.0448 -0.1694
24625W        W44159   5.503  15.158  13.650  0.2066  0.0364 -0.3314
24626W        W44160  10.220  13.087   1.511  0.0161 -0.0193 -0.1404
24627W        W44161   1.640  14.595   3.131 -0.0419 -0.0165 -0.2400
24628W        W44162  12.448   6.368  12.594 -0.0965  0.1576 -0.0370
24629W        W44163   7.016   9.010   1.070 -0.1401  0.0407  0.0326
24630W        W44164  10.564   9.018   0.211  0.3589  0.2677 -0.1899
24631W        W44165   8.527   9.385   1.866 -0.0004 -0.2522  0.1122
24632W        W44166  13.070   0.321  16.307  0.0357 -0.0872  0.0262
24633W        W44167   4.240   9.831   4.145  0.3075 -0.1427  0.3222
24634W        W44168  11.687  12.152   5.146  0.1701 -0.0726  0.0529
24635W        W44169  17.427   3.559   1.908 -0.1305 -0.1571 -0.0095
24636W        W44170   8.956   1.670   3.574  0.0895  0.1977 -0.0540
24637W        W44171  12.631   4.994  13.884  0.0136  0.2504 -0.0109
24638W        W44172  13.938  13.992   2.401 -0.1924  0.0861 -0.0634
24639W        W44173  11.717   0.033  15.764 -0.0469 -0.0115 -0.2901
24640W        W44174   2.083   8.641   0.341  0.1301  0.0624  0.0041
24641W        W44175  15.852   3.020   2.256 -0.1986 -0.0861 -0.3084
24642W        W44176   1.415  12.082  15.246  0.0877  0.1194  0.2094
24643W        W44177  14.176   6.368  12.999  0.0216  0.0495 -0.3385
24644W        W44178  15.292  13.887   3.017 -0.1580 -0.1448 -0.0582
24645W        W44179  12.740   0.725  16.504  0.0105  0.1444 -0.1651
24646W        W44180  13.327  12.801  15.355 -0.0494 -0.1099  0.1364
24647W        W44181   0.678  15.273  13.235  0.1140 -0.1475 -0.2151
24648W        W44182  17.299   6.602  15.601 -0.2072  0.0480  0.2282
24649W        W44183   6.178  10.669   1.326  0.0612 -0.0444 -0.0285
24650W        W44184   1.635  12.681  11.673  0.0302  0.1928  0.0997
24651W        W44185   1.335   8.137  14.692 -0.0555 -0.1377 -0.1522
24652W        W44186   4.832   7.680  12.719  0.2094  0.3038 -0.0316
24653W        W44187   0.562   5.064  15.431 -0.0962 -0.0015 -0.0303
24654W        W44188   9.288   1.225  13.658 -0.1401 -0.0595  0.1732
24655W        W44189   3.448  16.833  11.925  0.3309 -0.1368 -0.3346
24656W        W44190  16.130   6.495   4.459  0.1938  0.0439  0.1791
24657W        W44191   0.961  16.053   4.355  0.3083 -0.2140  0.2012
24658W        W44192  14.258   9.177   4.248 -0.0755  0.0712 -0.2091
24659W        W44193   1.944   2.033  12.780 -0.2238 -0.4001 -0.1997
24660W        W44194   2.315   4.058   2.109  0.0162  0.0442  0.1791
24661W        W44195   0.710   3.079   5.181 -0.0406  0.2391  0.0042
24662W        W44196   5.289  13.519  14.575  0.1027 -0.1484  0.2791
24663W        W44197   8.508  10.109  16.034  0.2182  0.0454  0.3268
24664W        W44198  13.831  13.400  17.049  0.0310 -0.1193 -0.0779
24665W        W44199   4.814  17.571  12.552 -0.2245 -0.1626 -0.4212
24666W        W44200   7.212   5.473  15.678  0.2841 -0.1249  0.0774
24667W        W44201   3.603   3.980   4.860  0.0463  0.2390  0.1932
24668W        W44202   9.675  17.665   3.503  0.0834 -0.0701  0.0358
24669W        W44203   6.251   0.849   5.038  0.1715 -0.1146 -0.1686
24670W        W44204   3.685  11.401   2.519  0.1784 -0.3119  0.2120
24671W        W44205   6.381  10.250   5.468 -0.1597 -0.1750 -0.1980
24672W        W44206  17.241  10.058  16.647 -0.1738  0.0084 -0.0719
24673W        W44207   6.170  10.611   0.396 -0.0981 -0.1376  0.2680
24674W        W44208  12.162  17.342  13.084  0.0221 -0.0408 -0.0512
24675W        W44209   1.379  12.535   4.311  0.0620 -0.3429  0.0404
24676W        W44210  12.166   5.634  11.664 -0.3028  0.2399 -0.0413
24677W        W44211  15.477   4.103  15.831  0.1492 -0.0093 -0.1649
24678W        W44212  17.619   7.904   2.581 -0.0103  0.0324  0.2512
24679W        W44213   8.937   6.399  12.805 -0.1270  0.2274  0.0796
24680W        W44214  11.084   5.435  14.190 -0.0885  0.2453  0.1558
24681W        W44215  12.631   2.613   3.690 -0.0124 -0.0296 -0.2754
24682W        W44216   6.560  11.491  15.027  0.0423 -0.3177 -0.2641
24683W        W44217   9.599   8.522   4.643 -0.0664  0.1603  0.4284
24684W        W44218  11.735  15.971  16.611  0.3114  0.1629 -0.0633
24685W        W44219   4.857  16.422   1.234 -0.0143 -0.1148 -0.1077
24686W        W44220   3.954   6.840  15.613  0.2415  0.0695 -0.4855
24687W        W44221  14.902  15.500   1.647  0.0930  0.1730 -0.1489
24688W        W44222   1.553  16.986  14.032 -0.1265 -0.1487  0.0305
24689W        W44223   3.854   3.372  14.858  0.1147 -0.0971 -0.1402
24690W        W44224  10.715   8.427   4.527 -0.1266  0.1610 -0.0726
24691W        W44225  14.903   5.427  14.474 -0.1727  0.1637  0.0719
24692W        W44226  11.932  16.174   4.482  0.0356  0.0725  0.1882
24693W        W44227  14.350  16.642   3.833  0.0670 -0.0536 -0.0863
24694W        W44228   2.919  10.085  12.844 -0.2248 -0.0685  0.2363
24695W        W44229   3.904  11.145   4.094 -0.1896  0.0094 -0.1955
24696W        W44230   0.717   3.777   3.769 -0.1906 -0.0973  0.2271
24697W        W44231   0.803   7.629   3.694 -0.2731 -0.2424  0.1617
24698W        W44232   0.845   4.612   4.301 -0.1839 -0.0003  0.0365
24699W        W44233   3.900  14.044  16.835  0.1261  0.1142 -0.2804
24700W        W44234   1.829  16.670   4.726  0.0071 -0.0325 -0.3977
24701W        W44235  17.479  13.550  16.775 -0.0575  0.1243  0.3486
24702W        W44236   1.881  15.880   0.934  0.1636 -0.1220  0.0678
24703W        W44237   7.747   0.425  15.744 -0.2476  0.0502  0.1441
24704W        W44238   0.528   2.102  16.263  0.0189 -0.0391  0.1729
24705W        W44239  13.413  15.679   2.500 -0.1520  0.0623 -0.1028
24706W        W44240  14.685   5.078   3.426 -0.0734  0.0668 -0.2598
24707W        W44241  16.038   6.909  14.576  0.1982  0.1001  0.1801
24708W        W44242   2.791   5.567  13.076  0.1055  0.0392 -0.3985
24709W        W44243   7.533   3.544  13.903  0.0658 -0.2462 -0.1539
24710W        W44244   4.933   1.463   3.785 -0.1167  0.0683  0.2892
24711W        W44245  14.963  14.452  16.523 -0.3024 -0.0818  0.0168
24712W        W44246  13.636  10.246  15.856  0.0271  0.1531 -0.0786
24713W        W44247   9.501   0.466  16.960  0.2968  0.1955  0.0333
24714W        W44248   3.847  10.084  13.786  0.1124  0.0868  0.0319
24715W        W44249  13.273  12.575   4.087  0.0146  0.4702  0.1670
24716W        W44250  12.344   8.815  15.622  0.0885 -0.0500  0.0831
24717W        W44251  10.409   2.431   3.149 -0.0138 -0.0798  0.0541
24718W        W44252  16.333   3.249   4.237 -0.1065 -0.3035 -0.2478
24719W        W44253  13.935   9.352   3.129 -0.1281 -0.2687  0.2353
24720W        W44254  15.756  15.960   5.302 -0.1473  0.1272 -0.0686
24721W        W44255   0.423   2.746  14.751 -0.0590  0.0264  0.0055
24722W        W44256  11.615  14.298   4.885  0.0437  0.1252 -0.1140
24723W        W44257  14.022  11.995  14.496 -0.3358 -0.0307 -0.2711
24724W        W44258  10.203   8.136   2.330 -0.3037 -0.1038 -0.0048
24725W        W44259   1.550  12.391  13.895  0.1115  0.2046 -0.5924
24726W        W44260  16.317   4.094  13.381 -0.7021 -0.0815  0.0609
24727W        W44261   9.946   7.216   2.798  0.0442 -0.3018 -0.1853
24728W        W44262  14.389   5.864   4.297  0.1699 -0.1013  0.1749
24729W        W44263   5.090  17.470  13.989 -0.1478  0.0101  0.1755
24730W        W44264   0.619  13.187  15.675  0.0711  0.1835 -0.0470
24731W        W44265  16.138  10.942  12.002 -0.1567 -0.1500  0.0057
24732W        W44266   6.366  13.716   0.414 -0.0362  0.0737 -0.1567
24733W        W44267  17.632   3.324  16.173  0.1859  0.0055  0.0126
24734W        W44268   2.859  10.617  13.072  0.1322  0.1832 -0.1414
24735W        W44269  15.917  10.845  12.831  0.1202 -0.2634 -0.1875
24736W        W44270  16.414  11.923  13.565 -0.0984  0.3633  0.1106
24737W        W44271   5.836  17.128   2.391  0.0891  0.5907 -0.1016
24738W        W44272  10.932  16.201  16.652  0.3592  0.1186  0.0620
24739W        W44273   6.507   6.243   3.648 -0.0579  0.2540 -0.0914
24740W        W44274   6.517  11.015  14.859  0.1776  0.1399  0.1334
24741W        W44275   8.079  17.229  12.558 -0.2375  0.0114 -0.3233
24742W        W44276   5.077   2.324  13.010  0.2332  0.0680 -0.0382
24743W        W44277   0.459   2.303   0.811  0.2099  0.1446  0.0924
24744W        W44278   0.967   6.407  13.598  0.3375  0.2141 -0.0150
24745W        W44279  14.290  11.637  13.045 -0.0830  0.1449 -0.0167
24746W        W44280   0.272  17.445  13.270  0.1076  0.2843  0.2624
24747W        W44281   9.622   2.177  12.308 -0.1995  0.1416  0.0193
24748W        W44282  16.321  11.856  14.913  0.3074  0.1578  0.1308
24749W        W44283   3.718   2.778   0.194  0.2859 -0.0041 -0.1837
24750W        W44284   4.021   5.945   2.120 -0.0686  0.3888  0.1194
24751W        W44285  13.948   2.196   4.041 -0.2293 -0.0076 -0.0574
24752W        W44286   5.658   8.719  12.561 -0.2206  0.1879 -0.4162
24753W        W44287  14.712   1.894  16.774 -0.1402  0.1967  0.2539
24754W        W44288  10.101   2.262  13.681 -0.2998  0.0484 -0.2402
24755W        W44289   4.894   1.548  13.399 -0.0813 -0.1298 -0.1981
24756W        W44290  11.863  12.870  13.697 -0.1332  0.0417 -0.0182
24757W        W44291  10.575  10.252   3.074  0.0627 -0.3979  0.0862
24758W        W44292   3.522  15.016  12.144 -0.0219 -0.0275  0.0235
24759W        W44293   2.891   7.791  14.984  0.1737 -0.3136  0.2556
24760W        W44294   6.691   6.909  11.085 -0.2366  0.2580  0.0157
24761W        W44295  14.977   2.287   0.699 -0.0416  0.1409  0.3921
24762W        W44296   3.127  11.030  15.703  0.1449 -0.1411  0.2020
24763W        W44297  12.915   1.273  14.839 -0.2836 -0.0357  0.3076
24764W        W44298   6.513   7.847   1.056  0.0819  0.1223 -0.0588
24765W        W44299   8.202  16.267   4.870  0.0047 -0.2795  0.1455
24766W        W44300   9.809  12.281  15.435  0.0493 -0.1366 -0.3847
24767W        W44301  15.012  11.329   1.634 -0.1577  0.1536  0.1532
24768W        W44302   2.322   2.032  13.182 -0.3562 -0.1041 -0.3288
24769W        W44303  15.918   7.522   2.827  0.1809  0.0297  0.1864
24770W        W44304   7.850   4.863   0.524  0.3436 -0.5035 -0.0377
24771W        W44305   9.646  10.463  14.029 -0.4042 -0.0556  0.0867
24772W        W44306  10.298   2.551  13.251 -0.1078 -0.1054 -0.0616
24773W        W44307  12.330  12.687  13.618 -0.0155  0.2578  0.0249
24774W        W44308  10.683   7.601  14.963 -0.0784  0.1018 -0.0085
24775W        W44309  17.395   1.134  13.614 -0.0396 -0.0595  0.1392
24776W        W44310   2.729  14.014   0.528 -0.1543 -0.2438  0.3219
24777W        W44311  11.241   1.184  12.454 -0.2140 -0.0659 -0.3839
24778W        W44312  11.858   0.824  16.578  0.3721 -0.0814 -0.0235
24779W        W44313   6.189   8.895  14.588 -0.0280  0.1690 -0.0167
24780W        W44314   4.681   4.881  16.221 -0.1291  0.0654 -0.1784
24781W        W44315  12.312   6.757   0.415  0.1031 -0.0518 -0.1367
24782W        W44316  15.972   9.912   3.496  0.1268  0.2961 -0.0856
24783W        W44317   9.598   8.253  12.510  0.0701  0.1890 -0.2577
24784W        W44318   4.997   8.540   2.815  0.2757 -0.0391  0.3074
24785W        W44319  14.137  11.434   4.476  0.2250  0.0461 -0.1112
24786W        W44320  10.730   3.387   3.922 -0.1287  0.0108  0.1765
24787W        W44321   6.792   5.700  13.898  0.1435 -0.2513  0.0427
24788W        W44322  15.459  15.016   5.351  0.0723 -0.1220 -0.2629
24789W        W44323   1.666  11.642  15.256 -0.1046 -0.1708 -0.1032
24790W        W44324  14.414   4.818   1.418  0.0732 -0.3039  0.0959
24791W        W44325   8.561   2.980  12.657  0.1482  0.1629  0.1079
24792W        W44326   9.599   8.657  16.566 -0.1309  0.0620  0.1844
24793W        W44327   3.964   4.218  14.951  0.0123  0.2119 -0.0433
24794W        W44328   6.358  10.162  14.075  0.2021 -0.0776 -0.0805
24795W        W44329   8.145  16.533  14.822  0.1371 -0.0745 -0.2652
24796W        W44330  12.644  12.110   0.412  0.1557  0.0841 -0.1490
24797W        W44331  10.757  14.356   4.893 -0.0287  0.1048  0.1786
24798W        W44332   3.708  15.299  15.497 -0.0608 -0.0075  0.0560
24799W        W44333   3.481  12.776  15.090  0.1522  0.0592 -0.2677
24800W        W44334  12.129   7.483  11.913  0.1032 -0.0252  0.2509
24801W        W44335  15.365  11.874   4.556 -0.0563 -0.0141 -0.3299
24802W        W44336  16.700   4.946   2.338  0.1007  0.1600  0.0776
24803W        W44337  15.821   0.686  13.779  0.0661  0.4865  0.1918
24804W        W44338   8.941   1.913  13.178 -0.1888 -0.0653  0.0151
24805W        W44339  12.565   9.479   3.763 -0.0121  0.0000 -0.0639
24806W        W44340   9.928   1.663   1.398  0.1796  0.0299 -0.1565
24807W        W44341  14.683  12.463  16.979 -0.0812  0.3192  0.4266
24808W        W44342   8.219   4.289   4.141  0.0655  0.0892 -0.1318
24809W        W44343  16.187  14.766   0.334  0.1163  0.0268  0.0784
24810W        W44344   1.754  10.149   0.364  0.1156 -0.0962 -0.2096
24811W        W44345   5.214   8.593  16.915  0.0400 -0.0750 -0.2545
24812W        W44346  14.915  15.494   4.626  0.3391  0.0330  0.1311
24813W        W44347  14.282  17.571   1.007 -0.2109 -0.0561  0.2240
24814W        W44348   7.712   4.171  15.624 -0.2326  0.1145 -0.1668
24815W        W44349  10.409  17.488   2.757  0.2499 -0.2823 -0.0187
24816W        W44350   3.788  14.330   2.166 -0.0430 -0.2726  0.2784
24817W        W44351   5.758   9.785  13.464 -0.1430 -0.1899 -0.0051
24818W        W44352  15.846  14.506  16.383 -0.2060 -0.0388  0.2964
24819W        W44353  15.029   8.539  15.342 -0.0298  0.0500 -0.0102
24820W        W44354   5.295  13.114   0.981 -0.0691 -0.0838  0.1741
24821W        W44355   4.183  12.197   1.276  0.0068 -0.1326 -0.2524
24822W        W44356  17.573  17.314   3.795 -0.0799  0.0866  0.1920
24823W        W44357  12.289   2.876   2.773 -0.0548  0.0098  0.1451
24824W        W44358   4.644  13.896  15.001 -0.0727  0.0789  0.1004
24825W        W44359  13.074   9.291  16.374 -0.2117 -0.0861  0.1709
24826W        W44360   8.187  13.993  16.378 -0.0607 -0.2327  0.0163
24827W        W44361   4.515  13.625  11.687  0.0194  0.1803 -0.4531
24828W        W44362   1.493  17.398   0.242 -0.0329  0.2250  0.0464
24829W        W44363  14.521   5.573   2.170 -0.1877 -0.4102 -0.3888
24830W        W44364  10.186   9.628  13.341 -0.2246  0.4011  0.1651
24831W        W44365  10.812  14.749   3.324  0.0268  0.2365 -0.1588
24832W        W44366   1.447  16.345   2.591  0.1902  0.1203  0.2724
24833W        W44367   6.946   7.065   3.823  0.1562 -0.0178  0.0847
24834W        W44368  10.395   8.606   1.557 -0.0527 -0.2078  0.2000
24835W        W44369   3.092   2.627   1.838 -0.0222 -0.1246 -0.0275
24836W        W44370   5.768  10.225   2.590  0.0874  0.0094  0.1688
24837W        W44371   4.234  14.516  15.996  0.1493 -0.1103 -0.1836
24838W        W44372   0.828   0.050   5.080  0.1640  0.0600 -0.2154
24839W        W44373  12.984   7.269  14.501 -0.3472  0.1623  0.1777
24840W        W44374   3.020   5.926  15.796 -0.1828  0.0420  0.1919
24841W        W44375  10.433   4.016  12.692 -0.0023  0.1223 -0.0346
24842W        W44376   2.456   7.525   3.084  0.1405  0.0611  0.0115
24843W        W44377   8.653   0.155  13.060 -0.0048 -0.2905 -0.1524
24844W        W44378  10.073  10.624   0.469 -0.1699 -0.3088 -0.0490
24845W        W44379   9.240  11.990   2.801 -0.0671  0.0641  0.1449
24846W        W44380   9.617  14.901   3.525 -0.2207  0.2664 -0.1125
24847W        W44381   2.325  17.568   1.956 -0.2359  0.0339 -0.2454
24848W        W44382   9.640  10.657  14.752 -0.2248  0.1079 -0.2013
24849W        W44383  11.808   3.683   0.098  0.1921  0.2229  0.1164
24850W        W44384  17.464  11.010  16.159 -0.2587  0.0340 -0.1525
24851W        W44385   6.564  12.703  13.998 -0.2684 -0.1355 -0.1467
24852W        W44386  10.054   1.419  16.566  0.1816  0.1889  0.2493
24853W        W44387   9.669   7.542  12.613  0.1380 -0.1798 -0.0350
24854W        W44388   3.521  16.222  16.285 -0.1918  0.1688  0.1668
24855W        W44389   3.724  16.529   5.981  0.2209 -0.0469  0.0413
24856W        W44390  16.367   6.075  14.904  0.0888 -0.2669  0.0495
24857W        W44391  11.056   5.902  14.364 -0.1272 -0.0512 -0.0926
24858W        W44392   1.296   6.072  14.461 -0.0233 -0.2299 -0.4679
24859W        W44393  10.797  10.433  14.866  0.0809 -0.1842  0.1816
24860W        W44394  13.697   2.252   1.637 -0.0142  0.0090  0.2323
24861W        W44395  14.525  10.323   1.565  0.0633  0.0182  0.0618
24862W        W44396  11.010   1.671  13.501 -0.0790  0.1251  0.0130
24863W        W44397   7.644  11.151   3.532  0.2232 -0.2861  0.2764
24864W        W44398   0.933   7.447  16.135 -0.1475 -0.0014 -0.0621
24865W        W44399   0.859  15.070  15.542  0.0675 -0.2579  0.0386
24866W        W44400   5.760  15.876  12.290 -0.0637  0.0234  0.0567
24867W        W44401  15.999   8.087   1.707 -0.1804 -0.0529 -0.0852
24868W        W44402  14.563   4.656  15.069  0.0880  0.1534 -0.0170
24869W        W44403   6.931  12.337   2.286 -0.0034  0.1455  0.0890
24870W        W44404  11.885  14.665  13.835 -0.1994  0.0397  0.0156
24871W        W44405   0.190   8.615  13.911 -0.0200 -0.1405  0.1493
24872W        W44406   8.968   2.359  13.027 -0.4453  0.0870  0.2155
24873W        W44407   2.952   4.613  13.661  0.0244 -0.1588 -0.0968
24874W        W44408  10.619   7.993  15.905 -0.0620  0.0052 -0.1096
24875W        W44409  15.738  14.947  12.770  0.1840 -0.2333 -0.1757
24876W        W44410   7.137   3.258  12.854 -0.0192  0.2195  0.2217
24877W        W44411   6.373   1.637   3.896 -0.0205  0.1661  0.0303
24878W        W44412   4.539   7.090   5.457 -0.0295  0.3504  0.0556
24879W        W44413   8.631   5.851   1.673  0.0102 -0.0000 -0.1472
24880W        W44414   6.212   4.138  13.294  0.2338 -0.0381  0.1048
24881W        W44415   5.873   8.010  14.694 -0.3045 -0.3327  0.1663
24882W        W44416  16.183   8.599  16.003 -0.2405 -0.1813  0.0351
24883W        W44417  16.494   5.513   1.150 -0.0625 -0.1103  0.1030
24884W        W44418  14.071   5.309  15.495 -0.0921 -0.1409  0.1519
24885W        W44419  16.381  13.459   1.505 -0.0168 -0.5652 -0.1108
24886W        W44420   4.155   4.929   4.547 -0.0880  0.1144  0.0161
24887W        W44421   4.699  10.445   1.355  0.3605  0.2632 -0.3858
24888W        W44422  10.624   6.164  12.384  0.2350 -0.1904  0.0043
24889W        W44423   7.519   5.715  14.055 -0.1474  0.2117 -0.1704
24890W        W44424   8.601   3.417  16.082 -0.0042 -0.0466  0.1700
24891W        W44425   6.196  11.432  15.378 -0.1509 -0.1624 -0.2596
24892W        W44426  10.559  11.269  14.516  0.1401  0.5906  0.0801
24893W        W44427   7.899   6.630  17.059 -0.0025 -0.1793 -0.1319
24894W        W44428  14.362  14.749   2.485 -0.1884  0.2136  0.0840
24895W        W44429  13.507  12.463   4.785 -0.0570 -0.2593  0.1490
24896W        W44430  13.010   4.211  17.059 -0.1006 -0.0883 -0.2654
24897W        W44431  13.248   4.833  14.597  0.1417  0.0276  0.4071
24898W        W44432   4.906   3.192   1.802  0.1949  0.1586 -0.0595
24899W        W44433  10.733  14.936   0.214  0.0590  0.0869  0.4777
24900W        W44434   1.410   1.493   3.865  0.0413  0.0984 -0.2396
24901W        W44435   3.845  12.401  12.553 -0.3198 -0.0444  0.3596
24902W        W44436   8.888   6.329   0.796 -0.2523 -0.2252 -0.0527
24903W        W44437   2.776   0.116   1.899 -0.1417 -0.0327 -0.1426
24904W        W44438  15.957   2.319   1.331 -0.0033  0.0621 -0.1232
24905W        W44439   7.773  14.302  14.024 -0.1458  0.4617  0.0680
24906W        W44440  17.650   6.133  13.687  0.0985 -0.1244  0.2864
24907W        W44441   4.907   8.341   1.864  0.1881 -0.0193  0.1446
24908W        W44442   4.965   3.706  13.074  0.1383  0.3506 -0.2177
24909W        W44443   1.048  14.457   2.664  0.2315  0.2761  0.0473
24910W        W44444  10.106   7.759   2.032 -0.1712  0.2824  0.2410
24911W        W44445   6.676  15.992  15.111  0.0452 -0.0577 -0.1452
24912W        W44446  13.905   8.226  16.375  0.0626  0.0854 -0.4698
24913W        W44447   9.947  10.089  13.574  0.0457 -0.1672 -0.1317
24914W        W44448  13.917  10.348   1.550  0.1643 -0.1218  0.2644
24915W        W44449   8.625  11.476   2.776  0.0310 -0.0814 -0.4935
24916W        W44450  10.768  14.139   2.083 -0.3664 -0.0930  0.1464
24917W        W44451  15.779   3.455   3.551 -0.1102  0.0829 -0.4336
24918W        W44452   8.556  12.313  12.054 -0.1634 -0.1750  0.1137
24919W        W44453   8.111  13.577  15.496  0.5488  0.1463  0.0881
24920W        W44454   3.754   3.594   4.593 -0.2147 -0.1217  0.1716
24921W        W44455  17.549   5.763   1.605 -0.0677  0.3872  0.1754
24922W        W44456   5.726  10.754   2.450  0.0865 -0.2041 -0.1047
24923W        W44457   2.013   7.118  14.756  0.1353 -0.0055  0.2018
24924W        W44458  11.384  13.392  12.474  0.3092 -0.0573  0.0142
24925W        W44459  12.577   7.183  16.774  0.2412  0.0926  0.0422
24926W        W44460   1.417  15.126   4.225 -0.0236 -0.1580  0.3344
24927W        W44461   8.348   6.674  14.319 -0.1964 -0.0377  0.0495
24928W        W44462  12.512  10.548  12.789 -0.1597 -0.2878  0.3809
24929W        W44463   3.925  12.885   3.133  0.3440  0.2431  0.1455
24930W        W44464   4.511   1.804   3.331 -0.1383  0.0440 -0.1824
24931W        W44465   8.259  14.370   0.020 -0.0056 -0.3397 -0.0792
24932W        W44466  14.205   8.813  12.088 -0.0734 -0.0566  0.3930
24933W        W44467   0.808  10.324   2.842  0.2347  0.1428  0.2149
24934W        W44468  14.846   0.437  13.976  0.2319  0.1434  0.1156
24935W        W44469   2.366   8.415  15.997  0.1589 -0.1766 -0.0313
24936W        W44470   6.575   9.818   1.773 -0.0986  0.1458 -0.1409
24937W        W44471  14.288   2.896  15.604  0.0379 -0.3510  0.0328
24938W        W44472   3.031   3.443  12.700  0.1557 -0.0522 -0.0251
24939W        W44473   7.976   4.868   3.513  0.0469 -0.2721 -0.2266
24940W        W44474  13.874   5.071   1.410  0.0825  0.0745 -0.0484
24941W        W44475  17.522  14.162  11.970  0.0838 -0.0939  0.1073
24942W        W44476  10.124   3.309   0.358 -0.2036  0.2728 -0.0466
24943W        W44477   5.558  13.944  12.612  0.0449  0.1946  0.0723
24944W        W44478   5.579   5.668  12.364  0.1245 -0.0149  0.1373
24945W        W44479  14.829  12.016   1.360 -0.0036  0.0953  0.0877
24946W        W44480   3.260  10.347   3.269 -0.2840 -0.1945  0.0969
24947W        W44481  14.278   7.256  16.945 -0.1476  0.2137  0.3813
24948W        W44482   8.189   8.768   1.932 -0.0609  0.2393 -0.1020
24949W        W44483  17.191   6.082  13.989  0.0607  0.1394 -0.1366
24950W        W44484  14.014  17.624   5.518  0.1096  0.2000 -0.3938
24951W        W44485   5.802   6.035  13.154 -0.2005  0.1650  0.0077
24952W        W44486  13.761   0.877   2.045  0.0782 -0.1065 -0.1022
24953W        W44487   3.413  10.259  14.710  0.1523  0.1056  0.1266
24954W        W44488  12.586   3.652  16.276  0.0375 -0.0315  0.1792
24955W        W44489   9.636   5.000  16.510 -0.0529 -0.1170  0.3489
24956W        W44490  16.068   2.669   2.582  0.1428 -0.0228 -0.3211
24957W        W44491   1.577  16.592   3.418 -0.1111 -0.3477  0.1067
24958W        W44492   5.354   8.189   4.399 -0.1746 -0.0797 -0.1363
24959W        W44493  10.160  14.779  14.004 -0.1079 -0.1572  0.2443
24960W        W44494  15.098   8.840   3.161 -0.0098 -0.2134 -0.0088
24961W        W44495  12.079  14.024   1.399  0.0776  0.1576 -0.0657
24962W        W44496   4.686   0.285  14.336 -0.2074 -0.1918  0.1479
24963W        W44497   5.352   0.681   5.339  0.1459  0.2416  0.0163
24964W        W44498   1.508  15.611   3.297  0.0394  0.0297  0.1300
24965W        W44499   7.522   4.098   1.579  0.0742  0.1048 -0.0480
24966W        W44500   3.887  11.195  16.205 -0.2233 -0.0675  0.0945
24967W        W44501   3.004  10.571   2.934 -0.0287  0.1391  0.0901
24968W        W44502   4.866   8.567  15.612 -0.0362 -0.1596 -0.1859
24969W        W44503   8.445  12.780   3.994  0.3536  0.0458 -0.0802
24970W        W44504  15.927  11.189  15.228 -0.1280 -0.0365  0.0312
24971W        W44505   2.911  13.088  12.598  0.2131  0.0302 -0.0718
24972W        W44506  16.909   8.024  15.926 -0.0739 -0.1031 -0.1574
24973W        W44507   9.550   9.488   1.213 -0.0106 -0.0052 -0.1384
24974W        W44508   0.263  11.625   1.062  0.0076 -0.0540  0.1600
24975W        W44509   7.098   8.578   4.762  0.0516  0.3788 -0.0495
24976W        W44510   5.020  10.659  15.598 -0.2483 -0.0563 -0.0701
24977W        W44511   3.544   2.185   4.972  0.0209  0.1701 -0.1592
24978W        W44512  13.135  14.205   0.648  0.1912  0.0160  0.1171
24979W        W44513   6.249  13.935   3.530 -0.1223 -0.0216 -0.1438
24980W        W44514  13.807  16.741   0.968 -0.1732  0.0357 -0.1989
24981W        W44515  11.998  16.529   4.072  0.2246  0.1299 -0.1181
24982W        W44516  16.787  12.638   0.944  0.1542 -0.0243 -0.2485
24983W        W44517   5.982   3.069   2.701  0.0338  0.1367 -0.1830
24984W        W44518   2.830   9.579  15.206  0.0092 -0.1904 -0.2652
24985W        W44519  10.351  16.953  12.343 -0.0125  0.2076 -0.2554
24986W        W44520  15.909   8.438  15.559  0.1142  0.2106  0.3303
24987W        W44521   9.533  11.014   1.882  0.1601 -0.1391 -0.0911
24988W        W44522   3.422  10.050   1.594 -0.1032  0.1626 -0.3414
24989W        W44523  16.447  12.169   2.531 -0.2138  0.0394  0.0590
24990W        W44524  16.123   0.024  17.013  0.3046 -0.0622  0.3458
24991W        W44525  16.094  11.190   1.402 -0.0068  0.0150 -0.3775
24992W        W44526  11.236   1.167   4.589 -0.2376  0.2634  0.1331
24993W        W44527  16.949   7.727  14.893 -0.4044 -0.0273 -0.0904
24994W        W44528  12.439  15.954   1.435  0.2904  0.2513  0.3265
24995W        W44529   7.583  12.713   1.084  0.3451 -0.2013  0.1751
24996W        W44530  17.391  12.564  17.012 -0.0979  0.2985 -0.2100
24997W        W44531  16.012   1.201   3.758 -0.1239  0.2419 -0.0161
24998W        W44532   1.020  12.810  15.497 -0.2970 -0.0282  0.0296
24999W        W44533   4.931   3.381   2.271 -0.0845 -0.4849 -0.1164
25000W        W44534  11.954   7.521  15.639  0.2561  0.0829  0.2245
25001W        W44535  16.680  10.639   1.015  0.1219  0.1857  0.0227
25002W        W44536  11.434   1.174   2.669  0.1367  0.1676 -0.0809
25003W        W44537   0.214   1.953   5.468 -0.0532  0.5242 -0.0922
25004W        W44538  10.585   8.813  16.312  0.1351  0.0714 -0.0606
25005W        W44539   5.806  15.540   2.950  0.0324  0.2732  0.1628
25006W        W44540   2.657  12.132  15.576  0.1376 -0.0830 -0.0062
25007W        W44541  11.142  11.384  13.573  0.2223 -0.1771  0.3596
25008W        W44542   5.530   6.421  12.763 -0.0808 -0.0741  0.1059
25009W        W44543  13.943   7.399  16.007 -0.0129 -0.0105 -0.1053
25010W        W44544  11.129  10.411  12.171 -0.0682 -0.1735 -0.2484
25011W        W44545  10.601  12.993  13.908  0.1217  0.0069  0.0479
25012W        W44546  11.135  14.329  14.034 -0.0739  0.0818 -0.0928
25013W        W44547  10.903   4.224   1.512 -0.1282 -0.2209 -0.3289
25014W        W44548  14.779   7.557  15.548 -0.1686 -0.0173 -0.3080
25015W        W44549  13.854  16.310   1.216  0.3222 -0.1821  0.0735
25016W        W44550  12.889   9.198   0.791 -0.1584 -0.0958  0.0324
25017W        W44551   8.649   7.661   2.676 -0.0791  0.1684  0.1542
25018W        W44552   5.665  11.182   0.803 -0.0525 -0.1699  0.1792
25019W        W44553   1.565   7.634  15.606 -0.2660 -0.0591  0.0391
25020W        W44554  10.856  11.352  15.900 -0.2479 -0.2073  0.0786
25021W        W44555  15.861   0.421  12.359  0.0679 -0.1514 -0.2173
25022W        W44556   9.374  12.908  15.943  0.2787  0.0850 -0.2902
25023W        W44557   6.004   7.642  15.160 -0.1109 -0.0295  0.2084
25024W        W44558   0.996  15.560  15.350  0.0622  0.1513  0.0268
25025W        W44559   6.856  15.210   0.811  0.0116 -0.0494 -0.3099
25026W        W44560   7.915   6.441  14.163 -0.1394  0.2424  0.1389
25027W        W44561  17.514  15.169   1.135 -0.1611 -0.0987  0.0283
25028W        W44562   2.143   3.417  14.141  0.1198  0.1348  0.3542
25029W        W44563   7.506  14.013  11.826 -0.2314 -0.1241 -0.1237
25030W        W44564   6.337   0.968  15.848 -0.0613  0.0128  0.0013
25031W        W44565  14.285   4.790   1.978  0.0270 -0.2382 -0.1194
25032W        W44566  15.000  16.506  13.275 -0.0598 -0.0940 -0.1032
25033W        W44567   4.763   9.585   0.222  0.0900 -0.2624 -0.1220
25034W        W44568  11.522   2.300   2.803 -0.0292 -0.1105  0.0121
25035W        W44569   3.632   9.566  14.000 -0.0409 -0.1810 -0.0448
25036W        W44570   7.573  10.874  14.749 -0.0586  0.2978 -0.0515
25037W        W44571   2.247  16.979   5.415 -0.1107 -0.2274  0.1463
25038W        W44572   1.444  16.163   2.129 -0.4249 -0.1822 -0.1363
25039W        W44573   0.266   3.092  14.457 -0.1428  0.0179  0.0825
25040W        W44574  16.066   5.640  13.918 -0.0905  0.2056 -0.0584
25041W        W44575   5.731   2.919  16.986 -0.0272 -0.3701 -0.3683
25042W        W44576  12.271  10.409   0.297  0.1936 -0.2707 -0.2916
25043W        W44577  10.480  15.936  15.985 -0.2799  0.2941  0.1751
25044W        W44578   9.397   9.712   1.754 -0.2095 -0.2718  0.2673
25045W        W44579  11.020   5.258  12.812 -0.1250 -0.1628 -0.5215
25046W        W44580  15.624   7.747  14.761  0.1376  0.0352  0.2771
25047W        W44581  12.167  14.663   0.706  0.0670 -0.2078 -0.1284
25048W        W44582   5.496   3.673   0.067  0.0911  0.0662 -0.0527
25049W        W44583   9.342  12.613   3.234  0.0044 -0.2343  0.0511
25050W        W44584  16.756   7.321  12.148 -0.0339  0.2016 -0.0776
25051W        W44585   9.929  17.040   4.165 -0.1758 -0.0059  0.0827
25052W        W44586   9.275   2.803  15.125 -0.1732 -0.0005  0.0431
25053W        W44587   3.931   0.110   1.832  0.1450 -0.0964  0.3285
25054W        W44588  16.829  15.936   1.643 -0.0098  0.1527  0.2556
25055W        W44589   9.980   8.731  13.074  0.0176  0.0789  0.2395
25056W        W44590  11.151  13.930  16.413  0.0231 -0.0551  0.0283
25057W        W44591  17.035  11.472   3.021 -0.1953 -0.2531 -0.1295
25058W        W44592   9.748   3.385  16.373 -0.0962 -0.0912  0.0264
25059W        W44593   8.864   4.698  15.605 -0.1912  0.1329  0.0735
25060W        W44594  13.992   5.812   2.962  0.2303 -0.1254  0.2553
25061W        W44595   1.093   6.714  16.408 -0.0552 -0.0416 -0.2880
25062W        W44596   1.635   0.956  15.138 -0.0176  0.0408  0.1877
25063W        W44597  14.176  14.354   5.179 -0.2365 -0.1360 -0.1630
25064W        W44598  16.882  16.557   2.996 -0.4509  0.0398 -0.0831
25065W        W44599   9.183  11.045  12.934 -0.3980  0.1456  0.2884
25066W        W44600  17.193   7.383  17.024 -0.0624  0.0052 -0.0235
25067W        W44601  10.158   8.933  14.035 -0.3214  0.1398 -0.1793
25068W        W44602   8.686   8.254   1.381 -0.0311  0.1775 -0.0276
25069W        W44603   8.071  13.981  16.880  0.2730 -0.1205 -0.1197
25070W        W44604   5.800   0.906   5.098  0.3553  0.1314  0.1541
25071W        W44605   1.794  14.440  14.961 -0.2022  0.0494  0.1378
25072W        W44606   3.062   3.712  13.857 -0.2618  0.0749 -0.0453
25073W        W44607  15.895  12.873   1.733 -0.0451 -0.0727  0.1599
25074W        W44608   3.167  16.052  15.369  0.3011  0.1695 -0.3013
25075W        W44609   0.162  16.326   2.422  0.0204 -0.0999  0.0746
25076W        W44610   5.139   6.849   1.710  0.1194 -0.1609 -0.2048
25077W        W44611   9.086   1.352  15.859  0.1090  0.1080 -0.0125
25078W        W44612   4.362  15.363  11.841 -0.1010 -0.1331 -0.1236
25079W        W44613   4.049   2.398   4.801  0.0743 -0.0475 -0.0948
25080W        W44614   4.179   9.204  13.318 -0.0151 -0.1609 -0.2159
25081W        W44615   8.230   8.980   0.553  0.1519 -0.0038 -0.0873
25082W        W44616  13.837   6.887   2.942 -0.0914  0.0246  0.0293
25083W        W44617   5.379   4.183   2.670  0.1757  0.3104  0.0673
25084W        W44618   9.445  12.022  16.111 -0.1689 -0.0320 -0.1951
25085W        W44619  12.965   6.179  13.454 -0.1242  0.2790 -0.2654
25086W        W44620  14.085   6.825   2.532  0.0436  0.0582 -0.3163
25087W        W44621   9.688   1.364   4.981  0.4052  0.0100 -0.7362
25088W        W44622  13.727   6.249  13.721  0.2020  0.0967  0.0239
25089W        W44623   5.080   6.551  12.241 -0.0031  0.0714 -0.1948
25090W        W44624  17.256   5.339  12.568  0.0111  0.1835 -0.0519
25091W        W44625  16.897  11.811   5.066 -0.2477  0.3122 -0.1502
25092W        W44626   0.720  11.325  16.795 -0.0697 -0.0009  0.0326
25093W        W44627  11.057  14.754   4.841  0.1159  0.1945 -0.6497
25094W        W44628   8.627   6.995   2.326  0.0038  0.2528 -0.0545
25095W        W44629   7.643   8.212  15.489  0.2324 -0.0687 -0.1338
25096W        W44630  10.216   4.870  11.889 -0.0331 -0.1160 -0.0935
25097W        W44631   9.707   1.646   0.779  0.2273 -0.0521 -0.0865
25098W        W44632   8.983   3.493   0.988 -0.0772 -0.0934 -0.0806
25099W        W44633  11.758  17.276  14.966  0.1620 -0.0945 -0.0882
25100W        W44634  13.681   5.993   4.972  0.0582 -0.0450 -0.0010
25101W        W44635   6.419  12.654   3.333 -0.0635  0.0790  0.2593
25102W        W44636  11.379  13.248  11.989  0.1033 -0.0678  0.1545
25103W        W44637  14.532  13.913  14.704  0.1198 -0.4880 -0.0817
25104W        W44638  13.783  12.722  12.490 -0.2198 -0.0814  0.0921
25105W        W44639  17.473  15.707   2.984 -0.0134  0.2117 -0.4256
25106W        W44640  16.817  13.263   5.981 -0.1341 -0.3201 -0.0123
25107W        W44641   1.750   2.675   5.131 -0.0872 -0.3004  0.2064
25108W        W44642   8.187  16.719  14.038 -0.3239 -0.2147 -0.1501
25109W        W44643  15.056   8.805  16.363 -0.1596  0.2742  0.3392
25110W        W44644  10.904   1.745  12.989  0.1735  0.0881  0.2335
25111W        W44645   1.612  14.716  12.872 -0.1950  0.0557 -0.0213
25112W        W44646  12.595  16.903   4.075 -0.3657 -0.3505 -0.0211
25113W        W44647   8.657   3.359   1.793 -0.1431 -0.1477 -0.2328
25114W        W44648  12.311  16.581  13.607  0.1663  0.1158  0.2289
25115W        W44649   0.039   1.204  14.684  0.1419 -0.2272 -0.0814
25116W        W44650   3.195   8.944  13.945  0.4828  0.1508 -0.4129
25117W        W44651   2.782   0.945   1.389  0.2398  0.0776  0.0699
25118W        W44652  12.597   9.436   3.011  0.0532 -0.0521 -0.0262
25119W        W44653  13.370  14.313  14.242 -0.0624  0.2323  0.1599
25120W        W44654  15.788  17.284  14.800  0.0928 -0.0731  0.1564
25121W        W44655  10.449  15.600   0.714  0.1030  0.2697 -0.2331
25122W        W44656   8.152  17.448   0.241  0.1124  0.0062 -0.0186
25123W        W44657   0.382   3.291   2.052  0.2180  0.0636 -0.0059
25124W        W44658   2.663  14.740   3.885  0.3029 -0.1435 -0.0633
25125W        W44659   1.901   4.526  13.509 -0.2783  0.1337 -0.5595
25126W        W44660  12.620  17.245   2.432 -0.2600  0.0112  0.0269
25127W        W44661   9.841   0.828   1.750 -0.2680 -0.2196  0.0453
25128W        W44662   3.185   8.430   4.311  0.1193  0.3119  0.0156
25129W        W44663  10.746   7.778   2.091 -0.0743 -0.0833 -0.1978
25130W        W44664  12.313  12.116  14.458  0.1146 -0.0316 -0.0538
25131W        W44665  15.255   5.744  14.618  0.0564 -0.0058  0.1091
25132W        W44666  15.259   0.240   2.286 -0.1811 -0.2042  0.0289
25133W        W44667   5.635   1.070   2.685 -0.1028 -0.0231 -0.1944
25134W        W44668   6.707  14.317   3.454 -0.0365  0.2045  0.0878
25135W        W44669   3.838   4.059  15.438  0.0249 -0.1126 -0.0999
25136W        W44670  16.195  16.116  13.535 -0.1459 -0.0412 -0.1771
25137W        W44671   9.513  15.018  16.967 -0.5227 -0.1138  0.1151
25138W        W44672   8.440   0.169  16.112  0.1215 -0.0444  0.1250
25139W        W44673   8.111  13.151   3.538  0.0245  0.0103  0.1679
25140W        W44674  15.631  16.971  16.130  0.0159  0.0226  0.0715
25141W        W44675   4.110  14.326  12.599  0.2662  0.0023 -0.1208
25142W        W44676  16.598  17.162   4.874 -0.3842 -0.3064 -0.0514
25143W        W44677   9.628  14.490   3.789 -0.0122  0.0458 -0.0924
25144W        W44678   0.907   7.458   5.203 -0.1365  0.1620 -0.0281
25145W        W44679   5.067   9.945  14.031  0.0789  0.6769 -0.0658
25146W        W44680   4.367   0.518  16.007  0.0415  0.1528 -0.0756
25147W        W44681  14.095  10.043  16.610 -0.0417 -0.0593 -0.3703
25148W        W44682   2.998  12.659   0.155 -0.0985  0.0817 -0.4309
25149W        W44683  10.580  10.180  13.400 -0.0903 -0.0677 -0.3790
25150W        W44684  15.885   0.545   0.946 -0.0410 -0.1273 -0.1408
25151W        W44685   1.913  10.900  15.328  0.0073 -0.3055 -0.2249
25152W        W44686  13.567   0.990   3.015  0.1902  0.2424 -0.1152
25153W        W44687   8.813   1.812   1.406  0.3062 -0.2084  0.3687
25154W        W44688  13.113  17.551  14.522  0.4347 -0.1547 -0.1613
25155W        W44689   9.860  15.186   2.516 -0.2396 -0.2021  0.2207
25156W        W44690   2.112   5.243  16.976  0.1958 -0.1252 -0.1280
25157W        W44691   1.856   0.695  13.559  0.1681  0.0210  0.0402
25158W        W44692  13.342   8.049  16.151 -0.1883  0.0563 -0.0621
25159W        W44693   6.242   7.158  12.688 -0.2361  0.1346 -0.0919
25160W        W44694  16.133  14.380   2.742  0.1022 -0.0495 -0.1052
25161W        W44695  13.374  11.619   2.982  0.1658  0.0047  0.1185
25162W        W44696   8.684   1.255  15.476  0.0043 -0.3027 -0.0969
25163W        W44697  10.371  10.260   0.839 -0.2113  0.0288  0.2773
25164W        W44698  17.652   1.163   0.939  0.1518 -0.1868  0.1917
25165W        W44699  14.721   3.655   4.900 -0.1000  0.3589  0.0214
25166W        W44700   2.959   0.098   4.507 -0.2043 -0.2576  0.3534
25167W        W44701   3.498   8.140   4.565  0.0929  0.0948 -0.5024
25168W        W44702   3.919   1.789  15.925  0.2370  0.3653  0.2037
25169W        W44703  12.643  12.513   1.950  0.0428  0.2719 -0.2222
25170W        W44704   2.090   9.304  15.736 -0.0107  0.1849  0.2706
25171W        W44705  16.969   1.997  12.201 -0.0324 -0.1373  0.1493
25172W        W44706   5.240   7.783  13.532 -0.0653  0.2130 -0.1053
25173W        W44707  15.931  10.073   0.136 -0.0665  0.0688 -0.1538
25174W        W44708  10.237   2.271  15.061  0.0564  0.3354 -0.0718
25175W        W44709  10.254   8.221   4.374 -0.0695  0.1103  0.3133
25176W        W44710  17.418   1.113   1.437  0.2715  0.0718 -0.2030
25177W        W44711  14.925  12.724  13.942  0.2091  0.1237 -0.1766
25178W        W44712   3.461  10.425  13.828 -0.1116 -0.3859  0.0329
25179W        W44713   3.675  12.138   2.292 -0.2350 -0.0547  0.0128
25180W        W44714   0.662   3.885   2.285 -0.0395  0.1079 -0.0650
25181W        W44715   4.292   3.234  14.707  0.0333 -0.2593  0.0409
25182W        W44716   4.377   9.059   4.410 -0.0606  0.0964 -0.0398
25183W        W44717   7.645   2.313  14.177 -0.1017  0.1912 -0.1620
25184W        W44718  13.395   3.550   5.002  0.0391  0.2420  0.0210
25185W        W44719  15.760   7.964   0.647 -0.2281 -0.0477 -0.2458
25186W        W44720  14.834  10.169   0.855 -0.0273  0.3103 -0.1445
25187W        W44721  11.253   5.484  16.288 -0.0103  0.1424  0.1887
25188W        W44722   4.522  14.659  15.664 -0.3663 -0.0024  0.0573
25189W        W44723   7.700   7.574   2.508 -0.1978  0.1755 -0.1390
25190W        W44724   6.751  16.064   1.409 -0.2658  0.0349 -0.0931
25191W        W44725  10.378   7.642   2.406  0.3011  0.0188 -0.1267
25192W        W44726   4.254   8.946  16.260  0.2195 -0.2338  0.0599
25193W        W44727   2.707   0.638   4.690 -0.1232 -0.0805 -0.0774
25194W        W44728  14.163  11.017  13.505  0.2075  0.0197  0.5360
25195W        W44729   9.630   6.388  11.936 -0.2226  0.3252 -0.0796
25196W        W44730   7.262   2.080  15.005 -0.0406 -0.0503 -0.1537
25197W        W44731   7.892   0.992  13.489 -0.1454 -0.0745 -0.2075
25198W        W44732   0.281   4.462  14.856  0.2157  0.0577 -0.2799
25199W        W44733  11.844   7.868  16.814 -0.1001 -0.1517 -0.2419
25200W        W44734  16.573   5.709  14.004 -0.1827  0.1540 -0.0022
25201W        W44735   4.989  12.677   4.894  0.0206 -0.0835 -0.2131
25202W        W44736   2.730   0.509   5.249  0.2357 -0.1463  0.1093
25203W        W44737  14.033   7.849  16.741  0.0354  0.0052 -0.1441
25204W        W44738  13.359  16.532   0.242  0.1377  0.0809 -0.1328
25205W        W44739  15.332  10.515   4.581  0.0446  0.0694 -0.0533
25206W        W44740  13.582  13.467  14.598  0.1176  0.0126 -0.0688
25207W        W44741  12.086   6.990  12.167 -0.1522 -0.2032  0.0730
25208W        W44742  12.978   5.167   0.562 -0.0351 -0.1114 -0.1510
25209W        W44743   9.221   4.011  16.559 -0.2752 -0.0518 -0.1679
25210W        W44744  10.152   7.402  12.626  0.1257 -0.0246 -0.1763
25211W        W44745  10.675   3.321   3.382  0.0002  0.0794 -0.0661
25212W        W44746  16.132  11.783  13.935 -0.1220  0.2744 -0.0543
25213W        W44747  10.519   7.901  16.894 -0.1336  0.3838  0.1492
25214W        W44748   2.805   0.366   2.953  0.0320  0.2246 -0.1184
25215W        W44749  11.801   4.280   0.690 -0.1066  0.1651  0.2566
25216W        W44750   4.529   9.570   1.006 -0.2479 -0.0657 -0.0493
25217W        W44751   2.740  13.629  14.898  0.0325 -0.0127  0.0874
25218W        W44752   9.528   7.459  16.980 -0.0352 -0.1075 -0.1706
25219W        W44753  12.020   2.430  13.988 -0.3936 -0.0426 -0.2551
25220W        W44754  15.694   6.757  16.514 -0.1274 -0.0891 -0.1154
25221W        W44755  11.235   8.956   4.935  0.1289  0.1461 -0.0283
25222W        W44756  14.439  11.298   3.130 -0.0589 -0.0200  0.0053
25223W        W44757  14.382   2.793   5.189 -0.0675  0.3189  0.0489
25224W        W44758  16.313   2.634  12.778 -0.1907 -0.1323 -0.2189
25225W        W44759  14.063  10.521  14.897 -0.0414 -0.2495  0.3227
25226W        W44760   0.398  14.884   3.213  0.0552  0.1700  0.3407
25227W        W44761   1.476   9.819  13.308  0.3008 -0.0113  0.2667
25228W        W44762   8.719  16.499   3.941 -0.0637 -0.2156 -0.2145
25229W        W44763   5.508  16.074  11.810  0.1930 -0.3794  0.0158
25230W        W44764  12.364   2.584  15.274  0.2061  0.0960 -0.1514
25231W        W44765   0.619   3.119  13.558  0.1529 -0.1138 -0.0725
25232W        W44766  13.396   2.987   0.577 -0.1727 -0.0430 -0.4603
25233W        W44767   3.814  12.677   0.822 -0.0358 -0.0308  0.0122
25234W        W44768  16.061   1.067  13.550  0.0494  0.2082  0.2333
25235W        W44769   0.467  14.135  11.677 -0.0591 -0.3382 -0.0420
25236W        W44770  13.342   4.331  14.212 -0.0949  0.2018  0.0001
25237W        W44771   6.306   2.537  12.663 -0.0085 -0.0853  0.1146
25238W        W44772  17.359  11.104   3.134 -0.0619 -0.1323  0.3656
25239W        W44773   9.545   7.137   1.650 -0.1620 -0.0125 -0.1414
25240W        W44774   4.627   4.703  14.397  0.3911 -0.1309  0.1235
25241W        W44775  11.967   6.035  13.196  0.1320 -0.0921  0.1778
25242W        W44776   4.458   5.761  12.322 -0.3113 -0.1854 -0.0078
25243W        W44777  16.056  12.550   4.591 -0.0852 -0.0872  0.0232
25244W        W44778   7.899   7.491  12.767 -0.0118  0.1234 -0.2938
25245W        W44779   4.668   8.028   0.268 -0.3485  0.0673 -0.2612
25246W        W44780   3.136   7.269  12.713 -0.0690 -0.1109  0.0434
25247W        W44781   9.882  13.437  12.399 -0.0291  0.0121 -0.3906
25248W        W44782   8.504   1.754  12.449 -0.1931 -0.0621  0.2332
25249W        W44783  17.294  11.679  15.082  0.1323  0.0984  0.0069
25250W        W44784   1.412   1.396   2.552 -0.1770 -0.0182 -0.4489
25251W        W44785  11.669   5.544   2.315 -0.1720 -0.0119 -0.0315
25252W        W44786  11.269  17.549  15.530 -0.1273  0.1421  0.0914
25253W        W44787   0.807  14.427  13.731 -0.1274 -0.2819  0.0526
25254W        W44788   9.790   3.945   2.327  0.1293 -0.1047  0.2252
25255W        W44789   5.940   1.811   1.956  0.2643 -0.0161 -0.0340
25256W        W44790  12.795   1.752  16.044  0.1275  0.3469  0.2448
25257W        W44791   2.944   7.280  14.370 -0.0229 -0.0442 -0.4493
25258W        W44792   4.288  10.119   3.202  0.0288  0.0170 -0.0717
25259W        W44793   1.405   8.454  12.316  0.2169  0.1881  0.0828
25260W        W44794  12.026   7.220  11.423  0.1354  0.2435 -0.0542
25261W        W44795   4.116   7.510   2.503 -0.0985 -0.0019 -0.0389
25262W        W44796   7.933   9.908   3.884 -0.1106 -0.0174  0.2629
25263W        W44797  10.174   9.050  16.020  0.1029 -0.1021 -0.0057
25264W        W44798   5.228   2.084  13.557 -0.2540 -0.0858 -0.1195
25265W        W44799  12.502  13.393  12.244  0.0342  0.1583  0.1674
25266W        W44800   4.765   6.398   2.574  0.2754  0.2461  0.1777
25267W        W44801  17.373  11.588   2.526  0.0247 -0.1231 -0.0533
25268W        W44802   0.119   8.773  13.470 -0.3095  0.1890 -0.0414
25269W        W44803   9.952   8.688  15.230 -0.1119  0.0190 -0.1073
25270W        W44804   6.812  14.416   2.776 -0.2645 -0.2631  0.3890
25271W        W44805   1.427   9.274   0.045  0.1268  0.2106 -0.1733
25272W        W44806   1.565  14.929   0.466  0.2159  0.2924  0.1618
25273W        W44807  16.843  13.592  16.195  0.0952 -0.1281 -0.0929
25274W        W44808   3.609   7.187  12.742  0.1500  0.2673  0.2535
25275W        W44809  13.526   1.856   3.265  0.1611  0.0267  0.3721
25276W        W44810   2.767   5.508  14.424 -0.0498 -0.0148 -0.1413
25277W        W44811   5.498   7.333  16.334  0.1688  0.2230 -0.4747
25278W        W44812  11.251   4.142   3.058  0.2287  0.0416 -0.3556
25279W        W44813  15.960   1.625  14.269  0.2384 -0.0813  0.0435
25280W        W44814  12.646  14.487   0.642 -0.4401 -0.0777 -0.1297
25281W        W44815  17.151   3.208  15.544  0.0658  0.3110 -0.0091
25282W        W44816  15.788   9.333   3.988  0.1280  0.0285  0.0818
25283W        W44817  16.252  11.179   4.078  0.0424  0.0130 -0.0369
25284W        W44818   0.669  14.150   2.410 -0.0298 -0.1717 -0.1398
25285W        W44819   2.475   9.278   4.568 -0.0485 -0.0841 -0.1301
25286W        W44820   2.685   0.846   0.891  0.0068  0.1008 -0.2182
25287W        W44821  16.743   5.936   1.732  0.0350 -0.0076 -0.2100
25288W        W44822  16.838   0.832  16.136 -0.0898 -0.1370  0.0771
25289W        W44823   9.926  15.478  13.294 -0.2034 -0.0430 -0.0159
25290W        W44824   7.815   7.479  14.141 -0.0271  0.1111 -0.0649
25291W        W44825   5.552  14.776   3.400 -0.0494 -0.4392 -0.0488
25292W        W44826   6.318  11.027   4.812 -0.0023  0.0115  0.2371
25293W        W44827   0.022   5.940   5.108 -0.0405  0.2108  0.2487
25294W        W44828   1.741  10.032   1.322  0.0312 -0.0597 -0.0049
25295W        W44829  12.262   9.746   4.582  0.0906  0.2752 -0.3725
25296W        W44830   4.918  12.386   1.856  0.2889  0.0073 -0.0720
25297W        W44831  17.636  16.829   4.567  0.0690 -0.0419  0.0393
25298W        W44832   7.013  12.747   2.629 -0.1220  0.1906  0.2623
25299W        W44833   7.224  12.611  14.502 -0.2641 -0.2518 -0.2355
25300W        W44834  15.848   4.895  16.308  0.1939  0.2363  0.0802
25301W        W44835  14.642  13.075  16.447 -0.2259 -0.1787  0.1996
25302W        W44836  11.599  17.037  12.595  0.0929  0.1117  0.0904
25303W        W44837  15.867   5.174  14.775  0.2293  0.2597  0.2776
25304W        W44838  16.528   2.165   3.488 -0.2408  0.1893 -0.0121
25305W        W44839   8.334   4.736  14.810 -0.1321  0.0646 -0.2639
25306W        W44840   3.514  12.698  16.639 -0.0139  0.0831  0.3438
25307W        W44841   7.782   5.865  13.254  0.1346  0.0789  0.3802
25308W        W44842   0.047   1.819   2.459  0.0341 -0.1445 -0.0226
25309W        W44843  11.012  11.216   2.958  0.0507 -0.1314 -0.0058
25310W        W44844  17.556  17.628   3.000  0.0768  0.0020 -0.0422
25311W        W44845  16.240  14.566   4.900 -0.0248  0.0528  0.3021
25312W        W44846   7.697  12.747  15.263 -0.1469 -0.0832 -0.1813
25313W        W44847  17.004   1.367   1.829 -0.0853 -0.1003 -0.4506
25314W        W44848   5.184  11.017   0.618  0.0526  0.3585 -0.0332
25315W        W44849  16.004   9.406   3.113  0.3543  0.2883 -0.0582
25316W        W44850  14.106   4.226   3.580 -0.0997  0.1150 -0.3978
25317W        W44851  16.940  14.143   2.053 -0.1952  0.0695 -0.2626
25318W        W44852  17.373   2.194   2.568 -0.2891 -0.2381 -0.1914
25319W        W44853   2.844   8.158   3.644  0.0560 -0.1974 -0.1460
25320W        W44854   8.768   2.073   2.709 -0.0690 -0.3505 -0.1821
25321W        W44855   0.966   9.346  13.924  0.3720  0.3137 -0.0470
25322W        W44856   1.239  10.681   4.483 -0.1388 -0.0160  0.1067
25323W        W44857  10.281   0.033  15.490  0.0236 -0.1750  0.1318
25324W        W44858   3.141   0.160  17.041 -0.0499  0.0347 -0.1781
25325W        W44859   8.840   3.676   2.615  0.0315 -0.0101  0.1647
25326W        W44860  10.202  16.901  14.144 -0.3813 -0.3034  0.0508
25327W        W44861  11.492  10.595  13.100 -0.4228 -0.0092 -0.0067
25328W        W44862   2.764   1.480  16.801 -0.0362  0.0082 -0.0267
25329W        W44863   9.762  10.612  16.856 -0.1937  0.1109  0.1895
25330W        W44864   6.129   3.833  15.729 -0.0526 -0.0002 -0.4050
25331W        W44865   8.182  15.485   2.812 -0.0790  0.2372 -0.1016
25332W        W44866   0.449   7.077   4.033  0.0070  0.1959 -0.2127
25333W        W44867  16.705   1.109   0.063  0.2622 -0.1554 -0.0223
25334W        W44868  11.215   2.311  14.883  0.1536  0.2299 -0.2905
25335W        W44869   7.686  10.783   4.341 -0.0260  0.0452 -0.1359
25336W        W44870  12.532   9.457  16.982 -0.0075 -0.0214  0.1512
25337W        W44871   7.855  15.282  16.235 -0.0024 -0.2168  0.2363
25338W        W44872   2.153   1.001   2.334  0.3410 -0.2496 -0.0152
25339W        W44873  15.580   2.594   1.064  0.2514 -0.0656  0.0839
25340W        W44874   1.882   1.356   5.630 -0.0923 -0.0661 -0.2078
25341W        W44875  16.287   1.666  15.113  0.0571 -0.2482  0.4069
25342W        W44876   4.521   7.811  12.366  0.0646 -0.1013 -0.0608
25343W        W44877   1.244  10.007   4.870 -0.3652 -0.0468 -0.0240
25344W        W44878   9.098   6.297  16.576  0.1563  0.1379  0.2925
25345W        W44879  10.903   8.680  14.710 -0.0411  0.3148  0.1857
25346W        W44880   2.823   2.212   0.268  0.1502  0.0616  0.0095
25347W        W44881   4.739   1.028   2.062  0.4149 -0.0636 -0.0725
25348W        W44882   5.510   9.581   2.137  0.1401 -0.1958  0.3516
25349W        W44883   7.696  12.873  12.309 -0.1118 -0.2997 -0.1449
25350W        W44884   8.590   7.716  14.827  0.0936 -0.0544 -0.2621
25351W        W44885   7.988   3.839   3.583  0.0043  0.0451  0.2238
25352W        W44886   6.337   5.707  14.671  0.3360  0.2855 -0.2508
25353W        W44887  14.133   3.113  13.045 -0.0886 -0.0823  0.0703
25354W        W44888   9.965   2.818  12.975 -0.0367 -0.0338 -0.1281
25355W        W44889   1.715   0.017  14.790  0.0841 -0.2341  0.4182
25356W        W44890   7.276  16.713  15.128  0.3718  0.1563  0.3908
25357W        W44891   8.093  16.258  16.291 -0.0291 -0.0199  0.1019
25358W        W44892   6.104  16.716   3.755 -0.1931 -0.1244  0.2396
25359W        W44893   5.611   1.320  15.157  0.0863  0.3218  0.2122
25360W        W44894   5.753   5.518  16.879  0.0602  0.2424 -0.0541
25361W        W44895   6.118   9.541  12.725 -0.1285 -0.1496 -0.0848
25362W        W44896  15.084   1.373   0.253  0.2056  0.1853  0.5814
25363W        W44897   9.535  16.578  12.784 -0.1840  0.1056 -0.1335
25364W        W44898  17.220  14.776   1.400 -0.0827  0.0600 -0.2299
25365W        W44899   8.203   6.783   2.666 -0.0707 -0.1168 -0.2735
25366W        W44900  13.916   8.215  14.013 -0.0842  0.0639 -0.0816
25367W        W44901   2.079  16.588   4.315  0.1135 -0.0650 -0.0538
25368W        W44902   0.528  17.189   2.611 -0.1773  0.1634  0.2987
25369W        W44903  10.899  11.722  16.828  0.0604 -0.1054 -0.2260
25370W        W44904  15.937   6.224   0.982  0.2269 -0.0421  0.0915
25371W        W44905  16.351   8.077  13.289  0.1491  0.0061 -0.1515
25372W        W44906   1.210   4.601  16.634 -0.2887  0.2323 -0.3272
25373W        W44907   5.646   5.403  14.865  0.1054 -0.3275  0.3280
25374W        W44908  11.050  14.164   2.504  0.1346  0.1415  0.1026
25375W        W44909   0.573   5.893   2.301  0.3761 -0.1180  0.0751
25376W        W44910  15.692   9.797   1.744 -0.0516 -0.4379  0.0472
25377W        W44911   7.195  14.988  13.561 -0.1922 -0.0735 -0.1201
25378W        W44912   7.526   2.374  16.413 -0.1642 -0.1930 -0.1390
25379W        W44913  13.058  17.363   2.527 -0.2347 -0.1879  0.2429
25380W        W44914   0.360   7.728   2.840 -0.2368  0.0867 -0.1402
25381W        W44915  16.891   0.519   0.671  0.0704 -0.1666  0.3683
25382W        W44916  15.542   4.602  16.008 -0.1113  0.0960  0.1137
25383W        W44917   0.141   3.622   0.927 -0.1010  0.0643 -0.1364
25384W        W44918   3.208  14.282  13.957  0.1066 -0.1674  0.2954
25385W        W44919  13.620   9.238  15.534  0.0898 -0.2488  0.0122
25386W        W44920  13.589   3.325  13.752 -0.1147 -0.0971  0.1781
25387W        W44921  16.039  13.863   0.903 -0.0411  0.2088  0.0192
25388W        W44922  14.764   0.963  16.678 -0.2899  0.2139  0.1144
25389W        W44923  14.519  14.324   4.172 -0.1789 -0.0431 -0.1424
25390W        W44924   1.180  15.887   1.713  0.1030  0.2024 -0.0468
25391W        W44925  13.575  16.303   0.701 -0.4027  0.0250 -0.2189
25392W        W44926  12.855   9.410  12.048  0.2224  0.0405 -0.2342
25393W        W44927  17.113  11.577   1.648 -0.1496 -0.0187  0.1044
25394W        W44928  13.271  13.873  15.607 -0.0567  0.0442  0.0398
25395W        W44929  13.200  13.326   2.253 -0.0254  0.3821  0.0998
25396W        W44930   9.134   4.487   4.754  0.0008 -0.0142  0.0262
25397W        W44931   0.361   5.876   4.696 -0.1615  0.1345 -0.0005
25398W        W44932   5.286   8.223  16.403  0.0550 -0.1608 -0.0463
25399W        W44933  14.596   4.407   1.108  0.2504 -0.3366 -0.2090
25400W        W44934   1.825  17.093  15.535 -0.1564 -0.3731  0.0385
25401W        W44935   2.260  11.985   0.197 -0.1452 -0.0849 -0.0053
25402W        W44936  14.537   4.888  13.758 -0.0437  0.1483  0.0169
25403W        W44937  11.407   5.737  13.905  0.1323 -0.3154 -0.3244
25404W        W44938   9.503   7.271   3.128 -0.0574 -0.0394  0.0636
25405W        W44939   8.246   2.487  15.908 -0.4634  0.0023 -0.1429
25406W        W44940   1.719   5.025   0.287 -0.0954 -0.1469  0.2206
25407W        W44941   0.470   0.107   4.049  0.1865  0.0741 -0.1908
25408W        W44942   9.042  14.179  15.954  0.1059 -0.1060 -0.0975
25409W        W44943  11.294   9.554   1.064  0.2888 -0.1163  0.4563
25410W        W44944  11.718  12.154  16.582 -0.0509 -0.0531 -0.1089
25411W        W44945  15.433  12.354  15.857 -0.0956 -0.2956  0.1231
25412W        W44946  11.453   6.339   1.338  0.2511 -0.0389 -0.1769
25413W        W44947   3.397   4.465  16.212  0.0203 -0.0735 -0.1252
25414W        W44948  12.738   5.400   3.278  0.1881  0.2194 -0.0746
25415W        W44949   4.905   7.170   4.178 -0.1591  0.0935 -0.2397
25416W        W44950   4.378   8.509  13.961  0.0515  0.3640 -0.0434
25417W        W44951   5.415   3.407   4.399  0.1371 -0.0612 -0.0620
25418W        W44952   9.367   6.031   3.420 -0.2301 -0.1850 -0.0784
25419W        W44953  12.793   3.055   3.944 -0.0758  0.2877  0.1219
25420W        W44954  13.276   5.200  12.326 -0.2070 -0.0962 -0.0014
25421W        W44955  16.760  12.710  14.632 -0.0413 -0.1554 -0.3461
25422W        W44956   6.090  12.915  15.946 -0.1889  0.0494 -0.0543
25423W        W44957  13.886  17.011   2.651 -0.2802  0.0039  0.0260
25424W        W44958   5.816   2.325   4.334 -0.1861  0.0225  0.2744
25425W        W44959   2.221   1.946  13.666  0.0074 -0.2111  0.2025
25426W        W44960   6.537  11.811  10.910  0.3376 -0.0001  0.0696
25427W        W44961  13.426   0.687   1.614 -0.1733  0.2160 -0.0220
25428W        W44962   6.730  17.365   3.477  0.0189  0.3304 -0.0654
25429W        W44963  17.636  10.064  14.023  0.0005 -0.1211 -0.0135
25430W        W44964   7.349   9.193   1.891  0.2422 -0.3781 -0.2230
25431W        W44965   9.734  15.201   4.368  0.2934  0.1359 -0.0830
25432W        W44966  17.012   4.384   3.860 -0.0108 -0.2036  0.1577
25433W        W44967  11.513   6.700   3.107 -0.0199  0.3938  0.0758
25434W        W44968   4.975  17.503   4.369  0.0780 -0.0844 -0.2036
25435W        W44969   7.730  16.898  12.803 -0.3515  0.0074 -0.0331
25436W        W44970   9.586  11.051   4.003 -0.0216 -0.1334  0.3940
25437W        W44971  17.226   5.362   4.300 -0.1334 -0.0408 -0.2007
25438W        W44972   8.136   8.127  15.374 -0.1119  0.0140  0.1875
25439W        W44973  10.419  11.623   4.086 -0.1585 -0.1018  0.0510
25440W        W44974  15.281  16.917   2.232 -0.1793 -0.0867 -0.0367
25441W        W44975   4.283  15.139  14.282  0.0292  0.0688 -0.0239
25442W        W44976   8.123   9.035   3.382 -0.1489 -0.2840  0.0524
25443W        W44977   2.485  16.757  14.267  0.2186 -0.0471  0.1912
25444W        W44978   9.441  16.991  14.913  0.0610  0.3223 -0.0614
25445W        W44979  14.964   7.727   0.864 -0.0604  0.0024 -0.2060
25446W        W44980   3.775   5.351   5.821  0.2772  0.1394 -0.0555
25447W        W44981   5.497  13.659  16.167  0.2198  0.3262 -0.0209
25448W        W44982   0.597  11.891  13.790 -0.0941 -0.1601  0.1660
25449W        W44983  16.361  11.214   4.731 -0.1703  0.1116  0.1038
25450W        W44984   5.035   9.874  12.022 -0.1283 -0.0020 -0.1157
25451W        W44985   2.664  16.661   2.314 -0.1548 -0.0417  0.0419
25452W        W44986   4.498   2.141   3.839 -0.0710 -0.4124 -0.0791
25453W        W44987   8.617   9.641  16.974  0.1465  0.0453 -0.1028
25454W        W44988  11.714   2.241  14.881 -0.0678  0.0606 -0.4954
25455W        W44989   7.851  11.498   2.676  0.0986  0.0040  0.1936
25456W        W44990   6.251   4.169  12.602 -0.2387  0.0771 -0.2066
25457W        W44991   9.921  12.830  16.058 -0.1448  0.1175 -0.2295
25458W        W44992   4.801  13.400  13.310 -0.0136  0.0076 -0.2190
25459W        W44993   4.718  14.421   1.211  0.2047 -0.1135 -0.2360
25460W        W44994   2.532   4.175  15.821  0.0218 -0.3588 -0.1865
25461W        W44995  14.675  16.824  15.051  0.0814 -0.2617  0.0546
25462W        W44996  16.121   6.598  16.351 -0.0777  0.2476  0.4741
25463W        W44997  12.565   7.850   1.444  0.0158  0.0132  0.0315
25464W        W44998   8.231  13.212   4.775  0.3181 -0.0345  0.1055
25465W        W44999   1.501   7.057  14.810  0.5332  0.0399 -0.2192
25466W        W45000  15.701   9.400  14.778  0.1370  0.0114 -0.0140
25467W        W45001   9.186  13.555  13.000  0.0343 -0.3309 -0.0895
25468W        W45002  12.453  13.254  15.255  0.0175 -0.2758 -0.0179
25469W        W45003  17.562   1.456   0.018  0.1050 -0.1061 -0.0977
25470W        W45004   3.639   1.371   2.330 -0.0587 -0.1066 -0.0111
25471W        W45005   5.892  15.114   3.243 -0.2129 -0.0885 -0.1230
25472W        W45006  12.593  16.135   2.047  0.0007 -0.0108 -0.0160
25473W        W45007  14.494  16.103   2.005  0.0155 -0.1913 -0.2855
25474W        W45008   0.172   3.683   4.062  0.1988  0.1625 -0.3317
25475W        W45009   5.981  10.531   2.864  0.0299 -0.0701  0.2656
25476W        W45010  10.057   2.733  15.398  0.4010  0.0623 -0.0445
25477W        W45011  15.148   3.955  15.356  0.1098 -0.2200 -0.2559
25478W        W45012  10.246   0.453  13.209 -0.2893 -0.0919 -0.0260
25479W        W45013  15.293   2.761  16.433  0.2258  0.0188 -0.1560
25480W        W45014  12.525   8.365   1.398 -0.0331  0.0700  0.0365
25481W        W45015  11.157  16.530  15.941  0.1427  0.4018  0.1058
25482W        W45016  10.365   8.648   4.127 -0.1725  0.2057  0.2566
25483W        W45017   8.297  16.714   2.187 -0.1296 -0.0371 -0.3051
25484W        W45018   4.819  11.614  14.232  0.0737  0.1390 -0.0116
25485W        W45019   4.642  10.668   4.333 -0.0217  0.2194 -0.0751
25486W        W45020   3.189   5.717   2.948 -0.2799  0.0391  0.1252
25487W        W45021   0.060   3.950  13.506  0.0989  0.4942 -0.1269
25488W        W45022   0.875   8.433  12.372  0.1168  0.1048 -0.1938
25489W        W45023   2.378   4.914   1.690 -0.0631 -0.3150  0.1249
25490W        W45024   6.224   3.815   3.413  0.0057 -0.1039  0.0253
25491W        W45025   6.852   5.187  14.020 -0.0205 -0.0972  0.0392
25492W        W45026   6.111  15.072  15.434  0.1701  0.1992 -0.1051
25493W        W45027  15.050   6.658  14.343  0.1102  0.0922  0.3740
25494W        W45028  16.432  12.992   1.873  0.2023  0.0630 -0.0243
25495W        W45029  16.665   7.771   1.487  0.0582 -0.2189  0.1398
25496W        W45030  14.105   6.552  13.482 -0.0345 -0.2189  0.1010
25497W        W45031  10.765   6.938  12.534 -0.2004 -0.0114 -0.1001
25498W        W45032   9.641  14.279  13.023 -0.0214  0.2459  0.0862
25499W        W45033  15.863   1.365   0.446  0.2549  0.0553 -0.1207
25500W        W45034   4.410   6.543   2.130 -0.1392 -0.0585 -0.0378
25501W        W45035   6.098   6.963  13.182  0.0628  0.2407  0.1849
25502W        W45036   8.773   8.355  16.770  0.0521 -0.0581  0.1294
25503W        W45037   5.378  12.680  12.702  0.1374 -0.3138 -0.2045
25504W        W45038  11.021   6.607  14.913 -0.0266 -0.0059  0.1289
25505W        W45039  11.088   8.819   2.870  0.3534 -0.0157  0.1850
25506W        W45040  16.867   1.540  16.423 -0.2656  0.1180  0.2028
25507W        W45041  15.058   9.221  13.008 -0.1631  0.0334  0.0694
25508W        W45042   7.309   8.683  15.767  0.0471  0.0781 -0.0570
25509W        W45043  11.304   6.733   3.605 -0.1249 -0.0065 -0.1047
25510W        W45044   1.248   8.264  16.271  0.0705  0.0718  0.1965
25511W        W45045   2.043   8.539   4.899  0.1081  0.0179 -0.2933
25512W        W45046   8.500  15.999   3.894 -0.6067 -0.1086  0.1813
25513W        W45047   7.217   6.233  12.501 -0.1165  0.0606  0.0602
25514W        W45048   6.751  10.223  12.379 -0.0184 -0.4157  0.3789
25515W        W45049   3.772   3.366  13.814 -0.0105 -0.2592 -0.1146
25516W        W45050   6.041   7.691  16.785 -0.0013  0.0844 -0.1750
25517W        W45051  15.707   4.041   0.969  0.1077  0.1562  0.1183
25518W        W45052   7.819   7.260   4.968 -0.0419  0.1561  0.3588
25519W        W45053   2.295  15.313   3.241  0.0375  0.0737 -0.4884
25520W        W45054  16.989   5.705   3.029 -0.2543 -0.1331 -0.0699
25521W        W45055  11.369  13.731   2.116  0.2093  0.1667  0.0454
25522W        W45056  12.458   6.759   2.687 -0.1296 -0.0173  0.1416
25523W        W45057  16.549  16.897   1.738 -0.1892 -0.0434 -0.1261
25524W        W45058   0.009   4.903  16.657 -0.3401  0.0464  0.1262
25525W        W45059  14.675   9.092  14.631  0.1382  0.0233 -0.1254
25526W        W45060   3.136   1.092   1.038  0.0760 -0.2376 -0.1978
25527W        W45061  10.446  13.160   2.021 -0.1044  0.0634  0.1678
25528W        W45062   3.080   9.086   1.710  0.0778  0.0979 -0.0942
25529W        W45063   7.312   2.513   0.493 -0.3103  0.2338 -0.1863
25530W        W45064   4.968   4.594  12.979 -0.1413  0.1000  0.1896
25531W        W45065   8.363   4.163   3.646 -0.0298  0.1154  0.0660
25532W        W45066  15.146   6.694   5.357 -0.2257  0.2110 -0.2137
25533W        W45067  10.424   6.211   0.118  0.4170  0.1599 -0.1180
25534W        W45068  16.793  12.160   4.707 -0.1174 -0.0761  0.2739
25535W        W45069   8.660   6.384   4.295  0.0641 -0.0628 -0.0345
25536W        W45070   1.859  16.099  14.251 -0.0905 -0.0775 -0.1498
25537W        W45071   6.385  14.068  12.893 -0.1541 -0.1103  0.0471
25538W        W45072   9.537  13.336  12.072  0.2082  0.0629 -0.0316
25539W        W45073  11.665  16.994  16.463 -0.0290 -0.0503 -0.0091
25540W        W45074  15.953   5.675  12.612 -0.1207 -0.1997  0.1520
25541W        W45075   7.238   4.395  13.636  0.3020  0.0789 -0.1588
25542W        W45076  15.921   1.442  15.471  0.1146 -0.0553  0.3336
25543W        W45077  13.015   7.408  13.033  0.1453  0.1821  0.0508
25544W        W45078   5.348  12.042   3.934  0.0263  0.2539  0.2883
25545W        W45079   9.246  13.446   1.680 -0.1755  0.2237 -0.1799
25546W        W45080   9.519   8.203   3.105 -0.1343  0.1503 -0.2433
25547W        W45081  14.536  15.669  13.463 -0.2522  0.1635  0.0782
25548W        W45082   2.276   5.520   3.079  0.0292  0.0824  0.1570
25549W        W45083  14.954   0.596  16.952 -0.1865  0.2432  0.0689
25550W        W45084  12.201   0.206   1.989  0.2125 -0.0249 -0.1882
25551W        W45085   9.126  11.159   2.687  0.0688 -0.0221 -0.1145
25552W        W45086   3.427   0.541  15.660  0.1876  0.2138  0.0318
25553W        W45087  11.578   8.263   1.224  0.1428 -0.0727 -0.0398
25554W        W45088   0.196  15.163  11.800 -0.1905 -0.3440  0.3301
25555W        W45089   2.302   1.508   3.874  0.1113 -0.2336  0.3129
25556W        W45090  12.287  11.151   1.717  0.0951  0.0655 -0.1059
25557W        W45091   8.445  13.991  14.281 -0.2744 -0.1258  0.1604
25558W        W45092  16.922  14.324   1.502 -0.3179  0.1626 -0.1569
25559W        W45093   9.658   4.724   4.745 -0.1288 -0.2377 -0.0293
25560W        W45094   0.652   8.929   3.986  0.3698  0.1436  0.2793
25561W        W45095  16.639   4.354  14.162 -0.2714 -0.0937 -0.0631
25562W        W45096   3.869  16.950   3.933  0.0794 -0.2101  0.4225
25563W        W45097   5.730   7.048  13.594 -0.1778  0.1070  0.1069
25564W        W45098   2.101   7.874   3.832 -0.4673  0.0147  0.4549
25565W        W45099   3.843  17.279  12.974 -0.5206 -0.1248  0.0489
25566W        W45100   4.671   5.747  14.017  0.0722 -0.2217  0.2376
25567W        W45101   2.040  14.588   3.939  0.2089 -0.1679 -0.1029
25568W        W45102  12.590  12.704   5.115 -0.2972 -0.2651  0.0175
25569W        W45103   6.695   0.056   4.866 -0.0296 -0.0935 -0.3763
25570W        W45104   6.671  16.347   1.840  0.3415  0.0676 -0.1299
25571W        W45105  16.659   4.419   0.813  0.2274  0.1408 -0.2139
25572W        W45106  14.227   5.717   1.426  0.0973 -0.1029  0.1381
25573W        W45107  10.767  17.628   1.023  0.1693 -0.3797 -0.0566
25574W        W45108   0.689   8.865   4.466  0.2000 -0.1655 -0.1753
25575W        W45109   8.072   8.916  16.023  0.0034  0.3111  0.1986
25576W        W45110   6.956   7.529  12.344 -0.0898 -0.3068  0.0406
25577W        W45111   6.612  17.563  12.120 -0.3979  0.0775 -0.2214
25578W        W45112  14.035  10.476   0.245 -0.0851 -0.2728  0.2772
25579W        W45113  12.961  15.281   0.376  0.0605 -0.3514  0.0335
25580W        W45114  14.638  14.724   3.016  0.0452 -0.2985 -0.6101
25581W        W45115   0.225  17.499  12.663 -0.1606  0.0415 -0.2379
25582W        W45116   4.585  14.709   2.208  0.0695 -0.1415 -0.1683
25583W        W45117  15.359   2.885   4.786  0.2338  0.5921 -0.2657
25584W        W45118   5.210  10.996   3.334 -0.2810 -0.0945  0.0239
25585W        W45119  11.582   4.973   4.598  0.0572 -0.1909  0.2869
25586W        W45120  14.342   9.027   0.535  0.0780 -0.0769  0.0877
25587W        W45121   3.932   9.172  14.928 -0.0742 -0.0341 -0.0435
25588W        W45122  12.425  12.640  14.463  0.0591 -0.4933  0.1651
25589W        W45123  14.994   9.514   4.532 -0.0206 -0.1055  0.1529
25590W        W45124  10.656   9.563   2.311 -0.4727 -0.0336 -0.0041
25591W        W45125  13.942   1.827  14.440 -0.0774 -0.0331  0.3601
25592W        W45126  17.269   1.678  12.545 -0.0987 -0.1611 -0.1569
25593W        W45127   4.921   7.799   2.920  0.0981  0.1155 -0.0886
25594W        W45128  12.503  14.663  12.051 -0.0402  0.4464  0.1332
25595W        W45129   5.024   3.385   0.051  0.1503 -0.1774  0.0308
25596W        W45130   0.531   0.564  16.176  0.1581 -0.0664  0.0173
25597W        W45131  11.215   9.441   1.595  0.0630 -0.2226 -0.0408
25598W        W45132  17.350   0.155  16.513  0.0633 -0.1440  0.0274
25599W        W45133  13.749  11.544   0.927 -0.0179 -0.0152 -0.0171
25600W        W45134   1.766  11.422  16.806 -0.0258 -0.0176 -0.1461
25601W        W45135   8.896  16.152  12.372  0.1259 -0.2331  0.0681
25602W        W45136   8.412  12.299   4.920 -0.0985  0.0572 -0.1085
25603W        W45137   5.091  10.325  13.380  0.0693 -0.0841  0.1386
25604W        W45138  10.370   1.101   4.980  0.1641 -0.0366 -0.0262
25605W        W45139   5.590   4.247   1.278  0.1973 -0.2047  0.1798
25606W        W45140  17.181   3.290   4.928  0.1389 -0.0249 -0.0313
25607W        W45141  10.516  11.322  13.984 -0.3890 -0.0458 -0.2426
25608W        W45142  10.500   0.193   0.605  0.0367  0.1234  0.1284
25609W        W45143   1.123   4.985  15.122 -0.0283  0.0294  0.0559
25610W        W45144   2.232   3.056   1.295  0.2442 -0.3890  0.0967
25611W        W45145  10.574  14.767  14.464 -0.0159  0.1354  0.1297
25612W        W45146  12.809   6.380  13.882  0.0132  0.1196 -0.0678
25613W        W45147   2.564  13.467   1.493 -0.0885  0.0234  0.2756
25614W        W45148   6.952  12.648  16.783  0.0480  0.1466  0.3679
25615W        W45149  12.781   7.085   2.463  0.0026  0.2004  0.0885
25616W        W45150  13.492   3.811  16.440 -0.4312  0.1382 -0.0177
25617W        W45151   0.011   0.040   4.068  0.1716  0.5820  0.0359
25618W        W45152   5.314   2.685  16.982 -0.0116 -0.2933 -0.0707
25619W        W45153  10.150   7.916  15.515  0.1652 -0.0194 -0.0477
25620W        W45154  15.571   3.616  16.704  0.1949  0.1252 -0.0010
25621W        W45155   3.075   9.357   4.501  0.0974  0.2725  0.1360
25622W        W45156   1.197  13.866  16.268  0.2807 -0.1533  0.1112
25623W        W45157   6.770  11.835   3.410  0.1737  0.0249 -0.0443
25624W        W45158  13.252   1.814   2.309  0.1502 -0.0682  0.0782
25625W        W45159  11.303  14.780  16.340 -0.2036  0.0713  0.2547
25626W        W45160  13.018   6.640  13.574 -0.1531 -0.4986  0.4116
25627W        W45161   9.226   0.349  14.849 -0.1428  0.4278  0.0489
25628W        W45162  13.039   8.301   3.187  0.0559  0.2550  0.1667
25629W        W45163  16.828   0.371  15.166  0.0326  0.1640 -0.2621
25630W        W45164  13.514   9.619   2.989 -0.0139  0.0018  0.0670
25631W        W45165  17.275   2.203  15.940 -0.2526  0.1732 -0.0303
25632W        W45166  17.489  12.130  15.226 -0.1819 -0.2231  0.2475
25633W        W45167  10.812  12.668  13.118 -0.1251  0.4273  0.0019
25634W        W45168  14.766   7.939  14.520 -0.3259  0.1338 -0.0693
25635W        W45169  16.476  10.918  15.043  0.3512  0.1201  0.0641
25636W        W45170  15.480  15.068   2.951  0.0967 -0.1413 -0.0620
25637W        W45171   6.862   1.878  15.251  0.4174 -0.0588  0.2267
25638W        W45172  11.601   2.363  13.004 -0.2951  0.0206  0.4516
25639W        W45173  13.883   4.798  15.575  0.2288 -0.0738  0.2323
25640W        W45174  16.677  10.976   4.351 -0.0030 -0.0533  0.1605
25641W        W45175  10.341  16.318  12.984 -0.0087  0.0908  0.2068
25642W        W45176   7.085   8.096  14.133  0.3326  0.1072 -0.1733
25643W        W45177   1.667   3.060   2.406  0.2209 -0.0587 -0.2003
25644W        W45178  12.399   5.796  14.712  0.1915 -0.0949  0.0946
25645W        W45179   1.394   5.823  12.585  0.3000 -0.0769 -0.3385
25646W        W45180   2.461  14.230   2.041 -0.3215  0.1083  0.1513
25647W        W45181   0.660  10.834   1.586  0.1031  0.1652  0.1500
25648W        W45182  14.208  12.275   4.147 -0.0693  0.1056  0.2933
25649W        W45183   2.649   5.231   2.975  0.1816 -0.3082 -0.2283
25650W        W45184  13.339  17.427  14.003 -0.1162  0.2022 -0.0727
25651W        W45185  16.529   7.618   1.012 -0.0788  0.0013  0.0400
25652W        W45186   9.917  11.240  16.321 -0.0903  0.0535 -0.2317
25653W        W45187   9.244   8.341   2.662  0.4229  0.1821  0.0865
25654W        W45188  17.057   0.364  13.111 -0.1527  0.0881  0.2056
25655W        W45189   8.235   4.384  14.211 -0.0202 -0.0421  0.1383
25656W        W45190  12.214   0.710   2.129  0.0684  0.1686 -0.2394
25657W        W45191   8.261   1.846   3.139 -0.0409  0.0123 -0.5193
25658W        W45192   0.864  10.393  13.623 -0.1087 -0.3357 -0.0661
25659W        W45193   0.275  14.676  16.203 -0.4084 -0.1200 -0.0488
25660W        W45194   7.857   7.605   1.599 -0.0066  0.0392  0.0060
25661W        W45195   3.256  13.281  13.985  0.1569  0.2104 -0.1755
25662W        W45196   0.540   2.231   0.132  0.1111 -0.0331  0.0080
25663W        W45197  11.975  16.942  13.996  0.1031  0.0688  0.1125
25664W        W45198   1.474   1.402  16.207  0.1124 -0.1178  0.1436
25665W        W45199  11.599  16.715  15.556  0.0609 -0.0557 -0.1669
25666W        W45200   7.517   9.965  15.854  0.0587  0.0717  0.1031
25667W        W45201   2.955  14.713  13.462 -0.0567 -0.0291  0.1251
25668W        W45202  10.014   3.253  15.446  0.0946  0.5406 -0.2575
25669W        W45203  10.844  16.704   2.804  0.0238  0.2890 -0.0264
25670W        W45204  15.066   3.707  16.849 -0.0606 -0.1021 -0.1062
25671W        W45205  12.674   4.498   1.187  0.3072 -0.1124  0.0637
25672W        W45206  13.560   0.532  15.095  0.1711 -0.3360  0.4218
25673W        W45207  13.547  10.619  12.340 -0.1294  0.2010  0.0949
25674W        W45208  15.474  16.106  15.523  0.0004  0.1232  0.2149
25675W        W45209   4.014  13.773  16.384  0.0633 -0.0299 -0.1899
25676W        W45210   3.142   8.496  11.981  0.4975  0.0527  0.0238
25677W        W45211   3.026   9.112  15.192 -0.1340 -0.0131 -0.1692
25678W        W45212   6.999   5.051  15.794 -0.0704  0.1828 -0.2000
25679W        W45213   8.742  10.509   5.027  0.0621  0.3205 -0.1720
25680W        W45214   9.108   4.003  14.390 -0.0726  0.1981  0.1804
25681W        W45215   6.032   9.599  15.123 -0.0540 -0.1839 -0.1803
25682W        W45216  16.615   0.771  15.313 -0.1073  0.2683  0.0481
25683W        W45217  11.083  15.970   5.023 -0.0007 -0.2144  0.0662
25684W        W45218   2.291  15.785  14.039 -0.0360 -0.1703  0.0214
25685W        W45219   3.069   7.632   3.369  0.1642 -0.1183  0.1383
25686W        W45220  14.931   7.013   2.375 -0.1870 -0.1842  0.1217
25687W        W45221  15.650   1.333  13.435  0.1989  0.0853 -0.1469
25688W        W45222  16.532   1.569   0.083  0.1719  0.1089 -0.0403
25689W        W45223   8.452  16.083  13.692 -0.2084  0.2468 -0.0037
25690W        W45224   6.784  12.677  12.969 -0.0133  0.0441 -0.4553
25691W        W45225  11.558   9.048  13.877  0.0189  0.0212 -0.0693
25692W        W45226   1.781   4.225   4.273 -0.0285  0.1993 -0.3297
25693W        W45227   5.847  16.770   1.560  0.0122 -0.0221  0.0470
25694W        W45228   8.289   0.328   2.775  0.1574 -0.1396  0.1430
25695W        W45229   6.026   1.281  12.603  0.2179 -0.0827  0.2479
25696W        W45230   3.599   3.225  16.459  0.0691  0.1468  0.0413
25697W        W45231   7.493   9.425   3.413  0.1375  0.1084  0.0078
25698W        W45232   9.688   3.541   3.580 -0.0018 -0.2257  0.2017
25699W        W45233  16.658   3.081  14.805  0.0843 -0.1679 -0.1828
25700W        W45234   3.523   0.879   2.082 -0.2119 -0.2635  0.0411
25701W        W45235   7.411   1.037  14.772 -0.1336  0.2239 -0.0790
25702W        W45236   2.412  11.530   1.909  0.1355  0.0972  0.0284
25703W        W45237   6.179   8.306   0.070 -0.0204 -0.0367 -0.0719
25704W        W45238  13.693   6.422   1.374 -0.1493  0.0749  0.1317
25705W        W45239  13.972  10.162  14.173  0.2290  0.2759  0.1084
25706W        W45240   9.242  16.759   4.677 -0.1738 -0.1118 -0.1195
25707W        W45241  10.447   8.137   4.854 -0.1059 -0.1706  0.0363
25708W        W45242   8.042   2.969  12.508  0.1195  0.2904  0.0430
25709W        W45243  16.448   5.091   0.854 -0.2372 -0.4151 -0.0681
25710W        W45244   7.982   9.413   4.147  0.2482  0.0916  0.0234
25711W        W45245   8.464   8.580  15.456  0.3663  0.0497 -0.0384
25712W        W45246   0.048  13.168  12.053  0.2403  0.2410 -0.4198
25713W        W45247   4.862   1.843   4.681  0.0638  0.2689  0.0860
25714W        W45248   7.392   6.888  15.855 -0.1050  0.0593  0.0250
25715W        W45249   8.343  16.176   2.196  0.4314  0.0524 -0.0224
25716W        W45250  11.851   4.789  16.222  0.0708  0.0644  0.0712
25717W        W45251   0.753   5.995  13.358 -0.0035 -0.0674  0.0494
25718W        W45252   3.608   2.711   4.975  0.0668 -0.0499 -0.1204
25719W        W45253  17.141  12.310   4.427 -0.0199 -0.0513 -0.0691
25720W        W45254   5.476  11.900  15.472  0.0904 -0.0254  0.0416
25721W        W45255   5.513  13.508   0.657  0.1736  0.0787 -0.2585
25722W        W45256  17.546  11.062   2.521  0.0187  0.0312 -0.1148
25723W        W45257  12.677  14.031   2.249  0.5171 -0.0172 -0.3316
25724W        W45258   9.219   1.179  16.319  0.1061 -0.0207 -0.0081
25725W        W45259   3.179  17.030  16.826 -0.0061  0.1442 -0.0519
25726W        W45260   2.785  10.831  12.496  0.5109 -0.0625  0.0824
25727W        W45261   0.614  15.318   2.253 -0.2387 -0.2444  0.1259
25728W        W45262  10.403  12.295   4.791  0.1993 -0.1412 -0.2294
25729W        W45263  10.616  10.640   0.518  0.1214  0.0124  0.1113
25730W        W45264   5.727  11.987   3.147  0.2654  0.0894 -0.1203
25731W        W45265  13.996  11.655   4.039  0.0678 -0.1554  0.0457
25732W        W45266   3.880   3.357   2.435 -0.1260 -0.0125  0.0476
25733W        W45267   6.251  11.989   1.806 -0.1237  0.0492  0.0460
25734W        W45268  11.307  11.752  12.932 -0.5176 -0.1477 -0.2380
25735W        W45269  12.819  12.675  16.149  0.3868 -0.2806 -0.0261
25736W        W45270  14.994  12.105  12.676 -0.1592  0.0374  0.0308
25737W        W45271  15.236  14.264   3.378  0.2062  0.1857  0.1609
25738W        W45272  17.143  10.625  12.401  0.0275 -0.0799  0.2171
25739W        W45273   3.056   9.517   1.998 -0.2600 -0.0882  0.2667
25740W        W45274   8.989  11.824   3.485  0.1925 -0.0604  0.2803
25741W        W45275  11.014   8.075   3.692 -0.1031  0.0951  0.2615
25742W        W45276   7.856   9.717   0.422 -0.0832  0.1466  0.0863
25743W        W45277  14.138  15.433  13.177  0.0988  0.0469  0.4258
25744W        W45278   4.038  11.706   3.306 -0.3691 -0.1618 -0.2688
25745W        W45279   0.766   2.450  13.227  0.0306 -0.1239 -0.1312
25746W        W45280  15.078  16.795   5.232  0.2129  0.1064 -0.0569
25747W        W45281   2.483   3.734  14.511  0.1045 -0.0442  0.3389
25748W        W45282  15.423  10.532   3.166 -0.2311  0.3925 -0.1899
25749W        W45283  14.100   3.107   0.972  0.3295  0.0942  0.0880
25750W        W45284   4.840   9.090  15.629  0.0443  0.2016 -0.0261
25751W        W45285  10.836  10.433   4.612 -0.0571 -0.2290  0.1631
25752W        W45286   6.533  17.399  14.267  0.1813 -0.1939  0.0138
25753W        W45287  13.495  15.090   1.557  0.0741 -0.4245  0.1078
25754W        W45288  17.157  13.445  15.002 -0.0564  0.2063 -0.1643
25755W        W45289  12.639   4.511   3.024  0.0448  0.0745 -0.1425
25756W        W45290  14.134  15.323   1.090 -0.1832  0.0693 -0.3158
25757W        W45291  14.806   6.257   3.071  0.2256 -0.1722 -0.1938
25758W        W45292   1.534   9.881  12.393 -0.0784 -0.1731 -0.0538
25759W        W45293  12.332  11.024  14.370 -0.2422 -0.1060 -0.2080
25760W        W45294  16.682   7.733  13.003 -0.0099  0.4119  0.0031
25761W        W45295   3.142   4.507  12.670  0.2351 -0.0198 -0.1785
25762W        W45296   3.519   1.924   2.173 -0.2421  0.2226 -0.1090
25763W        W45297   8.419  17.218  14.807  0.0576 -0.3324  0.1775
25764W        W45298  12.194   0.801  15.104 -0.2269  0.0161  0.0703
25765W        W45299   1.747   3.302  17.058 -0.0687 -0.3145 -0.1512
25766W        W45300   2.372   5.061   2.149 -0.1569  0.0135 -0.0384
25767W        W45301   9.290  10.894  15.612 -0.0367 -0.2267 -0.3199
25768W        W45302  11.448   3.671  14.007  0.1405  0.0584  0.0264
25769W        W45303   6.032  11.507  12.678 -0.1156  0.0258  0.1925
25770W        W45304  15.619  11.228  13.587 -0.1993 -0.0673 -0.2504
25771W        W45305   0.353   9.843  16.982  0.0543  0.0821 -0.2155
25772W        W45306   7.914   0.859  11.913  0.2236  0.2745  0.0391
25773W        W45307   2.218   3.022  15.471  0.2810  0.1092 -0.2354
25774W        W45308   1.013  10.657   1.831 -0.2386  0.3179 -0.0970
25775W        W45309  14.106  10.140   2.677  0.1141  0.0154  0.3500
25776W        W45310   7.906   8.246   3.978 -0.0508 -0.1604  0.0491
25777W        W45311   6.741   0.062  13.563 -0.2447 -0.3980 -0.3079
25778W        W45312   2.755  15.268   2.354  0.0651  0.3385 -0.0084
25779W        W45313   5.809   6.803   3.200 -0.0052 -0.2385  0.0525
25780W        W45314  15.747   7.140   1.878  0.1268 -0.2550 -0.3673
25781W        W45315  16.131  10.655  13.742  0.0858  0.2295  0.1773
25782W        W45316  13.882  17.321   3.179  0.2112  0.0787  0.5897
25783W        W45317  11.553   9.387   2.697 -0.0175 -0.2404 -0.1372
25784W        W45318  13.125   0.386   1.836 -0.0078 -0.1675 -0.1371
25785W        W45319   9.472  13.360  16.187  0.1118  0.0698 -0.0174
25786W        W45320   6.577  10.754  12.471  0.0047 -0.0545 -0.0822
25787W        W45321  13.194   4.879   3.701  0.0752 -0.3443  0.1011
25788W        W45322   6.127   8.134  15.166  0.2535 -0.0375 -0.1301
25789W        W45323   6.859  16.448  14.235 -0.2106  0.2748  0.0375
25790W        W45324  14.552   7.235   3.774 -0.2365  0.0836  0.0256
25791W        W45325   6.025   1.719  14.948 -0.1335 -0.0550 -0.3961
25792W        W45326   9.296  12.906   1.531  0.1492 -0.0242  0.1195
25793W        W45327  11.455   4.446  16.076  0.1568 -0.1643 -0.1223
25794W        W45328   0.214  13.677  16.369 -0.2678 -0.0632  0.4687
25795W        W45329  17.627   7.470  16.072 -0.1033  0.1606  0.1417
25796W        W45330   8.658   5.924  12.123  0.0262  0.0193  0.2612
25797W        W45331   5.076   0.598  14.040  0.3270 -0.2396 -0.0503
25798W        W45332  10.659  12.302  15.941  0.2280  0.0502  0.0707
25799W        W45333   9.140  16.548   4.249 -0.0970 -0.0990 -0.2734
25800W        W45334  12.929  10.471   4.982  0.2517  0.1887 -0.1223
25801W        W45335   4.300   1.514  14.721  0.0647 -0.3728  0.0716
25802W        W45336  10.387  12.867   4.484 -0.1999  0.1853 -0.0524
25803W        W45337  14.602   3.632   2.254  0.0660 -0.0359  0.2366
25804W        W45338  15.048  17.393   2.083 -0.2167 -0.0921  0.1889
25805W        W45339  13.264   0.970   2.069 -0.0229  0.1516 -0.1367
25806W        W45340  13.715  11.956   3.084  0.1299 -0.2422  0.1094
25807W        W45341   5.810   9.108  16.549 -0.0457  0.1386  0.0810
25808W        W45342  12.075   0.291  15.449 -0.2272 -0.0092  0.0067
25809W        W45343   5.392   2.289  15.172  0.1242 -0.1819 -0.2389
25810W        W45344  17.137  14.108  13.354 -0.1555  0.1288 -0.2004
25811W        W45345  13.076  14.399   5.063  0.1138  0.1483  0.0411
25812W        W45346   3.574   3.863  13.149  0.2781  0.0535  0.1662
25813W        W45347  12.629  12.861   3.534 -0.0342 -0.2429 -0.1218
25814W        W45348   3.867   0.156  12.782  0.1794  0.3480 -0.1032
25815W        W45349  15.232  13.382   3.162  0.0767  0.0931  0.0385
25816W        W45350  16.042  11.680  15.316  0.0875 -0.4007 -0.2708
25817W        W45351   9.173   8.450  16.269 -0.0740  0.2071  0.2897
25818W        W45352   9.647  13.878  12.095 -0.0860 -0.1495 -0.2294
25819W        W45353  17.219   1.396  12.955 -0.3136 -0.0441 -0.0590
25820W        W45354  10.142  11.874   4.578  0.1337 -0.2014 -0.1109
25821W        W45355   0.555  13.054   2.534 -0.2866  0.1399 -0.1438
25822W        W45356   8.300   1.364   0.236 -0.1587  0.0100 -0.0932
25823W        W45357  14.398  13.353  13.264  0.0908 -0.0096 -0.3537
25824W        W45358   4.418   8.826  12.385  0.2830  0.0053  0.0017
25825W        W45359   8.105   2.616   1.348 -0.2864  0.0412  0.1178
25826W        W45360   2.872  12.802  15.156  0.1180 -0.0755  0.2124
25827W        W45361   7.744   0.557  14.951  0.0824  0.2947 -0.2732
25828W        W45362  12.624  11.009   1.349  0.1790 -0.1770  0.2288
25829W        W45363   7.127  14.089   4.050  0.1371 -0.1004 -0.1797
25830W        W45364   5.903   1.753  12.686  0.0925  0.0277 -0.0759
25831W        W45365  16.707   0.802  16.675  0.2341 -0.0003 -0.1261
25832W        W45366  16.498   5.572  15.861  0.2749 -0.1829  0.2080
25833W        W45367  14.670   1.630   0.203  0.2083 -0.0666  0.1560
25834W        W45368  10.859   3.011  16.583 -0.1594 -0.1000 -0.0774
25835W        W45369   2.307   7.121   3.415 -0.0251 -0.2844 -0.1309
25836W        W45370  12.037   8.042   0.620  0.1761  0.1495 -0.1774
25837W        W45371   5.424   6.138   0.623 -0.0404  0.0989  0.1161
25838W        W45372   9.888   0.729  14.745  0.3437 -0.0386 -0.2372
25839W        W45373   7.585   4.527  15.253 -0.1818 -0.0788 -0.0156
25840W        W45374   0.472   8.668  13.145  0.0044 -0.3488 -0.1833
25841W        W45375   3.692   0.462   1.652  0.2183 -0.1877 -0.1747
25842W        W45376  10.483  14.453   0.311 -0.0345  0.2436 -0.0432
25843W        W45377   1.273   4.083  16.024 -0.2612  0.0657  0.0750
25844W        W45378  13.863   1.448  16.807 -0.2352  0.2383 -0.1915
25845W        W45379   3.378  10.746  13.197 -0.1226 -0.2491 -0.1766
25846W        W45380   4.255   3.523  13.790 -0.2743 -0.2607  0.0355
25847W        W45381   2.815  16.231  15.652  0.4714 -0.0180 -0.4508
25848W        W45382  16.478  10.781   1.496  0.2773  0.1222 -0.0268
25849W        W45383  16.622   7.338   4.224 -0.1909 -0.2517  0.4221
25850W        W45384   5.302  12.393   3.237 -0.1102  0.0344 -0.3022
25851W        W45385   3.896   6.849  14.584 -0.0165  0.0649 -0.3029
25852W        W45386   7.887   5.378   2.022 -0.0766 -0.0399  0.4338
25853W        W45387   8.642   0.733   2.427 -0.2553 -0.0126  0.0627
25854W        W45388   1.182  12.616  13.678 -0.0671 -0.1654 -0.0412
25855W        W45389   9.789  13.882   2.083 -0.0648  0.2195 -0.1806
25856W        W45390   9.113  10.692  16.425 -0.0262 -0.1050 -0.2808
25857W        W45391   2.270   8.010   2.867 -0.0349 -0.0495 -0.1627
25858W        W45392   6.657   1.928   3.073 -0.2174 -0.1593 -0.1675
25859W        W45393   0.519  15.657  15.246 -0.1201  0.2964  0.1467
25860W        W45394   1.872   5.945   5.959 -0.1374  0.0591 -0.1623
25861W        W45395   2.317  16.959   4.676 -0.1048 -0.1692  0.0437
25862W        W45396   7.637   6.336  13.420  0.0230  0.2702 -0.2198
25863W        W45397  12.267  15.674  16.264  0.1154  0.0941  0.0975
25864W        W45398   7.759   3.027   1.734 -0.1609  0.0868  0.0785
25865W        W45399  12.000  11.125   2.965  0.3780  0.1154  0.1442
25866W        W45400   5.230   3.298  13.014  0.0837 -0.0911  0.6001
25867W        W45401  12.040   7.429  16.122 -0.0137  0.3062  0.2363
25868W        W45402  16.183  14.017  13.220 -0.0050 -0.3169 -0.0585
25869W        W45403   7.844   2.545   4.164  0.1299  0.1083  0.3093
25870W        W45404   3.870  14.563   1.153 -0.1079  0.2550  0.1601
25871W        W45405  13.156   0.477  14.684 -0.1281 -0.2311  0.0091
25872W        W45406  17.378  15.530  14.610 -0.1386 -0.1111 -0.0841
25873W        W45407   8.593   6.915  12.394  0.2355 -0.1324  0.2415
25874W        W45408   9.012   5.058   2.943  0.0344 -0.0306  0.1063
25875W        W45409   1.728   6.225   4.600 -0.2981 -0.0546  0.2137
25876W        W45410   6.052   0.580   0.283 -0.0473 -0.0373 -0.0456
25877W        W45411  11.797   9.214   2.268  0.6902  0.0826 -0.1428
25878W        W45412   1.115  11.657   2.784  0.0439 -0.2910  0.0476
25879W        W45413  13.043   5.835   1.394 -0.1062  0.0319 -0.1452
25880W        W45414   2.106   3.851   0.628 -0.0898 -0.1539 -0.0231
25881W        W45415  10.918   2.864   1.217 -0.0424 -0.1618  0.2505
25882W        W45416  16.649  12.741  12.231 -0.3556 -0.0732  0.0520
25883W        W45417   5.826  15.153  16.385 -0.2491 -0.0969  0.1392
25884W        W45418   8.855   6.569   4.830  0.2880 -0.1601 -0.4150
25885W        W45419  14.620   0.450   6.124  0.1912  0.0397 -0.1240
25886W        W45420   2.237  16.140  14.763 -0.0121 -0.0602 -0.1843
25887W        W45421   5.087  11.105  14.536  0.1223  0.0377 -0.0967
25888W        W45422  14.186  15.122   3.871 -0.1584 -0.1861  0.0427
25889W        W45423   0.716   8.974   1.137 -0.1035 -0.0509  0.1080
25890W        W45424  13.087   8.383   2.284 -0.0743 -0.1481 -0.0162
25891W        W45425  10.064  10.190  16.738 -0.0064 -0.1452  0.1779
25892W        W45426   8.072  11.643   1.298  0.0805  0.0001  0.2467
25893W        W45427  16.938  12.120  13.724 -0.2608 -0.1370 -0.3518
25894W        W45428   6.340   4.253   3.637  0.3634 -0.0184  0.0634
25895W        W45429  17.648   7.080  13.847 -0.2248 -0.1500  0.2558
25896W        W45430   1.160   5.683   3.972  0.0917 -0.2973 -0.0654
25897W        W45431   8.742  10.952  14.903 -0.1750 -0.1081 -0.2218
25898W        W45432  14.360  10.313  16.939 -0.4215 -0.0755  0.0090
25899W        W45433   4.337   0.846   2.877 -0.1926  0.1661 -0.1386
25900W        W45434  16.126   9.274  14.514  0.2595  0.2554 -0.1112
25901W        W45435   9.506  16.149  15.179  0.0263  0.1049  0.0933
25902W        W45436  11.319  14.390  12.828  0.0217  0.1516 -0.2215
25903W        W45437   9.156  16.505  14.236 -0.0304 -0.1059  0.2244
25904W        W45438   8.341   7.248  16.555 -0.1607  0.1159 -0.1471
25905W        W45439   1.391  15.858   0.889  0.0590 -0.0171  0.0149
25906W        W45440   1.775  11.022   4.522  0.4847 -0.1690 -0.0318
25907W        W45441   4.865   4.126  12.796  0.2080  0.1408 -0.0354
25908W        W45442   1.613   4.769   3.961 -0.3761 -0.4005  0.0129
25909W        W45443   8.537   6.057   0.983  0.2491 -0.1530 -0.2342
25910W        W45444   7.948  11.024   3.934 -0.0762 -0.2134 -0.1390
25911W        W45445  13.025   9.793   2.899  0.0732  0.2048  0.1315
25912W        W45446   2.037  11.341  12.700 -0.3473 -0.0769  0.0563
25913W        W45447   7.543  15.196  13.293 -0.1932  0.0471 -0.0341
25914W        W45448  11.820  16.755  12.134 -0.2168  0.0711  0.4398
25915W        W45449   8.836   0.345   2.684 -0.1601  0.1160  0.0936
25916W        W45450  11.834  11.212   0.783 -0.2148 -0.1589 -0.2663
25917W        W45451  13.429   5.593  13.851  0.1941 -0.2155 -0.3626
25918W        W45452  17.322   4.264  12.465 -0.2825  0.1018 -0.0412
25919W        W45453  15.994  10.825   1.710 -0.1700 -0.0210  0.3849
25920W        W45454  10.901   8.238  16.858 -0.1872  0.0573 -0.0881
25921W        W45455  10.729   4.323   2.054  0.2517  0.4269 -0.0659
25922W        W45456   1.266   0.208  15.865 -0.1028  0.0265  0.1645
25923W        W45457   6.456  15.330   3.640  0.1281 -0.3329  0.1917
25924W        W45458   8.210   0.157  17.031 -0.1524 -0.1918 -0.2790
25925W        W45459  11.818  11.736   0.521  0.1837 -0.0699  0.1333
25926W        W45460  14.868  13.456   4.371 -0.4263  0.1269  0.0036
25927W        W45461   7.921   3.308   2.904 -0.2341  0.0859 -0.2334
25928W        W45462   8.718   4.366  14.560  0.0283 -0.0547 -0.0615
25929W        W45463  16.967  13.092   0.681  0.0216 -0.1577 -0.0794
25930W        W45464   7.717  15.474   3.085  0.1103  0.3861 -0.2434
25931W        W45465   1.096   7.108   4.516  0.4034  0.0869 -0.1574
25932W        W45466   2.306  14.334  14.794  0.2519 -0.0128 -0.1642
25933W        W45467   7.610  11.195   1.646 -0.0630  0.2075 -0.1284
25934W        W45468  16.874  13.316  13.635  0.0491 -0.1717  0.2049
25935W        W45469   7.543  16.481  12.065  0.1398 -0.1460  0.1065
25936W        W45470  11.105  16.560  13.749  0.0660  0.1778 -0.1128
25937W        W45471   4.259   9.345   0.033 -0.2327  0.1538 -0.0768
25938W        W45472   4.862  10.244   2.625 -0.0564 -0.1363 -0.1749
25939W        W45473  12.955  11.409  14.553 -0.6144 -0.1817  0.0098
25940W        W45474   2.286   9.256  13.576 -0.1782  0.0856 -0.0712
25941W        W45475   7.166  16.454  13.397  0.2689  0.1979  0.0723
25942W        W45476  10.743   3.207   2.071  0.1228 -0.0790 -0.0726
25943W        W45477   6.094   9.232  13.229 -0.1252 -0.0123 -0.1134
25944W        W45478   0.238   9.094   4.745 -0.0087  0.0335 -0.3474
25945W        W45479  16.775   2.916  17.072  0.2010  0.0071  0.3407
25946W        W45480  14.574  13.984   6.336  0.1525 -0.0789  0.3212
25947W        W45481   6.861   3.401  15.417 -0.1020  0.2408  0.0939
25948W        W45482  16.655   9.946   3.816 -0.1168  0.0094 -0.1260
25949W        W45483   6.762   2.125   2.085  0.0002 -0.1979  0.1429
25950W        W45484   0.810   3.098  16.482  0.0936 -0.0131 -0.1235
25951W        W45485  12.496  14.371  14.661  0.0921  0.3457 -0.3708
25952W        W45486  10.165  11.078  15.472  0.1828 -0.0139  0.2006
25953W        W45487   9.227   6.490   2.650  0.0940 -0.0784  0.0204
25954W        W45488   2.183   0.934   3.332 -0.2192  0.1439  0.3611
25955W        W45489  10.532   9.563   4.720  0.0761  0.0126 -0.2255
25956W        W45490   9.957   7.413   1.693 -0.2140 -0.3536 -0.2179
25957W        W45491   1.788   4.817  16.893  0.2633  0.2135  0.4385
25958W        W45492   7.262  14.405  14.102  0.0036 -0.1103 -0.0343
25959W        W45493  14.962   7.469   2.573  0.1148  0.0876 -0.1710
25960W        W45494   5.636   1.283   1.023 -0.0108 -0.0227 -0.2251
25961W        W45495   8.557  15.807   1.066  0.1822  0.1217  0.3846
25962W        W45496   8.116   6.433  15.173 -0.1789 -0.2399 -0.2403
25963W        W45497   7.294   0.021   0.509  0.1036  0.2621 -0.0142
25964W        W45498  10.238  16.831   1.548  0.0016  0.2207  0.1111
25965W        W45499  10.502  16.423   1.372 -0.0686  0.0086  0.2536
25966W        W45500  13.454   9.373  13.797  0.0999  0.0811  0.1009
25967W        W45501   8.071  15.677   4.142  0.1002 -0.2179  0.2420
25968W        W45502   9.870   9.975  16.337 -0.0899 -0.2078  0.0717
25969W        W45503   9.563   8.673   0.550  0.0544 -0.0136  0.0702
25970W        W45504  12.499  14.278  15.135 -0.0182  0.0161  0.0635
25971W        W45505   7.957   1.359  13.067 -0.3277 -0.0758 -0.0746
25972W        W45506  10.890   8.033  14.803 -0.0688  0.3902  0.1048
25973W        W45507  17.429  17.517  12.483  0.0882  0.0380  0.2514
25974W        W45508   3.256  12.995   5.243 -0.0266 -0.0538  0.3070
25975W        W45509  12.409   5.262  15.371  0.0579  0.1870 -0.1890
25976W        W45510   1.504   1.846   3.474 -0.0964  0.0562 -0.0678
25977W        W45511  10.670  14.922  12.321 -0.1150  0.0413  0.1480
25978W        W45512   4.227   3.137   1.686  0.0984  0.0988 -0.1246
25979W        W45513   8.714   1.125   0.377 -0.1668  0.0247 -0.1567
25980W        W45514  14.113   4.697  16.663 -0.0526  0.0620  0.1538
25981W        W45515   7.886  11.168  16.377  0.2544 -0.4734  0.1555
25982W        W45516   0.065  14.581  16.662  0.0273 -0.1121  0.0809
25983W        W45517   8.771  15.946   2.042 -0.0418  0.0652  0.0543
25984W        W45518   7.896  11.491  13.775  0.4136 -0.1259  0.0393
25985W        W45519   2.737   1.257  16.343 -0.1056  0.0195  0.1833
25986W        W45520  15.490   5.634  12.360  0.3770  0.0034 -0.1701
25987W        W45521   5.873   7.410   0.093  0.0597 -0.1918 -0.2426
25988W        W45522  12.759  12.949  12.029 -0.3739 -0.7758  0.2279
25989W        W45523   0.401   0.468   1.781  0.0210  0.0411 -0.1828
25990W        W45524   8.946   3.900   3.963  0.1070 -0.1403  0.1133
25991W        W45525   4.377  10.991   0.857  0.0054 -0.2918 -0.1073
25992W        W45526   2.349  13.985  15.795 -0.1266  0.0150 -0.0504
25993W        W45527   7.228  15.638   2.383  0.2707 -0.1571 -0.2909
25994W        W45528  10.215   7.086  16.545 -0.0325 -0.1882 -0.0434
25995W        W45529  11.002   9.174  14.034 -0.2435  0.1191  0.1293
25996W        W45530   0.827   6.540   0.690 -0.1618 -0.1958  0.0594
25997W        W45531   5.037   2.928   3.437 -0.1853 -0.0279 -0.1437
25998W        W45532   6.482  13.179   3.238 -0.0430  0.1423 -0.0721
25999W        W45533  17.449   7.591   4.083  0.2369  0.0968  0.0965
26000W        W45534  12.751   1.632   3.172  0.1857 -0.0182  0.2954
26001W        W45535  15.543  15.066  12.254  0.1192  0.1290  0.1613
26002W        W45536  11.562   4.663  13.164 -0.1895 -0.0378 -0.0598
26003W        W45537   7.726   7.335  15.699 -0.0440  0.1313 -0.5316
26004W        W45538  14.323  10.762  12.846 -0.2165  0.0540  0.1750
26005W        W45539   5.182  12.559  16.492  0.0606 -0.3515 -0.1233
26006W        W45540   1.448   3.041  12.878  0.2112  0.0122 -0.0584
26007W        W45541  11.691  12.005  13.476 -0.3978  0.2261 -0.1363
26008W        W45542  15.281  11.242  14.976 -0.1203  0.4265 -0.1272
26009W        W45543   4.423   6.296  14.724  0.1263  0.1531 -0.0687
26010W        W45544  14.266   4.155   2.296 -0.3269 -0.0731 -0.0868
26011W        W45545   9.847  10.888  13.877 -0.0231 -0.0047  0.0303
26012W        W45546   0.670   9.358   0.450  0.1700  0.0853 -0.1276
26013W        W45547  12.227   5.223   0.407  0.0433 -0.0126  0.1115
26014W        W45548   8.630   4.126  15.390  0.0017 -0.2345 -0.1830
26015W        W45549  13.016  16.069  14.374 -0.2694 -0.1999  0.0649
26016W        W45550   8.316  15.954   2.693  0.2694  0.1548 -0.3233
26017W        W45551   3.788   0.381   2.737 -0.0362  0.0750 -0.0282
26018W        W45552  16.671  12.889  13.437  0.0229 -0.1501 -0.0796
26019W        W45553  13.381  16.229  14.706 -0.0737  0.1342 -0.0969
26020W        W45554   9.985   4.350   0.803 -0.3316 -0.1570  0.0986
26021W        W45555   0.564   1.125   4.890 -0.3883 -0.0956  0.1459
26022W        W45556  15.945  11.199  16.288 -0.0143 -0.2381  0.2634
26023W        W45557   5.058   0.988  12.134  0.1531 -0.2926  0.0491
26024W        W45558   9.240   4.705   0.274  0.0163  0.2616 -0.0230
26025W        W45559  16.830  14.552   2.521  0.1265  0.3392  0.3287
26026W        W45560  14.157   8.528   0.527 -0.3235  0.0260  0.0880
26027W        W45561  12.459  16.697  12.644  0.1180  0.2633 -0.0188
26028W        W45562   8.082  10.794   0.466  0.2130  0.1491 -0.1817
26029W        W45563  17.351  13.037  15.430  0.1283 -0.0055  0.1091
26030W        W45564  14.909  11.524   3.233  0.3323 -0.0210  0.1648
26031W        W45565   3.976  15.470   4.225 -0.3188  0.0912 -0.2542
26032W        W45566  13.958   2.638   4.924 -0.1168 -0.0137  0.0483
26033W        W45567  13.008  13.098   2.786 -0.0086  0.0945 -0.0605
26034W        W45568  16.309  17.331  13.422 -0.5394 -0.2306  0.2589
26035W        W45569   2.810  10.189  15.877 -0.5492  0.1021  0.2901
26036W        W45570   8.140   4.142  16.999  0.1208  0.1848 -0.2610
26037W        W45571   1.692   3.019  16.657 -0.3518 -0.0665 -0.2086
26038W        W45572   5.052   7.890  15.431 -0.0011 -0.2880  0.0733
26039W        W45573  12.837   6.646  15.138  0.3833  0.0448  0.0178
26040W        W45574  14.721   8.384  13.327 -0.0426 -0.0703  0.2487
26041W        W45575   3.903  10.175   0.425  0.1995  0.0037  0.0961
26042W        W45576   9.031  14.193   1.203  0.1431  0.0086 -0.1470
26043W        W45577   4.218   9.135  14.358 -0.2522 -0.2995  0.1696
26044W        W45578   4.475   1.639   3.844  0.1581  0.1003  0.2724
26045W        W45579   4.724   8.694   3.289  0.0485 -0.1236  0.3255
26046W        W45580   1.911   5.376  14.880  0.0131 -0.4022  0.2839
26047W        W45581   0.987  14.049   3.691 -0.2921 -0.1861  0.3071
26048W        W45582   7.937   5.629   4.389  0.2615  0.2786 -0.1946
26049W        W45583   2.683  11.346  14.497 -0.0775  0.2153 -0.0982
26050W        W45584   3.068  11.985  14.035 -0.2366  0.2254  0.0644
26051W        W45585   3.009   2.904  15.456 -0.1485 -0.2592 -0.1220
26052W        W45586   2.821  12.451   0.716 -0.0281 -0.2928  0.0095
26053W        W45587   8.372   0.905  15.845 -0.1602 -0.0524 -0.2589
26054W        W45588  11.201  12.594   1.710 -0.1091  0.3490  0.3274
26055W        W45589   9.855   4.176   0.299 -0.2553 -0.0242  0.1657
26056W        W45590   5.974   9.200  17.036 -0.1229  0.0094  0.0779
26057W        W45591  16.268   5.984  13.578  0.2653  0.2877 -0.2752
26058W        W45592   3.515   3.895   3.219  0.0055  0.0450  0.1269
26059W        W45593  10.847   9.117   1.157 -0.1441  0.1697  0.1302
26060W        W45594   3.353   4.791   1.684  0.1274  0.1742  0.1185
26061W        W45595  11.480   6.078  11.871 -0.1243  0.2478  0.2149
26062W        W45596  16.967  13.809  14.324 -0.1313 -0.0915 -0.1180
26063W        W45597   0.950  16.390  12.287 -0.2195  0.1144  0.0457
26064W        W45598  14.737  13.481  16.960 -0.1474 -0.0549  0.0334
26065W        W45599   3.883  10.324  15.560 -0.0564  0.1918  0.1947
26066W        W45600  11.780  11.924  12.999  0.1583 -0.0608  0.1549
26067W        W45601   3.610  14.698  10.827 -0.1042  0.0289  0.2498
26068W        W45602  14.690   2.793  14.855  0.2736 -0.2045 -0.5342
26069W        W45603   9.949   4.177   3.572  0.1704 -0.1128  0.0145
26070W        W45604  14.556   8.928  14.123 -0.1014 -0.1065 -0.0666
26071W        W45605   7.150  16.363  11.302 -0.0595  0.0568  0.2621
26072W        W45606  13.814   1.916  17.011  0.1896  0.1459  0.2432
26073W        W45607  10.146   2.012  12.348 -0.3217  0.3115  0.1308
26074W        W45608  11.094   6.988   2.824  0.3598  0.1483  0.2848
26075W        W45609   2.269   5.520  15.236  0.2234  0.2501 -0.1086
26076W        W45610  15.677   2.567   2.383  0.0479 -0.0162  0.1917
26077W        W45611  16.160   5.670   0.884  0.2106 -0.3004  0.2391
26078W        W45612  14.325   5.692   0.878 -0.1476  0.5122 -0.1857
26079W        W45613   0.403  12.667  13.314  0.1605  0.1196 -0.2709
26080W        W45614   1.157   1.674   4.279  0.2743  0.1843  0.0492
26081W        W45615   9.135  15.459   0.724  0.0553 -0.2369  0.0528
26082W        W45616   1.594  17.450   0.827 -0.2632  0.3293 -0.1653
26083W        W45617   0.820   2.631   0.341 -0.1024  0.0538 -0.0767
26084W        W45618  11.048   8.871   1.523 -0.2479  0.3152  0.0103
26085W        W45619   1.692   1.048   1.359 -0.2929 -0.0078 -0.0385
26086W        W45620  10.114  13.665   1.348  0.0393  0.3026  0.0026
26087W        W45621  15.070   9.661   1.591  0.1520  0.1425 -0.0285
26088W        W45622  11.139  16.839  14.652 -0.0695  0.1335  0.0696
26089W        W45623   0.496   2.646  16.460 -0.2427 -0.1802 -0.0145
26090W        W45624  17.409  11.856  12.895 -0.0798 -0.0452 -0.0578
26091W        W45625   2.510   4.474  16.225 -0.1902 -0.4059  0.0970
26092W        W45626  11.404   9.227   0.551  0.2394 -0.1931  0.1642
26093W        W45627  13.145  14.682  14.052  0.1095  0.2153  0.0889
26094W        W45628   4.142   4.709  16.421  0.0563  0.0924  0.2524
26095W        W45629  12.162   9.676  16.573  0.1745 -0.0801  0.0075
26096W        W45630   3.095  12.363  15.195  0.1881 -0.0067  0.0278
26097W        W45631   7.565   8.494   3.518  0.0140 -0.1260 -0.0448
26098W        W45632   9.594  17.546   3.010 -0.1496  0.0797 -0.1336
26099W        W45633   7.451   7.187  13.982 -0.1434  0.0989  0.2558
26100W        W45634  14.792   8.267  14.977 -0.3731  0.0819  0.1076
26101W        W45635   1.117  14.660  15.641 -0.1028 -0.1461 -0.1092
26102W        W45636   9.170  16.634  13.188 -0.1728 -0.2856 -0.0967
26103W        W45637   4.253  15.937  15.615  0.0780 -0.3208 -0.0992
26104W        W45638  15.783   8.183  14.987 -0.0884 -0.2619 -0.1638
26105W        W45639   8.162  16.818   2.765  0.1396 -0.0650  0.1364
26106W        W45640   6.359   4.754   3.391  0.4434  0.0192 -0.0574
26107W        W45641  15.715  10.194  15.950  0.0851  0.0764  0.1148
26108W        W45642  15.090   0.442   4.203  0.1215 -0.1006 -0.4093
26109W        W45643  15.107  10.551   1.121  0.1887 -0.1963 -0.0168
26110W        W45644  17.631  12.340  13.129  0.1109 -0.3029  0.0833
26111W        W45645   0.056  16.565  12.214 -0.3144  0.2686  0.4036
26112W        W45646   9.796   2.158   4.015  0.1282  0.1488 -0.0592
26113W        W45647  16.021   2.377   4.946 -0.1543  0.1259 -0.1112
26114W        W45648   0.937   2.624  14.889 -0.1605 -0.2134 -0.2560
26115W        W45649  16.223  15.668   1.148  0.3220  0.3390 -0.0478
26116W        W45650  13.146   2.040  16.308  0.1064  0.0985 -0.0417
26117W        W45651  12.730  13.665   1.309 -0.1128  0.1708  0.1373
26118W        W45652  11.567   1.492  16.703 -0.2769  0.0720  0.0072
26119W        W45653   1.394   1.514   0.142 -0.2175 -0.0439 -0.0948
26120W        W45654  16.455  16.090   3.425  0.4219 -0.2092  0.1689
26121W        W45655  14.614   2.107   0.368  0.0575  0.0318  0.0545
26122W        W45656   3.016   4.534  14.400 -0.1741  0.1069 -0.0953
26123W        W45657   2.509   9.811  15.739 -0.1724  0.0227  0.1687
26124W        W45658  13.074   3.933  14.170 -0.1704 -0.1289 -0.1228
26125W        W45659   5.598  16.947   3.365 -0.3027  0.0492  0.1184
26126W        W45660   6.454   3.855  12.935  0.0829 -0.4211  0.1888
26127W        W45661   3.737   4.240   1.502  0.0243 -0.0557 -0.0773
26128W        W45662  12.788   3.661  15.300  0.1111  0.0694  0.2066
26129W        W45663   3.091   9.999   2.052  0.2457  0.2703  0.2003
26130W        W45664  17.384  11.899   4.025  0.0003  0.0735  0.0941
26131W        W45665   5.901   3.736   3.863 -0.3764 -0.1751 -0.0860
26132W        W45666  15.442   2.063   2.323 -0.0694 -0.1106 -0.1347
26133W        W45667   5.088   2.892  14.473 -0.0619  0.0100  0.2149
26134W        W45668   1.268  14.573  16.334  0.3463 -0.0413 -0.1600
26135W        W45669  14.767   7.828   0.405 -0.0510  0.2054 -0.1090
26136W        W45670   6.653  16.659   1.214  0.1030 -0.0047  0.1091
26137W        W45671   0.408  10.236   3.168 -0.0094 -0.1141 -0.0843
26138W        W45672  13.130   7.721  14.658 -0.1715  0.0351 -0.1525
26139W        W45673  14.242  11.824   1.432 -0.2825 -0.0875 -0.1654
26140W        W45674  14.362  12.528  15.701  0.4613  0.1921 -0.2877
26141W        W45675  10.811   1.327   0.632  0.0596  0.0978  0.1895
26142W        W45676  12.976  10.114  16.984  0.1103 -0.1608 -0.1661
26143W        W45677   0.228  16.863  16.645 -0.1482 -0.2276 -0.0562
26144W        W45678   3.602  11.380   1.936 -0.0651 -0.0709 -0.0310
26145W        W45679  15.911  17.341   3.297 -0.1147  0.0344 -0.1577
26146W        W45680   1.117   7.207   2.278  0.0278 -0.0412  0.0471
26147W        W45681   8.598   9.389  14.096 -0.1456 -0.0166  0.0060
26148W        W45682   9.956   5.008  15.596  0.4791  0.1567  0.0558
26149W        W45683   8.355  14.982   1.221  0.1418 -0.1551 -0.0173
26150W        W45684  14.816  12.523  16.470  0.0615  0.1444 -0.0037
26151W        W45685  11.411   9.653  12.770  0.0516 -0.1058  0.0866
26152W        W45686   5.936  12.014   4.551 -0.1614 -0.4087  0.1797
26153W        W45687   7.241   8.580  14.186  0.0238  0.2284 -0.1843
26154W        W45688  17.390   2.690   4.431 -0.3757 -0.0493  0.1443
26155W        W45689   8.347   7.382  13.980 -0.1078  0.0429 -0.0507
26156W        W45690  16.924   9.820  14.765 -0.0082 -0.3634  0.0001
26157W        W45691  16.003   7.426  14.556  0.1765  0.1608  0.0326
26158W        W45692  15.325   9.539  13.977  0.1202 -0.0198  0.1665
26159W        W45693   0.198   0.879   1.337  0.2532  0.0690 -0.0864
26160W        W45694  14.049  15.406   0.298 -0.1219 -0.2370  0.0177
26161W        W45695  10.499   0.402   3.674 -0.0094 -0.2436 -0.1344
26162W        W45696   2.365  14.996   4.974 -0.1111  0.0429  0.0760
26163W        W45697   7.143  12.876  15.789 -0.1003 -0.0554  0.0812
26164W        W45698   1.198   3.762  14.281 -0.0422  0.0644  0.0108
26165W        W45699   1.739   7.948  13.086 -0.2466  0.0628 -0.4030
26166W        W45700  10.732   3.265   1.469 -0.0922 -0.2135 -0.0868
26167W        W45701  14.692  12.136  12.280  0.4988  0.1694 -0.2916
26168W        W45702   9.730  11.541  13.199  0.0662  0.2454 -0.0434
26169W        W45703   8.532   4.787  14.361 -0.2064  0.2159  0.0725
26170W        W45704  10.128  12.117   4.105 -0.0849  0.0354 -0.0826
26171W        W45705  14.781   4.056   1.556 -0.1329 -0.1466 -0.0058
26172W        W45706  15.093  12.185   3.804  0.1906  0.0963  0.3862
26173W        W45707   9.342  12.668   1.008 -0.0105 -0.0910 -0.2053
26174W        W45708  13.968  15.035   1.454 -0.1493  0.0556  0.3914
26175W        W45709   2.958  17.205   1.315 -0.1104  0.1301  0.1804
26176W        W45710  14.949   4.928   0.007  0.0198  0.1143 -0.1336
26177W        W45711   5.086  11.198  16.309 -0.3917  0.3119 -0.0625
26178W        W45712  15.830   8.786  13.754 -0.1752 -0.0916 -0.0014
26179W        W45713  10.426  10.178  14.356  0.0986  0.0663  0.2768
26180W        W45714  12.737   0.771   3.336 -0.0788  0.0598  0.1561
26181W        W45715   3.100  10.629  14.901  0.1917 -0.1916  0.0166
26182W        W45716  14.067   8.439  14.984 -0.1006  0.0538  0.0019
26183W        W45717   7.293  13.853   1.028  0.1355 -0.0259 -0.1669
26184W        W45718  17.227   6.806  12.334 -0.0362  0.1466 -0.1530
26185W        W45719  13.163  13.858   2.298 -0.2888 -0.0506 -0.0213
26186W        W45720   0.051  11.359  14.324 -0.0209 -0.1268 -0.1047
26187W        W45721  16.738  17.210   3.412 -0.0682 -0.1643 -0.0653
26188W        W45722   0.352   7.511  14.617  0.0195 -0.1445 -0.2131
26189W        W45723  13.127  16.116  16.863  0.2680  0.0396  0.0685
26190W        W45724  17.316   2.478   3.556 -0.0820  0.0752 -0.0977
26191W        W45725   2.595   0.144   4.837  0.1009  0.1191  0.1124
26192W        W45726  16.744   8.967  14.364 -0.1150  0.1355 -0.1538
26193W        W45727  11.506   0.495   2.064 -0.0732  0.0145 -0.0149
26194W        W45728  17.606  13.219  16.353 -0.0010 -0.1650  0.1560
26195W        W45729   9.874  11.964   0.312 -0.2745 -0.1999  0.0291
26196W        W45730   6.110   0.773   3.661 -0.1551 -0.1795 -0.2219
26197W        W45731   4.207   7.695  14.469 -0.4302 -0.0629  0.1845
26198W        W45732  14.443  13.261  11.947 -0.4193  0.2296 -0.0667
26199W        W45733  15.293  14.871   0.719 -0.0190  0.0673  0.0155
26200W        W45734   5.679   0.313  16.210  0.0499 -0.0984 -0.0114
26201W        W45735  15.690   2.731   0.538 -0.3345  0.2345 -0.2081
26202W        W45736   4.661   6.181   0.240 -0.1302  0.2079 -0.0469
26203W        W45737   1.377   5.591   5.234 -0.1497  0.3129 -0.4319
26204W        W45738  10.349   0.886  14.844  0.1783 -0.0656  0.3107
26205W        W45739   6.759  16.900  14.102  0.3076 -0.2486 -0.2569
26206W        W45740  16.960   2.147  13.235 -0.0241 -0.1973  0.1734
26207W        W45741  13.831   0.063   3.950 -0.0054 -0.0129 -0.0059
26208W        W45742   0.719   3.668  13.665  0.0568  0.1800 -0.0660
26209W        W45743  10.154   4.977  16.473 -0.0948  0.1871 -0.1209
26210W        W45744  13.859   5.475   1.694 -0.1352  0.2910 -0.0343
26211W        W45745  11.892  11.913   1.916  0.0108  0.2432  0.0877
26212W        W45746  17.302  14.620  14.372  0.0181 -0.0106  0.0846
26213W        W45747  16.336  10.267   3.606 -0.4498  0.0496 -0.1502
26214W        W45748   8.974   1.549  12.367  0.1734 -0.3023  0.0917
26215W        W45749   9.958  13.703  14.306 -0.2001 -0.2055  0.0432
26216W        W45750   4.582  15.535  12.756  0.2528 -0.1972  0.1536
26217W        W45751  14.380  15.316   0.645 -0.2522 -0.1607 -0.1029
26218W        W45752   9.552   9.422  12.106 -0.0532  0.2929 -0.3314
26219W        W45753   2.145   5.312   3.526 -0.0329 -0.0813 -0.2476
26220W        W45754   0.574  15.379   1.177  0.1861  0.1716 -0.1385
26221W        W45755   7.955   1.503  12.602 -0.0806 -0.0392  0.2363
26222W        W45756   0.526   1.747  14.892 -0.0206  0.4222  0.1123
26223W        W45757   4.077  15.465  12.679 -0.0024 -0.2504  0.1709
26224W        W45758  14.810   1.413   1.925  0.2682  0.0056  0.0708
26225W        W45759   8.110   3.181  16.063  0.2505  0.0112 -0.3252
26226W        W45760   5.737  13.072   4.351 -0.2093 -0.1000 -0.2754
26227W        W45761   2.003   9.061   5.216  0.0259 -0.0268  0.1457
26228W        W45762  17.270   7.699  11.242  0.1228  0.2292  0.1070
26229W        W45763   8.821   6.211  14.582 -0.2855 -0.0981 -0.0403
26230W        W45764   7.639  13.576  14.015  0.0198 -0.0330  0.0762
26231W        W45765   7.405   6.372  13.947 -0.1994  0.3528 -0.0654
26232W        W45766   3.933  12.386  15.029  0.0999  0.0416 -0.2331
26233W        W45767   0.835   7.174  14.481  0.2212 -0.1619  0.0200
26234W        W45768   5.268  16.488   3.538 -0.1645 -0.1438 -0.0344
26235W        W45769  16.072   9.688  12.534 -0.1242  0.0506 -0.0746
26236W        W45770   3.747  17.537  13.767 -0.3173 -0.2063  0.1914
26237W        W45771   9.244   6.292  11.475 -0.1421  0.2167  0.0632
26238W        W45772   7.731  11.702  14.405 -0.4619  0.0862 -0.1691
26239W        W45773   6.819   4.002   0.350 -0.0756  0.0253  0.3908
26240W        W45774   7.512  11.759   0.380 -0.1867  0.3937  0.1557
26241W        W45775   0.283   0.009   2.009 -0.0188 -0.1805 -0.0195
26242W        W45776   1.400   2.963   0.215  0.0490 -0.1384 -0.0511
26243W        W45777   8.348  11.849   4.628  0.4517 -0.0210  0.1317
26244W        W45778  11.022   0.406   3.853  0.1393 -0.1196 -0.0481
26245W        W45779   2.687  11.507  16.366 -0.3282 -0.0456  0.0345
26246W        W45780   4.544  13.763   0.524  0.1803 -0.0478  0.3504
26247W        W45781  17.600   9.470   4.547 -0.0915 -0.0053  0.2042
26248W        W45782   3.465   0.917   1.411  0.0373 -0.0723 -0.1099
26249W        W45783   9.247   2.142   2.755 -0.0751  0.2326 -0.0406
26250W        W45784  14.090   0.633  16.155  0.3095  0.0632 -0.0265
26251W        W45785  13.835   3.712   0.306 -0.1525  0.1894  0.2360
26252W        W45786   2.578  17.106  15.560 -0.0390  0.0654  0.2391
26253W        W45787  11.491  15.982   3.590 -0.3581  0.5281 -0.0469
26254W        W45788  12.539  11.545   0.981 -0.0928  0.1504 -0.2144
26255W        W45789   0.972   1.765  16.296  0.0452 -0.2171 -0.2166
26256W        W45790  10.974   7.216  12.895 -0.0285 -0.0972 -0.0279
26257W        W45791   7.467  14.831   0.122  0.0674  0.0326  0.2493
26258W        W45792  13.391   3.188   2.228  0.1520 -0.2423  0.0034
26259W        W45793  15.528   6.895   3.944  0.1623  0.1257  0.1675
26260W        W45794  10.219  16.752  15.342  0.0818 -0.0416  0.0398
26261W        W45795   9.254   4.931  13.908  0.1699  0.1846  0.1827
26262W        W45796   4.686  15.702   3.891  0.0947 -0.0604  0.1372
26263W        W45797   3.643  13.520  15.580  0.0589 -0.1314  0.0170
26264W        W45798   6.986  15.655  13.080 -0.0924  0.0369 -0.1468
26265W        W45799  12.890  15.961  12.367  0.2590  0.0256  0.0581
26266W        W45800   1.698  13.477   3.088  0.4812 -0.0266 -0.0679
26267W        W45801  10.773  14.405   4.345  0.3614 -0.1355 -0.1593
26268W        W45802   8.334   5.278  14.255  0.0609  0.1124 -0.1975
26269W        W45803  12.494   0.123   0.253 -0.0160  0.3017  0.4019
26270W        W45804   9.749  10.699   5.656 -0.0144  0.1941 -0.0376
26271W        W45805   8.573  12.581   1.493  0.0483 -0.1682  0.0059
26272W        W45806   2.049   0.618   4.075 -0.2007  0.1290  0.1795
26273W        W45807   1.423   0.104  17.041 -0.1359  0.0442 -0.0210
26274W        W45808  15.057   1.112  15.202  0.0312 -0.1737  0.1841
26275W        W45809   3.279   7.176   1.258  0.0537 -0.2208  0.0645
26276W        W45810   4.309  17.582   4.798  0.1160  0.2872 -0.4509
26277W        W45811  16.187   4.120   2.153  0.3227 -0.0609  0.1571
26278W        W45812   1.834  17.057   3.412  0.0181 -0.4815 -0.0444
26279W        W45813  13.619  13.403  13.299  0.0706 -0.0507  0.2871
26280W        W45814  16.389   9.268  12.697 -0.2100 -0.0366  0.0034
26281W        W45815   3.823   1.458  14.935 -0.0051 -0.0036 -0.0328
26282W        W45816  14.346   3.365  12.630 -0.0111  0.0072  0.3105
26283W        W45817  12.162  11.659   4.565  0.3098 -0.0926 -0.3369
26284W        W45818   7.981  16.924  13.512  0.1218 -0.0053  0.0732
26285W        W45819   0.631   2.840   0.765 -0.1930  0.0487 -0.1528
26286W        W45820   9.753   8.088   4.404 -0.0750  0.1453  0.1626
26287W        W45821   6.957   1.663   1.264  0.1444  0.0299 -0.1099
26288W        W45822  13.748   3.348   1.518  0.1253  0.1344 -0.0900
26289W        W45823   1.938   2.665  14.767  0.2611  0.0015 -0.0327
26290W        W45824   7.605   7.845   0.239  0.1157  0.0540  0.2862
26291W        W45825   5.887  10.466  14.144 -0.1145  0.0715 -0.1391
26292W        W45826   2.953   6.633  16.217 -0.1434 -0.1011  0.2016
26293W        W45827  11.401   2.342   0.584 -0.4020 -0.1922  0.1091
26294W        W45828   3.533  15.703  14.090  0.1993  0.1741  0.0434
26295W        W45829   3.481   4.781  12.418 -0.3716  0.1164 -0.2737
26296W        W45830   8.621   7.252  15.756  0.0697  0.1013  0.0299
26297W        W45831  11.630  14.019  13.068  0.1958  0.1570 -0.0239
26298W        W45832   1.346   5.827   1.791  0.0638  0.0827 -0.1043
26299W        W45833   5.914  12.802   0.308  0.2656 -0.0264 -0.0944
26300W        W45834   1.450   3.336   2.750  0.4976 -0.1763 -0.1623
26301W        W45835   4.010   9.382   4.294  0.0578  0.0221  0.2242
26302W        W45836   4.529  13.138  12.929  0.1266  0.0841 -0.1947
26303W        W45837  15.525   2.526   5.147  0.2734 -0.0101 -0.1858
26304W        W45838   1.566  14.009  13.615 -0.0204 -0.0292 -0.1870
26305W        W45839   5.037  11.870   1.713 -0.0064  0.3004 -0.0068
26306W        W45840   5.378   6.841  14.366  0.0655  0.2403 -0.2696
26307W        W45841   0.984  10.032  16.126  0.0378  0.0965  0.0735
26308W        W45842   3.019   2.018  14.986 -0.4510 -0.1202 -0.0957
26309W        W45843  13.092  14.148   3.561 -0.1634  0.0917  0.2368
26310W        W45844   8.118  12.387   3.382 -0.2178 -0.0700  0.0705
26311W        W45845  11.933   4.212   2.553  0.1405 -0.0305  0.0500
26312W        W45846   9.671   0.135  15.073  0.3849 -0.4118  0.1688
26313W        W45847   4.770  10.414   0.795  0.0445  0.1765  0.3418
26314W        W45848  12.631  11.779  14.135  0.3138 -0.4425 -0.1013
26315W        W45849   5.406   3.288   1.748 -0.0834 -0.0449 -0.0199
26316W        W45850  17.481   9.345   0.482 -0.0150 -0.0090  0.1864
26317W        W45851  11.767  14.896   0.869  0.1860  0.0054  0.1603
26318W        W45852   2.023  12.962  14.669 -0.0955 -0.3076  0.1328
26319W        W45853  17.619  13.445  15.193 -0.2543  0.1918  0.1987
26320W        W45854   6.507  14.872  16.879 -0.3266  0.2337  0.0667
26321W        W45855   0.976   2.256  16.162 -0.2965  0.2971 -0.0309
26322W        W45856  15.747  14.805  13.328 -0.0822 -0.1427  0.2256
26323W        W45857  16.914   6.193  12.888 -0.0461 -0.2443  0.0122
26324W        W45858   6.279   9.121   4.166 -0.1066 -0.2144 -0.3247
26325W        W45859  10.970  12.141  12.967 -0.1405  0.1587  0.1748
26326W        W45860  15.314   9.387  16.221 -0.0294  0.2660 -0.0238
26327W        W45861  12.382  16.663  15.990 -0.1661  0.0730  0.1985
26328W        W45862   0.306   9.956   5.823  0.0483  0.2448 -0.4131
26329W        W45863   8.904   1.126   3.678  0.2797  0.2873 -0.1176
26330W        W45864   8.691   8.854   0.792  0.0206 -0.0539  0.2486
26331W        W45865  10.203   5.441  14.020 -0.0694  0.0417  0.0993
26332W        W45866   0.054   7.562  16.573 -0.1171 -0.1050 -0.2750
26333W        W45867   3.359   2.971   3.259  0.1318  0.1297  0.0982
26334W        W45868  12.346   2.645   1.546 -0.0491  0.0296 -0.2953
26335W        W45869   9.259  14.162  14.614  0.2851  0.1540 -0.1485
26336W        W45870   0.206  17.140  13.873  0.3541 -0.0019 -0.2150
26337W        W45871  12.903  12.667  14.675  0.2468 -0.2300 -0.1979
26338W        W45872   7.002   1.135  13.436 -0.0893 -0.2942  0.0281
26339W        W45873  14.118   8.059  12.760 -0.1774 -0.2497  0.0268
26340W        W45874   1.431   0.116   0.498  0.0739  0.1955 -0.1166
26341W        W45875   3.980   3.683   0.667  0.3387  0.0063 -0.1916
26342W        W45876   0.695  12.917  12.867 -0.0857  0.0601 -0.0545
26343W        W45877   2.652   5.024  15.317  0.1030 -0.0620 -0.0306
26344W        W45878  12.018  10.736  13.441  0.2148 -0.0841  0.1151
26345W        W45879   1.257  14.266   3.363  0.2071  0.0317 -0.0355
26346W        W45880  15.167  13.141   0.069  0.0455 -0.1428  0.1318
26347W        W45881   3.131  12.144   0.363  0.1365  0.0682 -0.1323
26348W        W45882   8.887  17.436   2.525  0.0219 -0.0323 -0.1108
26349W        W45883  17.411  10.805  14.974 -0.1536  0.0321 -0.0627
26350W        W45884   2.867  11.557  16.845 -0.2701 -0.1143 -0.0406
26351W        W45885   5.133  12.995   0.513 -0.0713  0.1609  0.3528
26352W        W45886  17.257   9.390   3.133 -0.1120 -0.1575  0.0236
26353W        W45887   0.278   8.132   1.793 -0.3255 -0.4608  0.2564
26354W        W45888  13.536   4.390  15.423 -0.0301  0.1031  0.3024
26355W        W45889  13.175  13.335   0.420 -0.1315 -0.1064 -0.0052
26356W        W45890   7.516   4.628   3.066  0.2298 -0.3545 -0.1091
26357W        W45891  16.004  15.177   4.270 -0.3195 -0.1513  0.0219
26358W        W45892  14.959   6.354  15.530 -0.0192 -0.2521 -0.0159
26359W        W45893   3.270   0.608  14.058 -0.0207 -0.1973 -0.0729
26360W        W45894  16.253  13.913   4.349 -0.0554  0.0629 -0.0666
26361W        W45895  17.517  17.070   0.159 -0.1595  0.2258  0.2918
26362W        W45896  16.119  13.599   3.122 -0.0295  0.1643 -0.0748
26363W        W45897   9.422   3.124   3.510  0.0632 -0.0156  0.0269
26364W        W45898   2.190  10.982   0.422 -0.0310  0.0652  0.0706
26365W        W45899   1.411   0.654   2.665  0.1357  0.2917  0.1747
26366W        W45900  11.152  15.492   0.005  0.0952 -0.1466  0.2148
26367W        W45901  17.486   9.819  12.530  0.0071 -0.1478 -0.2481
26368W        W45902   9.695   1.528  14.256  0.1835 -0.0571 -0.3391
26369W        W45903  14.389  15.437   1.560  0.0980  0.0697  0.1996
26370W        W45904  16.206  16.910  12.741  0.0972 -0.0561  0.4004
26371W        W45905  16.801   9.453  16.132  0.3090  0.2076  0.0401
26372W        W45906  14.715   9.125  13.665 -0.3602 -0.3325 -0.1408
26373W        W45907  11.689  16.665  16.893 -0.1931 -0.1700  0.0033
26374W        W45908  13.406  14.095   4.233 -0.1685 -0.0055 -0.0166
26375W        W45909  13.417   5.209   4.971  0.1204  0.1705  0.0498
26376W        W45910   0.227  10.803  14.763 -0.0925 -0.1136 -0.1324
26377W        W45911  13.115   2.188   1.073  0.1710 -0.1318  0.1473
26378W        W45912  12.953  10.828   4.639 -0.1002 -0.2621 -0.2218
26379W        W45913  10.474   8.321  15.388  0.1751  0.0060 -0.1357
26380W        W45914  14.466   6.170  15.768  0.0709  0.0560 -0.1712
26381W        W45915   6.811   8.698  14.482  0.1219 -0.0162 -0.0206
26382W        W45916  13.904   2.485  13.892 -0.4533 -0.0201  0.0642
26383W        W45917  15.055   4.104   1.157  0.1717  0.1511 -0.1501
26384W        W45918   9.506  12.744  10.624  0.3878  0.0153 -0.1026
26385W        W45919   2.977  13.778   1.344  0.1607  0.2094  0.0195
26386W        W45920   4.420   0.768   2.380  0.1275 -0.2026 -0.0512
26387W        W45921  16.441  11.373  14.860 -0.0900  0.1525  0.1542
26388W        W45922  16.110   7.723   3.222  0.0744  0.1200  0.0642
26389W        W45923   9.794   1.615  12.472  0.0917  0.0265  0.3259
26390W        W45924   6.360  16.005   5.008  0.3034  0.4990 -0.1005
26391W        W45925   5.465  13.725   0.054  0.0166 -0.0584  0.0200
26392W        W45926  12.177  12.636   3.268  0.1721  0.1607 -0.1874
26393W        W45927   6.618   5.760   0.044 -0.2126 -0.0673 -0.3028
26394W        W45928  15.827  17.664   4.445 -0.3750  0.1779 -0.3266
26395W        W45929  12.589   0.615   3.803  0.0254  0.1050  0.0177
26396W        W45930   4.037   6.378   4.788  0.1985 -0.3183 -0.0179
26397W        W45931   5.913   4.407  17.023  0.0820  0.5269  0.3950
26398W        W45932   5.769   1.677  16.004  0.0055  0.0349 -0.2022
26399W        W45933   9.915  10.730   1.951  0.0732 -0.0959  0.0098
26400W        W45934   2.075   8.104  15.152 -0.2181  0.0550  0.1738
26401W        W45935  11.810   1.006   4.102  0.2589 -0.1457  0.0007
26402W        W45936   5.152   6.367  13.141  0.3069 -0.1034  0.3403
26403W        W45937   9.274   0.693   1.726 -0.0580 -0.1559  0.0014
26404W        W45938  17.373  12.514   3.782 -0.0295 -0.2939 -0.2119
26405W        W45939   0.220  13.349   1.028 -0.0849  0.0459  0.2226
26406W        W45940  12.229   5.204  14.212 -0.1591 -0.2823 -0.1715
26407W        W45941  15.442  14.872   4.886 -0.0087 -0.0657 -0.4797
26408W        W45942   1.499   8.403   4.082 -0.1432  0.0491  0.2804
26409W        W45943   6.345  15.021  13.229 -0.0505  0.0440 -0.0683
26410W        W45944  11.096   1.747   0.551 -0.2463  0.2006 -0.1813
26411W        W45945  13.731   7.893   2.012 -0.0417  0.3081  0.3847
26412W        W45946  13.342  14.111   1.112 -0.0754  0.1168 -0.1338
26413W        W45947   4.532   6.173   3.825  0.2918  0.0073  0.0760
26414W        W45948   6.101   7.921   0.695  0.1964 -0.0442 -0.0102
26415W        W45949   9.942   6.037  13.274  0.3791 -0.3037 -0.0699
26416W        W45950   2.206  13.383  16.915 -0.0932  0.1425  0.0567
26417W        W45951  10.125   7.284  11.812 -0.0733 -0.1278 -0.1400
26418W        W45952   2.431  14.183   3.970  0.3522 -0.0116  0.0872
26419W        W45953   2.001  11.953  12.020 -0.1136  0.1380 -0.2575
26420W        W45954   9.825   3.283   0.796  0.1130 -0.1628  0.0368
26421W        W45955   5.508   4.794  12.871 -0.0154  0.0669 -0.3239
26422W        W45956   0.658  11.071   5.056  0.0695 -0.3240 -0.2306
26423W        W45957  15.623   9.528   2.257 -0.3016  0.3562 -0.3045
26424W        W45958  17.078   1.570   3.280 -0.0503  0.1713  0.1654
26425W        W45959  12.554   1.365  13.211  0.1163 -0.0434  0.0042
26426W        W45960   1.884  15.421   0.799  0.1387 -0.0545 -0.1266
26427W        W45961  13.613   1.068  12.369  0.2968  0.1694  0.0298
26428W        W45962   7.944   7.439  14.864  0.1837 -0.3845 -0.1262
26429W        W45963  11.522   8.738   1.547 -0.1610  0.0027 -0.0242
26430W        W45964  11.033   8.333  14.046  0.3193  0.1455 -0.1751
26431W        W45965  10.202  11.019  14.229 -0.0493 -0.0353 -0.0070
26432W        W45966  15.073  14.967   3.951 -0.0079 -0.1072 -0.4877
26433W        W45967  10.976  13.070   1.567 -0.0907  0.0078 -0.1628
26434W        W45968  16.342  17.112  14.904 -0.0061  0.2566 -0.2576
26435W        W45969  15.071  13.440  16.589  0.0638 -0.1322  0.2084
26436W        W45970  15.289   0.958  13.353  0.0066  0.1208 -0.0250
26437W        W45971   1.644   8.920  15.216 -0.1051  0.1939 -0.1263
26438W        W45972   9.288   1.486  12.850  0.0541  0.1794 -0.0462
26439W        W45973  15.704   8.517   2.899 -0.0212 -0.1801 -0.0290
26440W        W45974   7.018   8.189  15.625 -0.1789  0.1227  0.0173
26441W        W45975  12.520  15.623   5.509  0.0576 -0.0734  0.1482
26442W        W45976   3.537  12.629   0.055 -0.0329  0.1068  0.1842
26443W        W45977   2.129   4.035   3.211  0.1305 -0.3055 -0.0423
26444W        W45978   6.489  10.624   3.640  0.0457 -0.1624  0.3185
26445W        W45979  17.284  17.319   3.382 -0.0688  0.2102  0.0371
26446W        W45980  13.098  11.983  13.437 -0.1302  0.0307  0.1016
26447W        W45981   5.643  10.404   3.234  0.1750  0.1518 -0.2555
26448W        W45982  14.321  12.000   3.755  0.2203  0.0293 -0.0948
26449W        W45983   7.588  11.117   1.036 -0.0109 -0.0429 -0.0593
26450W        W45984  11.718  13.722   3.029 -0.1660  0.0937 -0.0986
26451W        W45985   2.605   5.559  17.029 -0.1296 -0.0130 -0.0050
26452W        W45986  14.909  10.652  15.545  0.0984 -0.0260  0.0666
26453W        W45987   0.575  16.942  16.028 -0.0196  0.1529  0.0482
26454W        W45988   2.745   7.512   2.265  0.1661 -0.1277  0.0352
26455W        W45989   9.725  16.603   4.376  0.0207 -0.0567 -0.4928
26456W        W45990  13.026   1.914   0.131 -0.0537  0.2169  0.0070
26457W        W45991  15.313   8.220  16.804  0.1143 -0.0807  0.0556
26458W        W45992   0.980  15.540   0.035  0.1337  0.0711  0.1792
26459W        W45993  17.511  16.070  15.763 -0.0907  0.0771  0.1371
26460W        W45994  14.054   5.373   3.260  0.1459 -0.1809  0.1991
26461W        W45995   0.654   3.247   1.526 -0.1448 -0.0630 -0.1456
26462W        W45996   3.056  10.377   1.651  0.0126 -0.0021 -0.0331
26463W        W45997   4.259   5.784  13.157 -0.3209  0.1475  0.0180
26464W        W45998   8.357  13.139  12.727 -0.0907 -0.1857 -0.0818
26465W        W45999   4.575   4.256   1.059 -0.1385  0.0365 -0.1126
26466W        W46000  13.859  11.303   2.112  0.1924  0.1634  0.0583
26467W        W46001   0.451   5.066  13.975  0.2397 -0.0481 -0.1318
26468W        W46002   7.934  13.384   2.475  0.1595  0.0733  0.1333
26469W        W46003   6.356  17.502   4.414  0.2125 -0.1481  0.1284
26470W        W46004   0.867  12.007   2.019  0.1390 -0.0063 -0.0983
26471W        W46005  14.694   7.925   4.416  0.1409 -0.1774 -0.0798
26472W        W46006   0.767   2.254   1.553 -0.2675 -0.4997  0.0550
26473W        W46007  16.770  14.108  12.453  0.1248 -0.1615  0.0108
26474W        W46008  16.984   7.715  16.322 -0.1980 -0.1273 -0.0362
26475W        W46009   2.052  11.196   1.268 -0.0021 -0.0500 -0.2483
26476W        W46010   4.339  11.090  15.254  0.0856  0.1263  0.1006
26477W        W46011  13.935   7.722  14.141 -0.0870  0.0116  0.2763
26478W        W46012   9.012   2.851  12.845  0.1733 -0.0842 -0.1047
26479W        W46013  14.967   7.364   0.510 -0.0446  0.0563  0.3486
26480W        W46014   8.056  12.980   0.883 -0.1339 -0.0952 -0.4067
26481W        W46015  16.930   5.893  15.666  0.2667 -0.0484 -0.0207
26482W        W46016  15.712   0.781  14.654 -0.3603 -0.0242 -0.0396
26483W        W46017   3.237  17.046   3.435  0.0795  0.2563  0.0297
26484W        W46018   4.457  12.222  16.267  0.1014  0.0440 -0.0169
26485W        W46019   5.306  10.647  13.036  0.0181  0.1066 -0.0595
26486W        W46020   5.551  10.987  13.360  0.2721  0.1855 -0.1928
26487W        W46021  16.353  10.857   2.850  0.1782 -0.0776 -0.4457
26488W        W46022  12.546   9.278  15.396  0.0299 -0.2219 -0.2010
26489W        W46023   7.314  13.718   1.670  0.0815 -0.1547  0.0464
26490W        W46024   1.815   9.458  12.808  0.1278  0.0531 -0.2039
26491W        W46025  13.215  11.534   0.338 -0.0168 -0.0207  0.0260
26492W        W46026  14.853   5.000   1.931 -0.1851 -0.2561  0.3236
26493W        W46027   2.155   3.699  17.060 -0.1506  0.1241  0.0082
26494W        W46028   3.593   6.887   1.865  0.1741 -0.1939  0.3398
26495W        W46029   3.698  17.369   3.562 -0.0848  0.2088 -0.0179
26496W        W46030   9.761   1.905   3.527 -0.0752 -0.2956  0.1840
26497W        W46031   4.332  15.088  15.923 -0.0972 -0.0492 -0.1926
26498W        W46032   1.842  16.157   5.511 -0.3870  0.1906 -0.0172
26499W        W46033   8.428  10.630  12.613  0.1181  0.2890 -0.0377
26500W        W46034  16.345   8.889  13.788 -0.3519  0.2959  0.0767
26501W        W46035  16.568   0.112   0.209 -0.1205 -0.1967  0.2557
26502W        W46036   0.497  15.339   3.786 -0.0546 -0.0226 -0.0166
26503W        W46037  10.745  13.577   4.848 -0.2296 -0.3355  0.1060
26504W        W46038   5.793  11.631   4.868  0.0311  0.3353  0.0087
26505W        W46039   6.650  17.416  16.020  0.1655  0.0944 -0.0074
26506W        W46040   9.611   1.078  14.453  0.2416 -0.0847 -0.1206
26507W        W46041  12.202   7.147   1.808 -0.0513  0.2810 -0.0048
26508W        W46042  13.653   8.253   3.822  0.3156  0.1703  0.0304
26509W        W46043   2.202   4.592  15.579  0.0901  0.2315 -0.1604
26510W        W46044  13.088  14.289   1.493 -0.0747  0.2537 -0.1330
26511W        W46045   5.301   6.854  13.312  0.1956  0.1882  0.0618
26512W        W46046   1.034  16.251   4.962  0.0612  0.0563  0.0421
26513W        W46047  13.438   0.323   4.092 -0.3963  0.2487 -0.1052
26514W        W46048  10.334   1.532   0.486 -0.2984  0.1077 -0.6911
26515W        W46049   8.128   5.214  12.582  0.2081 -0.0895 -0.0927
26516W        W46050   7.554  17.154  14.371  0.0282 -0.1870  0.0524
26517W        W46051  17.476  13.628  14.148 -0.1600 -0.0941 -0.3004
26518W        W46052  12.076   7.419  13.301  0.2936 -0.1828 -0.1359
26519W        W46053   8.281   6.237  12.022 -0.0131 -0.0336 -0.2077
26520W        W46054   6.222   2.556   4.288 -0.0417  0.0605 -0.1263
26521W        W46055  15.514   1.872  15.473  0.2913  0.0029  0.1208
26522W        W46056  15.760   9.724  15.835 -0.0002 -0.2362  0.0418
26523W        W46057   0.813   5.447  14.055 -0.1127 -0.0569  0.0211
26524W        W46058  16.277   9.887   2.524  0.0052  0.2389 -0.0122
26525W        W46059  16.281   9.241  16.147  0.0357  0.0681  0.1175
26526W        W46060   5.472   1.666   3.993  0.0219 -0.1165 -0.0827
26527W        W46061  16.502   4.547   2.557 -0.2704  0.1016  0.0811
26528W        W46062  15.810   7.811   2.384  0.1206  0.0623 -0.1033
26529W        W46063  12.489   2.085   6.086  0.0433 -0.2107 -0.0877
26530W        W46064   6.134   8.780   2.440 -0.0299  0.0480  0.0575
26531W        W46065   9.779  13.176   4.067  0.4748  0.1564  0.0401
26532W        W46066   6.236   5.440   1.505 -0.3059  0.2106 -0.1102
26533W        W46067   7.538  15.222  15.614  0.2099  0.1081  0.0986
26534W        W46068  15.331   2.242  15.230  0.2213  0.3338 -0.2822
26535W        W46069  12.664  13.819  11.818  0.1695 -0.0184  0.0639
26536W        W46070  15.438   8.586  14.958  0.0309 -0.1055 -0.1247
26537W        W46071   2.444  10.352   1.760 -0.2848  0.0281  0.3486
26538W        W46072   3.137  13.382  12.261  0.1310 -0.1943 -0.0198
26539W        W46073  17.108  17.173   2.114  0.0415 -0.0484 -0.0601
26540W        W46074   0.550  13.807  12.402  0.1361  0.0184 -0.1298
26541W        W46075  13.710   7.204   0.941  0.1045  0.0309  0.1048
26542W        W46076   8.675   1.568  15.069  0.0587 -0.0781  0.0569
26543W        W46077   3.799   1.821   3.186  0.1096  0.1120 -0.2018
26544W        W46078   3.133   8.061   2.045 -0.1498 -0.0295  0.1880
26545W        W46079   3.414   0.377  12.631 -0.1151 -0.0690 -0.3697
26546W        W46080  11.719   9.327   0.959 -0.0606 -0.0158 -0.3976
26547W        W46081  16.820   5.423   3.879  0.0554  0.1767 -0.0194
26548W        W46082   5.757   5.126  15.817 -0.1405 -0.0615  0.0819
26549W        W46083   0.152   5.329   1.780  0.1934  0.1903  0.2349
26550W        W46084  12.986  17.041  15.212  0.0067 -0.0344  0.1088
26551W        W46085  13.620   5.334   2.142  0.1467  0.0421  0.0596
26552W        W46086  11.747   8.246  14.342 -0.4169  0.2494 -0.1788
26553W        W46087  11.990  12.161   1.235  0.5532  0.0379 -0.1211
26554W        W46088  17.189  16.207  13.229  0.0935 -0.0777 -0.3756
26555W        W46089  17.269  15.126   4.148 -0.0037 -0.0261  0.0264
26556W        W46090   4.038  13.262  14.418 -0.0277  0.1802 -0.2779
26557W        W46091   9.966  16.678  13.725  0.2100  0.2598 -0.1790
26558W        W46092  13.457  17.146   2.288  0.0685 -0.1647  0.1433
26559W        W46093  11.556   0.575   4.007 -0.3458 -0.0901 -0.1132
26560W        W46094   6.777  14.151   4.855 -0.2124  0.0601 -0.2075
26561W        W46095   7.969  12.698   3.820  0.1109 -0.1771 -0.0429
26562W        W46096   3.356   4.337   5.181 -0.1971  0.1445  0.0212
26563W        W46097   5.316   5.394  12.701 -0.1298 -0.0118  0.0126
26564W        W46098   5.968  10.634   1.780 -0.0623 -0.1340  0.2807
26565W        W46099  17.563   4.371   1.364  0.1280 -0.1493 -0.0553
26566W        W46100   8.150  17.091   1.259  0.1080  0.0746 -0.1408
26567W        W46101   4.448  13.159  12.048  0.0956 -0.0483  0.1362
26568W        W46102  14.962  15.568   3.645 -0.0813 -0.1059 -0.1832
26569W        W46103   4.299   3.236  15.664  0.2013  0.1391 -0.0118
26570W        W46104   3.747  10.076  13.177  0.0972 -0.0396 -0.1843
26571W        W46105   5.286   2.816  12.857 -0.1676  0.3175  0.2715
26572W        W46106  17.472  13.708   4.534  0.0143 -0.0009 -0.2125
26573W        W46107   9.197   3.520   3.795 -0.2291 -0.1206  0.1095
26574W        W46108   1.311   4.973  13.423 -0.0190 -0.0758  0.0286
26575W        W46109  12.032  13.540   1.775 -0.1993  0.0921 -0.0173
26576W        W46110  12.208  13.451   1.321 -0.1782  0.0190 -0.0710
26577W        W46111  15.227  16.701  14.725  0.1009 -0.0266  0.1276
26578W        W46112   2.564  12.948   1.514 -0.0700  0.5261 -0.1471
26579W        W46113   5.437   9.096  13.903  0.2616  0.3508 -0.0943
26580W        W46114  14.470  10.560   2.498 -0.2222  0.2022 -0.3391
26581W        W46115   5.830   4.624  13.538  0.0897  0.0188  0.3666
26582W        W46116  12.196  15.959  13.799 -0.0876 -0.1590  0.2220
26583W        W46117  17.447   5.972   3.377  0.1567 -0.1150 -0.1033
26584W        W46118  11.236  10.130  15.483  0.4576  0.1289 -0.2274
26585W        W46119  14.229   3.433  14.268  0.1105 -0.2645  0.2135
26586W        W46120   3.602   0.699   0.733  0.2620  0.1447  0.1342
26587W        W46121   4.925  16.285  16.455 -0.1162  0.1283  0.1243
26588W        W46122  15.693  11.813   0.818 -0.3456 -0.0872  0.0924
26589W        W46123   7.393  10.999   0.073 -0.0170 -0.0445 -0.1870
26590W        W46124   1.422  14.118   2.855  0.0833 -0.2823  0.0399
26591W        W46125   5.085  17.381   3.906  0.1272 -0.0103  0.2188
26592W        W46126   8.613   4.166  14.061 -0.0296 -0.2215  0.0255
26593W        W46127   7.107  15.443  13.513 -0.0703 -0.1772 -0.1003
26594W        W46128  10.775  14.458  15.513  0.1954  0.1542  0.0933
26595W        W46129  12.089  15.306  17.053  0.0093  0.0666  0.2647
26596W        W46130   0.342   8.477  12.382 -0.0766 -0.0928 -0.1931
26597W        W46131  15.661   9.796  13.393  0.0886 -0.0249  0.0209
26598W        W46132   5.488   6.707  15.274 -0.0174  0.2773  0.1513
26599W        W46133   8.276   1.394  14.664 -0.0788  0.1268  0.0916
26600W        W46134   9.125  13.248  12.582 -0.0818  0.0638 -0.1340
26601W        W46135  16.430   2.143   5.263 -0.0964 -0.0624  0.0714
26602W        W46136   3.553   7.513  11.963 -0.1719 -0.4614  0.1354
26603W        W46137   8.397   3.869  16.124 -0.0353 -0.2028 -0.0990
26604W        W46138   0.725  14.782  13.335  0.2418 -0.2339  0.1303
26605W        W46139   4.739   7.896   5.465 -0.3619  0.1044  0.2547
26606W        W46140   9.902   4.159   1.893 -0.0792 -0.0433 -0.2134
26607W        W46141   2.546  11.314  12.500  0.0315  0.1060 -0.3516
26608W        W46142  12.370   6.227  12.109  0.0650  0.0185 -0.1700
26609W        W46143   3.476   4.782   4.096 -0.3192 -0.0991 -0.0290
26610W        W46144   3.443  12.302  14.847 -0.4003  0.2224 -0.1855
26611W        W46145   5.503   8.204   0.962  0.0746  0.2565  0.1268
26612W        W46146   0.817  13.752  15.589 -0.1738 -0.1841 -0.3496
26613W        W46147   4.444   1.955  15.636 -0.1098  0.3109  0.1356
26614W        W46148  14.593  10.707  16.756  0.1347 -0.0278 -0.0145
26615W        W46149   6.329   6.644  13.493 -0.1680 -0.2246  0.1122
26616W        W46150   8.475  16.473   2.621 -0.3747 -0.0938 -0.0906
26617W        W46151   2.966  15.095   4.098 -0.1309  0.1730  0.2984
26618W        W46152   5.866   3.398  16.785  0.0964  0.1416 -0.1198
26619W        W46153   4.802  12.063  14.439 -0.0312 -0.3104  0.0070
26620W        W46154  16.872   9.495  13.856  0.0562 -0.1024 -0.1572
26621W        W46155  14.490   2.336  15.092  0.1641 -0.1505 -0.0335
26622W        W46156   3.896   7.356  13.601  0.3089 -0.2511  0.1392
26623W        W46157   0.346  14.982  14.974  0.2135 -0.4366  0.1170
26624W        W46158   5.713  14.587   1.393 -0.1119 -0.0312  0.1535
26625W        W46159   6.358  12.482  16.098  0.0727 -0.0080 -0.0943
26626W        W46160   6.103  17.112   0.558 -0.2131  0.0208 -0.1016
26627W        W46161  15.036  14.645  14.494 -0.0757 -0.0271  0.2115
26628W        W46162   7.122  11.153  12.053  0.0605 -0.1110  0.2662
26629W        W46163   7.758   4.989  13.201 -0.0845 -0.0295  0.1282
26630W        W46164   7.499  10.771  15.576  0.2686  0.5322  0.2283
26631W        W46165  16.081   4.341  16.195  0.1463 -0.0389  0.0436
26632W        W46166   1.129  12.641   4.760 -0.1840  0.1152 -0.1222
26633W        W46167   1.308   7.208   0.929 -0.0941  0.2338  0.4358
26634W        W46168  16.031  13.515  12.597  0.0136  0.1528  0.1221
26635W        W46169   9.519  16.653  11.894 -0.2471 -0.2143 -0.1597
26636W        W46170   1.211   4.192   1.406 -0.0487 -0.2020 -0.0647
26637W        W46171   2.251  11.415   4.233  0.1563 -0.0618 -0.0831
26638W        W46172  14.507  16.506   0.830 -0.1820  0.2263  0.1504
26639W        W46173   7.769  16.525  14.394  0.0350  0.1441 -0.3648
26640W        W46174   2.314   3.776  13.316 -0.0663  0.0974  0.2346
26641W        W46175   7.944   4.666  15.718 -0.2052  0.2158 -0.2326
26642W        W46176   5.877   6.100   2.036  0.0234  0.1180 -0.0877
26643W        W46177   9.055   0.693   3.502 -0.1874  0.0919 -0.1997
26644W        W46178  12.298  14.686   3.119  0.1186 -0.0476  0.1008
26645W        W46179  16.763  12.293  12.014  0.2252  0.1248 -0.3279
26646W        W46180   4.187  17.118  14.975 -0.1231 -0.1599 -0.2328
26647W        W46181  17.053   6.444   5.797  0.0759 -0.2837 -0.2839
26648W        W46182  17.371   9.017   4.517  0.2221  0.2205 -0.3526
26649W        W46183  14.226  12.805   4.203 -0.1144  0.2634 -0.3885
26650W        W46184  10.149   8.716  13.583  0.1639  0.0043  0.0218
26651W        W46185  16.418   3.537   3.297  0.0437 -0.2840  0.2131
26652W        W46186   1.688   2.680  12.373  0.1037  0.1905  0.0812
26653W        W46187  16.197   0.464   2.676  0.2597 -0.5929 -0.2796
26654W        W46188   1.022  10.953  13.803  0.0402  0.1377  0.0859
26655W        W46189  12.595  10.577   3.788  0.1784  0.2152 -0.1365
26656W        W46190  11.760  11.308   4.621 -0.1023  0.0977  0.2549
26657W        W46191   3.165   5.712  15.325 -0.1142 -0.1821 -0.0684
26658W        W46192  11.212   7.813   2.991 -0.2649  0.1025 -0.2716
26659W        W46193   6.667   7.260  16.151 -0.1276 -0.2358 -0.1939
26660W        W46194   4.670   7.569  14.494  0.0208 -0.0136  0.1352
26661W        W46195  15.852   6.713   1.163  0.3382  0.0481 -0.2687
26662W        W46196  14.789   6.929   1.864 -0.1321  0.0447 -0.1432
26663W        W46197   0.180   6.565  13.885 -0.2941 -0.4145  0.2087
26664W        W46198  11.416  12.314   2.761 -0.0262 -0.2755  0.5576
26665W        W46199  13.061   4.418  15.620 -0.0877  0.0625  0.1263
26666W        W46200  12.508   1.103  16.960  0.0380  0.3762 -0.3359
26667W        W46201   4.428  15.577  14.111 -0.4740 -0.0581 -0.0986
26668W        W46202  13.894   7.148  14.456  0.1116  0.0724 -0.1473
26669W        W46203   3.450   8.489   1.343  0.1107 -0.1696  0.0410
26670W        W46204   7.603   2.694   1.298  0.1255 -0.0088  0.3088
26671W        W46205   0.310   5.646  17.064  0.2865  0.0018  0.0029
26672W        W46206   9.555  11.849  15.516  0.1681 -0.0327 -0.2911
26673W        W46207   1.966  10.450  16.725 -0.1770 -0.2218 -0.1375
26674W        W46208  12.265   9.115  16.384  0.0226 -0.2074 -0.1177
26675W        W46209  17.194   7.574  15.756  0.0140  0.1327  0.0057
26676W        W46210  11.366  14.391   0.331  0.3870 -0.1768  0.0448
26677W        W46211   0.555  14.382   0.343 -0.1481  0.3261  0.2643
26678W        W46212   9.274   8.137   3.944 -0.3167 -0.2357 -0.0252
26679W        W46213  14.553  13.554  16.467 -0.2366 -0.3986 -0.2094
26680W        W46214  11.681   7.005  13.620 -0.0641 -0.3454 -0.0275
26681W        W46215  11.288   7.635   3.550  0.2925 -0.2884 -0.0694
26682W        W46216   1.176   3.055   2.456 -0.1500  0.0392  0.2511
26683W        W46217   7.557  17.235  11.904 -0.0926 -0.0146  0.0967
26684W        W46218   2.541  13.119  14.261 -0.1792  0.1321 -0.1253
26685W        W46219  10.052   1.242  14.693 -0.1897  0.4397 -0.0701
26686W        W46220  14.017   7.020  13.402 -0.4015 -0.1308 -0.3265
26687W        W46221  13.533   5.672   3.528  0.2130 -0.2883  0.0373
26688W        W46222   4.885  17.390   2.568  0.1854 -0.0978  0.0091
26689W        W46223  17.295   0.465  15.074 -0.0244 -0.0582  0.0735
26690W        W46224   4.660  16.554   4.159 -0.1604 -0.2042  0.0297
26691W        W46225  10.707  14.892  13.034 -0.0678 -0.0726  0.0081
26692W        W46226  15.006  16.055   3.163  0.0690 -0.0513 -0.0929
26693W        W46227  11.989  14.164   3.248 -0.0235  0.0951 -0.1454
26694W        W46228  12.648  10.231  12.361  0.1022 -0.0253  0.0100
26695W        W46229   1.775   6.992  13.427  0.1105 -0.1931  0.2251
26696W        W46230  16.153  16.935   4.684 -0.3074  0.0210  0.0710
26697W        W46231   3.268  11.591   0.190  0.2159  0.1654  0.0785
26698W        W46232  14.497   2.160   1.887 -0.0672 -0.1622 -0.2947
26699W        W46233   0.441  10.476   0.683 -0.0241 -0.2552 -0.1307
26700W        W46234   3.101  15.856  12.262 -0.0525 -0.0488  0.2620
26701W        W46235   4.810   6.601  17.023  0.1354  0.3043  0.2141
26702W        W46236   6.086   2.966  16.517  0.2501 -0.0195 -0.0118
26703W        W46237   2.426  12.054   2.988  0.1401  0.1637  0.2962
26704W        W46238  13.755  14.608  14.133  0.5248 -0.2000  0.1527
26705W        W46239   2.129  10.387  14.907  0.1389 -0.2196 -0.2373
26706W        W46240   9.243  14.640  15.762 -0.1894  0.1212  0.0142
26707W        W46241   6.858  15.347  13.927 -0.0533 -0.2575  0.1405
26708W        W46242   9.550   9.138   0.824 -0.1152 -0.0952  0.0101
26709W        W46243   3.866   1.272   4.762  0.1940 -0.1640 -0.3665
26710W        W46244  11.194  17.428   4.595 -0.0191 -0.1916  0.0895
26711W        W46245  13.752   2.658  12.900  0.1536  0.0833  0.0909
26712W        W46246   7.324  11.624  13.654  0.1239 -0.0949  0.0861
26713W        W46247  17.068  10.136  12.689  0.1813  0.0206 -0.3259
26714W        W46248   7.762   8.053   2.435  0.4781  0.3950 -0.0387
26715W        W46249   0.099   4.094   2.895  0.3166  0.3659 -0.0145
26716W        W46250  11.412   2.985  12.973  0.3553 -0.1964  0.0681
26717W        W46251  17.592   1.744   0.813 -0.3518  0.1257 -0.0858
26718W        W46252  15.493   9.505   3.158 -0.1712 -0.1261  0.0094
26719W        W46253   4.851   6.955  13.499  0.0177 -0.0995 -0.0014
26720W        W46254  11.617  16.625  12.906 -0.0965  0.0460  0.2073
26721W        W46255  13.511   7.917  13.712 -0.0784 -0.1785 -0.2900
26722W        W46256  12.679   9.803  14.032  0.0224 -0.0082  0.0068
26723W        W46257  15.717  10.608   0.460  0.0672  0.0099  0.1094
26724W        W46258  11.517   3.064   0.625 -0.2501  0.0547 -0.1976
26725W        W46259  15.895   7.268  11.348  0.0157 -0.1731 -0.2647
26726W        W46260   5.639   7.542  12.331  0.2356 -0.1287 -0.0482
26727W        W46261  15.680  15.793   2.941 -0.0029  0.2040 -0.2457
26728W        W46262   8.944  12.091  13.703  0.0953 -0.0117 -0.0505
26729W        W46263  12.378   4.840  16.823  0.2822 -0.0485 -0.2324
26730W        W46264  11.723  16.016   0.656 -0.2886  0.2827 -0.0488
26731W        W46265  17.577   8.888  14.206  0.0765 -0.2656  0.0976
26732W        W46266  16.549   7.837   3.538 -0.0290 -0.0054  0.0501
26733W        W46267   4.010   5.988   4.337  0.1361  0.1783 -0.1400
26734W        W46268   8.257   4.279  13.693  0.0120 -0.0135 -0.0401
26735W        W46269  16.343  11.294  15.452  0.0235 -0.0663  0.0261
26736W        W46270   3.291  14.700  14.998 -0.1566 -0.2430  0.1805
26737W        W46271  16.008   4.643  13.699  0.2459 -0.1520 -0.2088
26738W        W46272  14.946  14.937   1.687 -0.1181 -0.1289  0.0951
26739W        W46273   3.842  10.289   1.539 -0.1306 -0.2426  0.0342
26740W        W46274   9.995  13.250   4.530  0.3978  0.0184  0.0017
26741W        W46275   0.609  11.283   3.217  0.2085 -0.0338 -0.2758
26742W        W46276   8.372   8.951  17.061  0.0107 -0.0252  0.1204
26743W        W46277   7.837  15.634  15.478 -0.1183  0.3177  0.3852
26744W        W46278  14.954   7.150   4.821  0.0763 -0.4396  0.3106
26745W        W46279   2.849   4.758  12.263  0.1451 -0.0624  0.1035
26746W        W46280   7.779  16.108   1.651 -0.1563  0.0675  0.1473
26747W        W46281   3.535  13.482   2.245 -0.1524 -0.1814 -0.2042
26748W        W46282  14.220   6.230   0.132  0.1142 -0.1045  0.1028
26749W        W46283  13.361   9.851  16.140  0.0749 -0.1358 -0.0169
26750W        W46284  15.147  12.339   2.509 -0.3098 -0.0138 -0.1407
26751W        W46285   9.065  16.528   2.601  0.2291  0.3355 -0.0490
26752W        W46286   2.299  17.668  14.868 -0.0810 -0.2763 -0.2382
26753W        W46287   4.029  16.886  16.507  0.0386  0.0086 -0.0192
26754W        W46288   3.024   2.596  14.642  0.0954 -0.1662  0.0078
26755W        W46289   2.538   3.625  13.867  0.1368 -0.1686 -0.1305
26756W        W46290   8.926   8.978  14.632  0.0566  0.1343  0.0892
26757W        W46291   2.017   3.683  12.334  0.0280 -0.0576  0.0908
26758W        W46292  15.893  10.827  14.176 -0.1613 -0.1857 -0.0688
26759W        W46293   2.917   5.395   4.433 -0.4234 -0.0721 -0.0651
26760W        W46294  10.896   3.064  13.607  0.4337  0.0730  0.2253
26761W        W46295   0.331   7.154  11.883  0.1182  0.2223 -0.3186
26762W        W46296  11.353   3.217  16.562 -0.2909 -0.1224 -0.2601
26763W        W46297   0.775   6.467   2.793  0.3731 -0.4373  0.0187
26764W        W46298  10.602   2.167  15.503  0.0620  0.3176 -0.0649
26765W        W46299   0.667   6.404  16.521  0.2182  0.1727  0.1763
26766W        W46300  10.055  10.877   2.803 -0.0191  0.1069  0.1694
26767W        W46301   0.951  17.515   0.136 -0.1071 -0.3573 -0.0365
26768W        W46302   5.411  11.377   3.628  0.1406 -0.0709 -0.0297
26769W        W46303   9.539   6.738   4.278  0.1737  0.1640  0.5263
26770W        W46304  14.391   8.716  13.490  0.2285  0.1152  0.1056
26771W        W46305   7.246   0.770   5.026  0.0224 -0.0221 -0.0554
26772W        W46306   3.852  14.235   0.687 -0.0312 -0.0593 -0.0432
26773W        W46307   5.736   8.182   4.745 -0.1487  0.2812 -0.0418
26774W        W46308   3.033   0.921   5.035  0.1439  0.2274 -0.1264
26775W        W46309  14.385   6.048  14.628 -0.0723 -0.0653  0.2935
26776W        W46310  16.392   3.075  15.760 -0.1194 -0.0637  0.2433
26777W        W46311  15.708  14.625   0.399  0.4199 -0.0595  0.0745
26778W        W46312  14.525   3.713  12.121 -0.3414 -0.0142  0.0233
26779W        W46313   4.109   7.745  16.670 -0.0728 -0.3826  0.1219
26780W        W46314  17.390   7.911  13.420 -0.0346 -0.0439  0.3309
26781W        W46315   6.913   5.312  15.285  0.1313  0.1989  0.2366
26782W        W46316   9.742   8.150   5.013 -0.2943  0.0112  0.0696
26783W        W46317  10.355  16.306  15.631 -0.0115 -0.1852 -0.1076
26784W        W46318   4.711   4.076   1.758  0.1227 -0.0674  0.0547
26785W        W46319  14.674   2.288  14.602  0.1915  0.0239 -0.1633
26786W        W46320  16.443   7.118  12.876 -0.1902  0.1486 -0.2096
26787W        W46321   4.041  14.737   0.480  0.0111 -0.0879  0.1101
26788W        W46322  14.504   1.178   3.061 -0.1437 -0.1708 -0.1014
26789W        W46323   4.436  12.559   2.601 -0.1221  0.0031  0.3645
26790W        W46324  10.448   4.197   3.543  0.1021  0.0117 -0.0333
26791W        W46325   6.831   1.513   2.012  0.1969  0.0476  0.1362
26792W        W46326  10.874   5.140  13.315  0.1483  0.0851  0.0159
26793W        W46327   0.840   1.891   0.901  0.1037  0.0736  0.0204
26794W        W46328  15.427  16.224   2.345  0.1351 -0.2523  0.0468
26795W        W46329   5.108   9.117  13.087  0.1777 -0.0081 -0.1217
26796W        W46330   0.211   6.827  13.242  0.0948  0.1637  0.1976
26797W        W46331   8.655   9.391   4.247 -0.0268 -0.0661  0.2390
26798W        W46332   4.015  13.286  12.742 -0.5632 -0.2490 -0.3041
26799W        W46333  12.011   7.273  14.401 -0.0487  0.1501  0.2545
26800W        W46334  15.001   5.315  12.416  0.0384 -0.1130 -0.0197
26801W        W46335   6.819  14.022  12.559 -0.0016 -0.0500  0.1123
26802W        W46336   4.969  12.012  16.580 -0.1042 -0.0856  0.2150
26803W        W46337  16.552   4.334  12.833  0.2666  0.0488  0.0108
26804W        W46338   8.437   1.401   1.219  0.0036  0.0195  0.3636
26805W        W46339   5.095  15.518  15.938 -0.2801  0.1769 -0.3088
26806W        W46340  10.994   4.513  16.516 -0.1556  0.0818 -0.0197
26807W        W46341   9.618  15.524   0.693  0.0156  0.4027  0.2941
26808W        W46342   4.321  14.766  12.600 -0.1162  0.2107 -0.1300
26809W        W46343   7.138  12.209  14.234 -0.1437 -0.0234  0.1291
26810W        W46344   3.212   1.859  15.455  0.0261 -0.1559 -0.2096
26811W        W46345  14.308   2.686   1.119  0.0011 -0.0345  0.0299
26812W        W46346   7.152  10.960  14.951  0.0969 -0.1759 -0.0616
26813W        W46347   4.217  15.340   0.839  0.0318  0.1066  0.2046
26814W        W46348   2.056   7.158  13.944 -0.1896 -0.0336  0.0491
26815W        W46349  17.652   0.061   0.742  0.1746 -0.0165 -0.0323
26816W        W46350   1.188   6.538   4.026 -0.1855 -0.3781 -0.3183
26817W        W46351   0.058   8.321  13.166  0.1897  0.2117 -0.1790
26818W        W46352   6.778  14.711   1.992 -0.0413  0.0272 -0.0028
26819W        W46353   2.619   2.726   3.857 -0.0975 -0.3167  0.0765
26820W        W46354   4.206   5.250   1.400 -0.1212  0.1152 -0.2014
26821W        W46355   7.075   1.944   4.576 -0.3242  0.2049 -0.0238
26822W        W46356   6.755   9.444   1.306 -0.3654  0.0356 -0.0965
26823W        W46357   8.669  17.359  13.787  0.2176  0.0210 -0.1074
26824W        W46358   1.766   0.379   4.391  0.2582 -0.0029 -0.0875
26825W        W46359  16.376  12.990   0.734 -0.1233  0.0534 -0.2662
26826W        W46360  12.384   1.766  12.880  0.1889  0.0913 -0.2160
26827W        W46361   2.389  16.497   1.569 -0.1100  0.0383  0.1326
26828W        W46362  10.811   4.338  15.204 -0.2023 -0.0944  0.1812
26829W        W46363  16.914  16.729   0.779 -0.2412  0.0903  0.1539
26830W        W46364  12.818   5.843   2.674  0.0191 -0.1240 -0.1434
26831W        W46365  11.736  13.208  14.632  0.0974  0.0695 -0.1563
26832W        W46366   9.711  12.972   3.326 -0.2387  0.0487 -0.1956
26833W        W46367   9.815   3.272  13.256  0.0794 -0.0770 -0.1602
26834W        W46368  17.512  17.402  14.588 -0.0073  0.2075  0.1226
26835W        W46369   3.984  14.759  14.194  0.1466 -0.0510  0.2122
26836W        W46370  16.937  15.555   1.877  0.2480 -0.0206 -0.0061
26837W        W46371  14.344  14.087   4.664 -0.0018 -0.0042 -0.0194
26838W        W46372  16.610   8.856   4.069 -0.1862 -0.0321  0.1452
26839W        W46373  11.446   9.982   0.120 -0.2366  0.1584 -0.3069
26840W        W46374  10.010   7.484  16.347  0.2296 -0.1922 -0.1196
26841W        W46375  15.310   6.177  14.240 -0.0115  0.2068  0.2539
26842W        W46376  14.512  12.994   3.347 -0.2688 -0.1747  0.0785
26843W        W46377   8.995   9.185   5.206  0.0453  0.0408 -0.1542
26844W        W46378   8.173   8.469  16.334 -0.0085 -0.0142  0.1530
26845W        W46379   0.918  15.997   0.878  0.0610 -0.1520  0.0051
26846W        W46380  15.943  15.280  16.606 -0.2716  0.1129 -0.0521
26847W        W46381   9.475  15.618  13.414 -0.0417  0.2193  0.0558
26848W        W46382  16.619  12.146  16.804 -0.1174  0.1527 -0.0121
26849W        W46383  17.110   9.404   2.658  0.1130  0.0563 -0.1730
26850W        W46384   6.918   5.621   1.913 -0.0987  0.2095 -0.2561
26851W        W46385   1.666   5.187  12.979  0.0300 -0.1772 -0.0203
26852W        W46386  12.468  14.523   2.246 -0.3441 -0.1379  0.0812
26853W        W46387   9.241   6.529  14.624  0.1326 -0.0335  0.0454
26854W        W46388  11.267  15.399  13.680 -0.0957 -0.2328 -0.2989
26855W        W46389  12.137   2.188  15.329 -0.0071  0.0478 -0.2100
26856W        W46390  13.760  10.771   4.011  0.0978  0.2685 -0.1006
26857W        W46391  12.125   7.592  12.434  0.2003  0.1741  0.1722
26858W        W46392  14.947  16.980  13.052 -0.0192  0.2326 -0.1327
26859W        W46393   4.838  10.652  14.296  0.0421 -0.0668 -0.0341
26860W        W46394   0.113  14.252  14.579  0.0997  0.1706  0.2547
26861W        W46395   9.388   5.550  16.933 -0.0690  0.3551 -0.2258
26862W        W46396   6.108   4.094   4.247  0.2492  0.0411 -0.2394
26863W        W46397  11.924   0.232   4.230 -0.1455  0.0025 -0.0384
26864W        W46398  11.946   5.973  13.852 -0.2961 -0.1644 -0.1643
26865W        W46399   9.157   3.802  17.030  0.2631 -0.1134 -0.2253
26866W        W46400  16.067   8.253   3.224 -0.1890  0.2602  0.1298
26867W        W46401   7.391   6.123   0.151 -0.1541 -0.0929  0.0769
26868W        W46402   1.060   5.164   3.896 -0.0223 -0.0001 -0.0042
26869W        W46403   5.884   6.472   5.095 -0.0981 -0.2367  0.1558
26870W        W46404  16.011  16.573   0.306  0.2006  0.1980  0.0804
26871W        W46405  14.798  17.280   1.615 -0.0970 -0.2010 -0.1880
26872W        W46406  16.089   5.979  13.066  0.0982  0.1617 -0.1293
26873W        W46407   9.191   9.968   3.588 -0.5828 -0.0366  0.1317
26874W        W46408   2.709   1.911   4.508  0.0611  0.2063 -0.0898
26875W        W46409  12.913  13.941  16.783 -0.1418 -0.3891  0.0589
26876W        W46410  17.292   6.789   3.875  0.1000 -0.0928 -0.2690
26877W        W46411   5.304  16.599   0.958 -0.0229  0.0953 -0.1023
26878W        W46412   0.906  11.519   2.163  0.0117 -0.2024 -0.0449
26879W        W46413  15.942   3.884  15.756  0.0852 -0.2825 -0.1793
26880W        W46414  11.266   6.640   0.952 -0.0754 -0.2756 -0.2290
26881W        W46415   2.006  12.926   2.243  0.0187  0.0596  0.1787
26882W        W46416  13.243   7.349  11.949 -0.0127  0.2310 -0.0561
26883W        W46417  15.284  12.007   5.045 -0.2120 -0.1753  0.1762
26884W        W46418  10.912   9.362   0.690  0.1113  0.1654  0.2356
26885W        W46419   8.845  13.140  13.742 -0.0745  0.2932 -0.3686
26886W        W46420   4.912   7.856   4.950 -0.0172  0.0451  0.0981
26887W        W46421   0.877   2.877   3.837 -0.1017 -0.1814  0.0985
26888W        W46422   5.565   4.741   4.089 -0.1395 -0.1383  0.0249
26889W        W46423   1.138   5.089   1.480  0.2240 -0.0272  0.1608
26890W        W46424   0.237  11.464   2.345  0.1055 -0.1570 -0.3329
26891W        W46425   8.296   0.571  12.844  0.1335 -0.2479 -0.2858
26892W        W46426   9.564  17.577  12.915 -0.1582  0.1491  0.5724
26893W        W46427   9.350  17.562   2.323  0.1970 -0.4052 -0.2209
26894W        W46428  16.479   9.860  13.893 -0.0039 -0.1365  0.0736
26895W        W46429  10.899  16.197  15.046 -0.1149  0.2613  0.1986
26896W        W46430  10.456  12.035  15.101  0.0796  0.0730  0.0582
26897W        W46431   3.042  16.696   4.303  0.1494 -0.1300 -0.2116
26898W        W46432  14.318  11.690  14.036 -0.1655  0.0890 -0.0079
26899W        W46433   4.228   0.270  14.509 -0.1801  0.4996 -0.0968
26900W        W46434  10.664   6.207  14.539 -0.4199 -0.1450  0.0535
26901W        W46435   1.184   1.142  11.419  0.0674  0.0089  0.0011
26902W        W46436   6.124   1.222  15.091 -0.0391 -0.1632  0.0019
26903W        W46437   6.288   5.202  14.743  0.0287  0.0561 -0.0949
26904W        W46438  11.379  13.750   2.634 -0.0473 -0.1326 -0.0179
26905W        W46439  12.946  11.333   3.210  0.0530 -0.1400  0.2745
26906W        W46440  11.498   5.588  15.181  0.0406  0.0722 -0.0726
26907W        W46441   8.334   0.443   1.525 -0.1470  0.0907  0.3482
26908W        W46442   8.726   6.704  15.932  0.1655 -0.3560 -0.0556
26909W        W46443   9.404  15.379  16.322  0.0323 -0.2196 -0.0708
26910W        W46444  15.825  12.011   0.086  0.0329 -0.1740 -0.2593
26911W        W46445  17.540  12.106   3.611 -0.1996 -0.0653 -0.1591
26912W        W46446   7.337  16.023  17.028  0.0017 -0.3129 -0.2097
26913W        W46447   5.553  14.795   2.707  0.1758 -0.2609 -0.1599
26914W        W46448   7.968  13.815   1.502  0.0900 -0.1360 -0.1283
26915W        W46449   8.234   4.034   4.704  0.0961 -0.0459 -0.0082
26916W        W46450  16.282  10.203  14.605 -0.2368 -0.0599 -0.2084
26917W        W46451   1.570   1.109   4.858  0.0646 -0.3315  0.1308
26918W        W46452   3.836   8.406   1.031 -0.2408  0.0588 -0.0795
26919W        W46453   1.053  16.268   0.467  0.1990  0.1479  0.3524
26920W        W46454   6.066   3.516  12.652 -0.0861  0.1313 -0.1413
26921W        W46455  11.599   8.635  13.517  0.0607 -0.1234 -0.1148
26922W        W46456  12.468   9.724  15.113 -0.1173 -0.0827 -0.0159
26923W        W46457  15.232   4.136   1.884 -0.3146 -0.0610  0.2274
26924W        W46458  11.900   6.600  16.764  0.0230  0.1408 -0.0717
26925W        W46459   5.421   8.910  12.194 -0.0356 -0.1538  0.2891
26926W        W46460  10.195   8.369  11.841 -0.4368 -0.4099 -0.4068
26927W        W46461   4.150   8.980  12.836 -0.0357 -0.3899 -0.1020
26928W        W46462  13.963   5.483  14.825  0.0502  0.1451 -0.0796
26929W        W46463  10.471   5.129   0.848  0.0522 -0.0493  0.0164
26930W        W46464  12.674  13.587  16.471  0.0017  0.2308  0.0648
26931W        W46465  11.744   7.549   1.937 -0.1841 -0.0629 -0.2182
26932W        W46466  14.537  14.385  14.463 -0.1694  0.1191 -0.3586
26933W        W46467   0.421  13.055  14.071  0.0960  0.0494 -0.0913
26934W        W46468   6.868  10.069  14.900  0.0458 -0.1803  0.0888
26935W        W46469  14.287  15.659   2.888  0.0530  0.0872 -0.1499
26936W        W46470  10.265   5.792  12.466 -0.0762 -0.0573 -0.0408
26937W        W46471  16.230   4.535   4.899  0.0779  0.1279 -0.3008
26938W        W46472   2.503   7.875  15.996 -0.2043 -0.0860 -0.0209
26939W        W46473   6.123  14.802   3.566  0.3303  0.2256 -0.2268
26940W        W46474  11.694   2.542   3.967 -0.0431 -0.0407 -0.0776
26941W        W46475  13.240  14.627   2.781 -0.3544 -0.0446  0.0540
26942W        W46476   3.416  11.624  12.513  0.1273  0.0100 -0.1320
26943W        W46477   4.824   4.779   5.479 -0.1450 -0.0448  0.0598
26944W        W46478   0.354   8.891   3.187  0.2776  0.0788  0.3133
26945W        W46479  17.062  10.098  15.225  0.3545 -0.1683 -0.0660
26946W        W46480   3.315   8.785  15.930  0.0888 -0.2250  0.0123
26947W        W46481  10.094  11.383   2.630  0.2302 -0.1901  0.0915
26948W        W46482   3.101   4.479   1.246  0.1266  0.0514 -0.0963
26949W        W46483  10.753   2.786  13.244  0.0058  0.2562 -0.0692
26950W        W46484  14.047  17.208   1.195  0.2419 -0.0076  0.1428
26951W        W46485  16.778   6.203   2.202  0.1138 -0.0540 -0.1262
26952W        W46486   8.215   2.538   3.833 -0.1801 -0.1396  0.1769
26953W        W46487  17.582   4.512  12.815 -0.2355 -0.6027 -0.1447
26954W        W46488   9.669   6.134   0.745  0.1238  0.1594 -0.0522
26955W        W46489  11.281  13.608   0.834 -0.3151 -0.1116 -0.0862
26956W        W46490   6.285   1.668  12.288 -0.1062  0.2359 -0.1326
26957W        W46491   0.274   1.055  11.697  0.3550 -0.3187 -0.0749
26958W        W46492   0.908  12.347   4.406  0.1557  0.1038  0.0175
26959W        W46493   5.170  16.980   2.753 -0.4631  0.1162  0.0217
26960W        W46494   0.164  12.506   4.600 -0.3068 -0.2030  0.0091
26961W        W46495   4.796  15.259   3.664 -0.0956 -0.0741  0.0015
26962W        W46496   7.835   0.670  16.666  0.1058  0.0383 -0.2378
26963W        W46497   1.544   6.634   0.225  0.0595  0.0951  0.0339
26964W        W46498   2.957   6.585   2.488 -0.1870 -0.2075 -0.0890
26965W        W46499   2.835  17.193   3.142 -0.2017 -0.2467  0.3116
26966W        W46500   0.056  14.728   2.867  0.0293  0.1558  0.3201
26967W        W46501   5.708  14.727  13.862  0.1458 -0.1334 -0.0991
26968W        W46502  17.158   2.610  16.247 -0.2392 -0.1113  0.1204
26969W        W46503  14.614  16.216  12.565  0.1363  0.0806 -0.0291
26970W        W46504  10.535   8.564   0.445  0.1734  0.1692  0.0025
26971W        W46505  15.813   9.211   3.525 -0.0176 -0.1990 -0.2030
26972W        W46506  15.899  15.302  13.093 -0.1213 -0.0483  0.0418
26973W        W46507   5.779  13.871  15.787  0.2916  0.0990  0.0523
26974W        W46508   0.188  11.265   2.877  0.1080  0.1062  0.1600
26975W        W46509  11.342  14.481   0.886  0.1673  0.1412 -0.0749
26976W        W46510   5.689   5.214   4.562  0.2594  0.0915 -0.2380
26977W        W46511  14.915   8.963   0.047  0.0979 -0.1144  0.0491
26978W        W46512  17.054   8.919   1.529  0.0607 -0.1078 -0.0898
26979W        W46513   8.009   7.702  16.987 -0.2478 -0.5465  0.1187
26980W        W46514   4.393   6.363   4.275  0.3741 -0.0465 -0.1196
26981W        W46515  11.925   8.469   2.975  0.2309 -0.2729 -0.1734
26982W        W46516   5.388   2.197   3.917  0.0279  0.0993 -0.0459
26983W        W46517  16.934  10.610  15.144 -0.0526 -0.1543 -0.1758
26984W        W46518   6.695  14.680  12.980  0.3064 -0.0947  0.0281
26985W        W46519   5.456  15.763  16.973 -0.2377  0.1042  0.1809
26986W        W46520   7.193   6.575  12.097  0.1481 -0.0459  0.1481
26987W        W46521   1.311  15.317  15.624  0.0754 -0.0451  0.0741
26988W        W46522  13.932   1.326  15.342  0.3143  0.1065  0.0150
26989W        W46523   2.688   4.776   2.420  0.1701  0.1234 -0.0076
26990W        W46524   4.897   1.728   1.791  0.0188 -0.1297 -0.2961
26991W        W46525  13.676  15.412  13.455 -0.1538  0.1319  0.4389
26992W        W46526   8.469   4.146  12.279 -0.0759 -0.1547  0.1176
26993W        W46527   1.468  13.928   2.079 -0.0222 -0.2135 -0.4202
26994W        W46528  14.658  11.599  13.494  0.1663  0.0455  0.3517
26995W        W46529  10.444   0.634   0.306 -0.1854  0.0500 -0.0533
26996W        W46530   3.749  17.201  16.186 -0.0333 -0.0154 -0.2628
26997W        W46531   4.943  14.904   0.334  0.3179 -0.2205 -0.1828
26998W        W46532  17.049  13.295  16.516 -0.2407 -0.0618  0.1248
26999W        W46533   0.614   1.546   3.183  0.0918 -0.1148 -0.0294
27000W        W46534   0.119   0.518   0.407  0.0426  0.2957  0.0737
27001W        W46535  15.420  16.902   0.678 -0.0030 -0.0937 -0.0186
27002W        W46536  15.682  12.436  14.567  0.3209  0.1390  0.2268
27003W        W46537   9.083   9.180   3.139 -0.0291  0.2360  0.0696
27004W        W46538   1.725   7.945   4.225  0.2065  0.3255 -0.2726
27005W        W46539  17.424  16.930  13.808  0.1220 -0.1123  0.4606
27006W        W46540  17.335  14.476   1.801 -0.2118  0.1960 -0.4213
27007W        W46541   2.788  15.214   3.468  0.1405 -0.2568  0.2170
27008W        W46542   2.708  12.582  14.099 -0.1192  0.1395  0.1214
27009W        W46543  11.963  16.209  13.379  0.3220  0.3499  0.1666
27010W        W46544  11.003  15.802   3.728 -0.1809 -0.0586 -0.5148
27011W        W46545  17.584  12.715  13.424 -0.0503  0.2008 -0.2962
27012W        W46546   2.227   6.893  12.112 -0.0637 -0.3420  0.0631
27013W        W46547   7.997   5.125   4.062  0.0507 -0.0450  0.1292
27014W        W46548   5.538   1.529   2.461  0.0793  0.0994  0.1025
27015W        W46549   5.824   4.782  15.417  0.1754  0.0402  0.0162
27016W        W46550  10.415   1.705   4.261  0.0637  0.1357  0.1873
27017W        W46551  11.371  13.398   3.087  0.0500  0.0356  0.1079
27018W        W46552  11.140  10.036  14.980 -0.1687  0.0273 -0.0813
27019W        W46553   4.597   6.732   0.392  0.0049  0.0899 -0.0934
27020W        W46554   7.536   0.694  16.154  0.1928 -0.2399  0.0760
27021W        W46555   8.416   0.774   0.459  0.2452  0.1435 -0.3402
27022W        W46556   3.834   7.528  14.095  0.1799 -0.0760 -0.2257
27023W        W46557   0.341   9.457   3.852  0.0495 -0.1078  0.1760
27024W        W46558  11.693   6.557   5.091 -0.0682  0.1480  0.1910
27025W        W46559  13.132   9.359   2.789 -0.2262  0.1882 -0.1596
27026W        W46560   9.628   7.331   3.614  0.4769 -0.0515 -0.1231
27027W        W46561   0.677  17.627   2.834 -0.0835  0.2853 -0.2791
27028W        W46562   0.958  14.307   0.060  0.0475 -0.0978 -0.1034
27029W        W46563   9.804  15.160  13.956 -0.1685  0.2676 -0.0355
27030W        W46564  17.529   7.256   1.975  0.2898  0.1528  0.0167
27031W        W46565   5.660  15.623   1.504 -0.3913 -0.1171  0.1433
27032W        W46566   0.116   4.472  12.359 -0.1908 -0.1214  0.2875
27033W        W46567   9.258   4.313   4.033  0.0385 -0.0359  0.0831
27034W        W46568   7.979   7.478   0.374 -0.1008  0.3375 -0.0754
27035W        W46569   5.973   8.785   0.226 -0.1043 -0.0382 -0.0939
27036W        W46570  12.459  11.402   4.267 -0.2992 -0.4565 -0.1350
27037W        W46571   3.646  12.862   5.389 -0.0825  0.2725 -0.2892
27038W        W46572   5.385   2.935   4.498  0.3022  0.1788  0.0025
27039W        W46573   2.252   8.367  16.582  0.2480  0.0145  0.0423
27040W        W46574  15.113   6.008  15.155 -0.1591 -0.2370 -0.1403
27041W        W46575  12.324   8.193  14.287 -0.1330 -0.2142 -0.1033
27042W        W46576   7.454  14.987  12.527  0.1039 -0.0756  0.2178
27043W        W46577   0.586   3.270  14.814 -0.2255  0.2269  0.0523
27044W        W46578   7.872  16.095   0.144 -0.1661 -0.0473 -0.0656
27045W        W46579  10.652   3.599  16.541  0.2966 -0.1724  0.1023
27046W        W46580   0.618   5.764   3.271 -0.0674  0.1856  0.0673
27047W        W46581   9.905  13.933  13.456 -0.0317  0.0750 -0.0952
27048W        W46582   6.710   0.106  13.040  0.0334 -0.0564 -0.4279
27049W        W46583  15.895   3.489   2.144 -0.0194  0.1337 -0.1883
27050W        W46584  16.736   1.135  13.016 -0.0240  0.0072  0.0423
27051W        W46585  10.385   1.740  15.846  0.1722  0.0996  0.2145
27052W        W46586  15.542   5.624   4.649  0.2349  0.2282 -0.0673
27053W        W46587   3.703   2.086  16.232  0.0065 -0.1353 -0.2702
27054W        W46588   3.749   4.320   3.130  0.2144 -0.1625 -0.1365
27055W        W46589   0.497  13.234  12.318  0.0295  0.1141  0.2460
27056W        W46590  10.584   2.572  13.617  0.1708  0.1984 -0.2967
27057W        W46591   6.626  10.858  16.080  0.2416  0.1003 -0.0924
27058W        W46592   6.452  15.921   1.948  0.0646  0.2904  0.3607
27059W        W46593  15.450  14.978  16.133 -0.1400 -0.0608  0.0008
27060W        W46594  16.139  15.637   3.112 -0.0826  0.0309 -0.1949
27061W        W46595  16.674   8.930   0.290 -0.1201 -0.1231  0.0221
27062W        W46596   6.968  11.400  14.752 -0.2644 -0.0983 -0.2776
27063W        W46597  15.427  11.400   4.246  0.0893 -0.2204 -0.2453
27064W        W46598  14.705   6.955  14.111 -0.3253 -0.1616 -0.2368
27065W        W46599  12.731   6.666   3.646  0.2654 -0.1370 -0.1466
27066W        W46600  16.866   1.475   4.393  0.2013 -0.2478  0.2815
27067W        W46601   4.024   9.365   1.965 -0.1587  0.2497  0.0640
27068W        W46602  13.187  10.359  14.504  0.3288 -0.1522 -0.0550
27069W        W46603   8.915   0.355   1.783  0.1467 -0.0274  0.0911
27070W        W46604   1.823   0.688   4.798  0.1699  0.1132  0.0081
27071W        W46605   3.115   9.667  14.088  0.0402 -0.1214  0.1289
27072W        W46606   1.881   5.267   2.319 -0.2107 -0.2266 -0.1476
27073W        W46607   9.973  16.066   0.270  0.1366  0.2134 -0.0240
27074W        W46608   5.372   8.063  13.933 -0.0120 -0.1776  0.0140
27075W        W46609   3.230   3.968   0.161 -0.1558  0.0225  0.1566
27076W        W46610  16.192   9.033   4.734 -0.1559  0.1822  0.0470
27077W        W46611  12.719  10.468   1.199  0.0529  0.3676 -0.4219
27078W        W46612   7.257   4.238   1.085 -0.3540 -0.0356  0.2293
27079W        W46613   7.098  10.898  12.466 -0.1341 -0.1503 -0.1341
27080W        W46614  16.213   5.905   5.165  0.3692  0.0542  0.0992
27081W        W46615   2.414   2.433  13.450 -0.0507  0.0962 -0.1240
27082W        W46616  11.035  14.501  14.474  0.4333  0.2002  0.1386
27083W        W46617   1.827   6.181  13.695  0.0540 -0.0306  0.0825
27084W        W46618   4.814   0.643  15.904 -0.1569 -0.0194  0.3103
27085W        W46619   6.383   3.875  16.242 -0.1817  0.2611 -0.1232
27086W        W46620   5.344   4.636   2.408 -0.0020 -0.1497  0.3240
27087W        W46621  13.755   1.370  14.629  0.1590 -0.3225 -0.1270
27088W        W46622  13.334   4.996   1.436  0.3189  0.0317  0.0004
27089W        W46623   4.372  15.116  14.963 -0.3235 -0.0270  0.3515
27090W        W46624   0.599  13.481  14.291  0.1307 -0.0408  0.2001
27091W        W46625  12.447   3.745   3.492 -0.1782 -0.0465 -0.0495
27092W        W46626   0.265  14.299   4.084  0.4179 -0.0398 -0.3319
27093W        W46627   5.433  15.493   4.614  0.0721 -0.2720 -0.0184
27094W        W46628   9.270   7.691   4.261  0.0573  0.0947 -0.2536
27095W        W46629   0.926  12.944  11.867  0.0916  0.1649 -0.1512
27096W        W46630  14.607  10.474  13.172  0.4776 -0.1668  0.2239
27097W        W46631   8.597   8.781  14.938 -0.1589  0.0659  0.1086
27098W        W46632   4.952  14.788  14.131 -0.1623 -0.0290 -0.0332
27099W        W46633  16.311   9.709  14.715  0.1113  0.0955 -0.4937
27100W        W46634  13.450   3.114   3.669 -0.1559  0.1116  0.1453
27101W        W46635   0.228   7.468   4.372 -0.2375  0.0913  0.0875
27102W        W46636   2.611  17.014  12.602 -0.0017  0.1862  0.2452
27103W        W46637   6.644   1.612  16.185 -0.2428  0.0900 -0.4925
27104W        W46638   9.501  12.317  13.603  0.1244  0.0111 -0.0803
27105W        W46639   3.141  14.029   0.899  0.1292  0.0477 -0.2336
27106W        W46640  12.786  14.279   0.157  0.0775  0.1918  0.0494
27107W        W46641   4.396  13.450  12.462  0.1376  0.3498  0.0387
27108W        W46642  15.677   4.500  16.606 -0.0880  0.1223  0.1051
27109W        W46643  10.554  13.469   4.317  0.2768 -0.0219 -0.2098
27110W        W46644   3.413   2.508  16.391 -0.1232  0.1668  0.2759
27111W        W46645  11.643  13.489   4.401 -0.0697 -0.0361 -0.1275
27112W        W46646   4.084   4.410   4.707 -0.0281 -0.0345  0.0603
27113W        W46647   4.530   9.391   5.209 -0.0678  0.1001  0.1159
27114W        W46648   0.384   4.018  11.455 -0.0308 -0.0081  0.2108
27115W        W46649   3.216   2.463   4.102 -0.0617 -0.1246  0.1256
27116W        W46650   2.355   4.473   1.908  0.1764 -0.3860  0.0403
27117W        W46651  13.470   7.380  14.276  0.0155  0.3465 -0.2637
27118W        W46652  10.924   7.397  15.375  0.5264 -0.0571  0.0208
27119W        W46653   2.097   3.539   1.338 -0.0336 -0.3046 -0.0880
27120W        W46654  13.373   8.973  13.512 -0.1415  0.3553  0.3211
27121W        W46655  13.474   0.514   1.130 -0.1490  0.5420  0.0561
27122W        W46656   1.992   4.266   3.647  0.2566  0.1936  0.0592
27123W        W46657  11.046   0.097  15.150 -0.0177  0.0811 -0.2352
27124W        W46658  15.764  15.824  12.812 -0.1529  0.1277  0.0696
27125W        W46659   9.577  15.509   2.135  0.1945  0.0493  0.0325
27126W        W46660   3.711  16.587  14.262  0.0873 -0.1872  0.0152
27127W        W46661  14.129  13.166   1.474  0.1943  0.1363 -0.1534
27128W        W46662   9.880  14.910   4.773  0.0879 -0.0471 -0.1339
27129W        W46663  16.444   9.484  12.161 -0.0187 -0.1322 -0.0299
27130W        W46664  11.761   5.104   1.067  0.1400  0.0627 -0.2077
27131W        W46665  10.835   9.682  16.470 -0.0406 -0.0260  0.0745
27132W        W46666   4.217   6.181   2.910  0.0866 -0.1269 -0.1110
27133W        W46667   2.034   6.752   0.423 -0.1861  0.4185 -0.2648
27134W        W46668   8.356  10.138   2.617  0.0199  0.1936 -0.1350
27135W        W46669   0.812   5.992   3.729  0.3196 -0.1842 -0.0666
27136W        W46670  11.765   7.663   3.396  0.1182  0.2932 -0.0627
27137W        W46671   9.660   2.342   1.785 -0.0470 -0.2898 -0.2218
27138W        W46672   9.551  11.192   1.389  0.4357  0.3870 -0.0809
27139W        W46673   9.067  13.184   0.631 -0.2696 -0.2892  0.4817
27140W        W46674  12.475   7.844  16.744 -0.0568  0.4970 -0.1829
27141W        W46675   2.579   0.474  14.732 -0.1385  0.1501  0.3119
27142W        W46676  11.765   7.050   2.038 -0.1737 -0.0740 -0.1325
27143W        W46677   8.874  12.218   4.703  0.0316  0.1131 -0.0518
27144W        W46678   0.839  17.180  15.171  0.0430 -0.1971  0.0180
27145W        W46679  16.826  14.565  12.120  0.2071 -0.1795  0.3085
27146W        W46680   9.691   7.964   1.310  0.0671  0.1009  0.2030
27147W        W46681   5.180  15.249  14.146  0.1814 -0.3271  0.1222
27148W        W46682   1.815  15.318  13.507 -0.0071 -0.1211  0.1456
27149W        W46683   8.286   9.293   4.572 -0.1070  0.0270  0.1740
27150W        W46684   4.032   9.785  14.146  0.2012  0.2774 -0.0983
27151W        W46685  13.116  12.239   0.697  0.1707 -0.0333  0.0141
27152W        W46686   5.830   4.391   2.639  0.0401 -0.1249  0.1479
27153W        W46687   4.854   0.180  13.827  0.0480 -0.2015 -0.4093
27154W        W46688   4.778   7.895  16.423 -0.1763  0.4019 -0.0624
27155W        W46689   9.587   9.679  13.346 -0.0898  0.1426 -0.0551
27156W        W46690   6.120  10.519  12.638 -0.2392 -0.0624 -0.2766
27157W        W46691  15.571   8.984   3.112  0.0001 -0.2099 -0.0976
27158W        W46692  12.756  15.757  16.663  0.0370 -0.0165 -0.0997
27159W        W46693   3.750  10.785  13.971 -0.1788 -0.1198  0.1272
27160W        W46694  10.876   9.247   4.551 -0.0548  0.0586  0.0353
27161W        W46695  16.181  15.707  13.826 -0.0227  0.0241 -0.0407
27162W        W46696  15.355  11.789   0.007 -0.0146  0.0038  0.0659
27163W        W46697   0.886   3.375   2.784  0.0257  0.0406 -0.3112
27164W        W46698   7.822   0.992  15.835  0.3029  0.2869  0.0866
27165W        W46699  13.096   6.790  14.205 -0.0528  0.1183  0.1926
27166W        W46700  10.695   4.826   2.198  0.1210 -0.1088 -0.0242
27167W        W46701   5.174   6.115   2.380 -0.4406  0.1810  0.2918
27168W        W46702   2.532   1.109   2.653 -0.0643 -0.0264 -0.0110
27169W        W46703   3.547   8.374   0.295 -0.2542  0.0928 -0.0751
27170W        W46704   1.011   4.506  13.478  0.1563 -0.1236 -0.1577
27171W        W46705   1.831   4.571   2.707  0.0863 -0.2713 -0.0850
27172W        W46706   6.691   7.119  15.176 -0.0076  0.0512 -0.0469
27173W        W46707  17.152  14.556  15.367 -0.0512 -0.0765  0.3451
27174W        W46708   0.963  10.871  15.112 -0.1807 -0.0962 -0.0057
27175W        W46709  16.418   7.760   4.033  0.0341 -0.2506 -0.1511
27176W        W46710   2.656   6.123  14.046 -0.0725 -0.0027 -0.1093
27177W        W46711  12.446   3.983   2.518 -0.3309 -0.2482 -0.1031
27178W        W46712  14.602  11.137   2.530 -0.2556 -0.0944  0.0209
27179W        W46713  12.440   7.929   4.092 -0.0379  0.2088 -0.2174
27180W        W46714   5.164  11.477  11.933  0.2808  0.2650 -0.1774
27181W        W46715  12.396  15.617   1.874  0.0756 -0.1600 -0.0339
27182W        W46716   4.350   4.061  12.550 -0.0624  0.1246  0.2105
27183W        W46717   6.392   1.567  15.338  0.0259  0.1702  0.0761
27184W        W46718   9.428   7.932  12.849 -0.1583 -0.1240 -0.0371
27185W        W46719  17.365  13.224  14.647 -0.1804 -0.2098 -0.0059
27186W        W46720   4.261  11.969   4.063  0.0535  0.2718 -0.3631
27187W        W46721  17.123  10.146   3.955  0.0033 -0.0577  0.0718
27188W        W46722   4.188  12.192   2.334  0.1656  0.1021 -0.2029
27189W        W46723  12.481  12.480   0.108 -0.0343  0.2775 -0.0649
27190W        W46724   7.284   5.142  16.800  0.2062 -0.1794  0.1980
27191W        W46725   2.259   0.845  14.599  0.0134  0.3721  0.0719
27192W        W46726  11.884   2.268  12.529  0.0426 -0.0652 -0.0506
27193W        W46727   9.119   5.479   0.423  0.0022  0.1269  0.0466
27194W        W46728  12.362   2.689  14.458 -0.1109  0.1943 -0.1617
27195W        W46729  15.078   9.694   2.133  0.1469  0.1037 -0.2891
27196W        W46730   7.535  10.880   0.584  0.0422  0.3634 -0.1710
27197W        W46731   1.486   1.504   1.385  0.0789 -0.0988  0.0127
27198W        W46732   9.000   0.466  16.741 -0.1779 -0.1382 -0.2741
27199W        W46733  10.219  16.052   4.350 -0.1556  0.1607 -0.0352
27200W        W46734   6.601   1.350   0.018 -0.0649  0.2510 -0.2850
27201W        W46735  15.641   8.439  14.105 -0.0179  0.1837  0.2193
27202W        W46736   1.577   7.169   1.641  0.0364 -0.1338  0.0187
27203W        W46737   3.612   7.657   0.330  0.1979 -0.2213 -0.0438
27204W        W46738   3.120   0.869   0.569 -0.0037  0.0873 -0.2252
27205W        W46739  15.564  11.810  12.000 -0.1174 -0.3129 -0.0772
27206W        W46740   9.106   1.525   0.446 -0.0532 -0.3006  0.1750
27207W        W46741   4.435  13.393   4.540 -0.2469  0.1851  0.3430
27208W        W46742   6.904  17.257  13.338 -0.2104  0.0947  0.2028
27209W        W46743   4.389   2.384  14.866 -0.1048 -0.1257 -0.1987
27210W        W46744   0.497  16.695   2.510  0.1197  0.2225  0.0456
27211W        W46745  10.869  15.966   2.855 -0.0468 -0.1265  0.2004
27212W        W46746   9.584  17.441   1.433 -0.0140  0.1861 -0.0676
27213W        W46747   3.811  10.569  13.420  0.0050 -0.0573 -0.0211
27214W        W46748  17.519   9.841  14.545 -0.1681 -0.1174  0.1450
27215W        W46749   2.464   6.635   0.089 -0.0536  0.1148  0.1626
27216W        W46750  11.066  16.533   4.855  0.1686  0.1034  0.2234
27217W        W46751   5.412   1.348  16.268  0.2577  0.0816 -0.0547
27218W        W46752   7.263   8.883  12.458  0.1829  0.2624 -0.0608
27219W        W46753   5.644  15.869   1.075  0.2423 -0.1068  0.1784
27220W        W46754   2.915   1.632  13.065  0.0129 -0.4245  0.0030
27221W        W46755   6.913  12.696   1.917  0.1038  0.2036  0.3568
27222W        W46756   5.433  14.198  13.577 -0.1695  0.1737  0.0722
27223W        W46757   4.075  16.850  13.282  0.0482  0.3317  0.0597
27224W        W46758   5.996   3.224  12.285 -0.3160 -0.1043  0.1368
27225W        W46759   0.284   1.797  17.060  0.0058 -0.1136 -0.2528
27226W        W46760   9.300  10.371   2.571 -0.3267 -0.0133 -0.0680
27227W        W46761   0.543  10.860  13.758 -0.0960  0.2571 -0.2184
27228W        W46762  14.853  10.768   0.720  0.0426  0.1506  0.0602
27229W        W46763  11.024  14.141  12.508 -0.1311 -0.2558 -0.3645
27230W        W46764   0.459  11.148   1.996  0.0908  0.2087  0.2396
27231W        W46765   8.843   6.031  11.226 -0.0131  0.3592  0.0769
27232W        W46766  14.841  13.122  15.221  0.0496 -0.0283  0.0180
27233W        W46767   0.597   2.851  15.189 -0.1141 -0.0837  0.1955
27234W        W46768  12.814  10.874  14.434  0.2597  0.1315 -0.1706
27235W        W46769   8.557   7.149   2.791  0.0958  0.0064 -0.0417
27236W        W46770  14.189   9.755  15.060 -0.0729  0.1784 -0.2051
27237W        W46771  11.143  10.925  16.128  0.0182 -0.0113  0.1479
27238W        W46772  10.394   6.653  13.704  0.2115 -0.0439 -0.0045
27239W        W46773  13.685   8.422   0.314  0.2641 -0.1407  0.0052
27240W        W46774  11.279   3.488  14.458 -0.0120 -0.0735 -0.0828
27241W        W46775  12.625  13.232   2.474  0.0974 -0.3239 -0.0187
27242W        W46776  15.738  14.585   1.012 -0.4657 -0.2768 -0.0385
27243W        W46777   3.369   8.798   2.124 -0.0358 -0.0014  0.2218
27244W        W46778  17.380  11.862  16.491 -0.1084  0.2682  0.0180
27245W        W46779  11.550   7.635  16.416  0.0936  0.1319  0.2790
27246W        W46780   7.189  11.738  15.676 -0.2552  0.0346 -0.1371
27247W        W46781  12.069  13.337  13.719  0.3967  0.1845  0.0592
27248W        W46782   3.507   5.179   2.794  0.0334  0.1841 -0.0971
27249W        W46783   7.262   0.626  14.983 -0.0069  0.3829  0.0817
27250W        W46784   9.073   8.384  14.693 -0.2962  0.1635 -0.3929
27251W        W46785   8.545  14.034  12.386 -0.1439 -0.0486 -0.3826
27252W        W46786  15.501   3.127   6.044 -0.1323  0.3050  0.0969
27253W        W46787  14.108   1.367  14.268  0.0369  0.0737  0.1712
27254W        W46788  15.077  17.336  13.348  0.2195  0.0856  0.1280
27255W        W46789   2.974   0.040   1.415  0.1968 -0.1339 -0.1017
27256W        W46790   8.034  15.679   3.514 -0.1538  0.1205  0.1504
27257W        W46791   4.896  15.039  15.924  0.0677  0.0069  0.0239
27258W        W46792  11.957  17.514  11.517  0.0330  0.1979  0.0357
27259W        W46793  13.693   3.935   0.763 -0.1498 -0.0203  0.1514
27260W        W46794   7.725   1.339   4.912 -0.1808 -0.1920  0.1384
27261W        W46795  17.180  10.606   0.830  0.2303 -0.1464  0.2887
27262W        W46796   2.466   1.410   2.239  0.0296 -0.0113 -0.0254
27263W        W46797  11.997  13.648  15.909  0.1960 -0.2507  0.0470
27264W        W46798  11.383   5.970   2.346 -0.2333  0.2424 -0.0007
27265W        W46799   4.746   8.510  17.031  0.0450  0.0323 -0.1471
27266W        W46800  16.317   6.378   3.111 -0.1548  0.0305  0.3639
27267W        W46801   0.225   3.952   1.367  0.2697  0.2171 -0.0925
27268W        W46802   9.510   7.149  16.136 -0.1479 -0.1848  0.1448
27269W        W46803  12.780   8.970  14.789 -0.0514 -0.2963 -0.0424
27270W        W46804  11.088  12.159  16.589  0.0125 -0.0637 -0.0142
27271W        W46805  16.013  12.188   1.080 -0.1686 -0.0603  0.0120
27272W        W46806   0.690  11.486  16.329 -0.2546 -0.0336 -0.3187
27273W        W46807   7.355   5.966  14.673  0.0694  0.1037  0.1002
27274W        W46808   4.638   6.071  12.927 -0.3140  0.1543  0.0968
27275W        W46809   0.367  14.454  15.149 -0.0862 -0.0367 -0.3562
27276W        W46810  16.862   6.716  12.718  0.1194 -0.0642  0.2462
27277W        W46811   9.133  14.610  16.255  0.0688 -0.0221  0.1792
27278W        W46812  15.905  14.368   1.641  0.3383  0.0288  0.1578
27279W        W46813  11.062   1.436  14.178  0.2650  0.1170 -0.1329
27280W        W46814  17.167   6.498  15.081  0.0635 -0.2984 -0.1210
27281W        W46815  11.867   1.873  16.973 -0.0617 -0.2506 -0.2578
27282W        W46816   4.523  13.341   1.906  0.0649  0.1252  0.3032
27283W        W46817   6.891  12.282  12.525  0.1631 -0.3066  0.0565
27284W        W46818   5.826   9.316  13.748 -0.1049 -0.0098 -0.0017
27285W        W46819  15.594   1.149  16.266 -0.1333  0.1567  0.0326
27286W        W46820   1.533   6.245   2.227  0.2671 -0.1196 -0.1484
27287W        W46821   9.160   8.357   1.662  0.2430  0.1193  0.0421
27288W        W46822   6.559   5.754  16.638 -0.1414 -0.2180  0.2183
27289W        W46823  10.194  15.466  14.708  0.2166  0.0128  0.0925
27290W        W46824   5.888  12.274   1.873  0.2140  0.1028  0.0475
27291W        W46825   8.669   0.918   3.283  0.0329  0.0921  0.0511
27292W        W46826  14.371  10.207   0.514 -0.2937 -0.0258 -0.3632
27293W        W46827   1.843  11.857  13.955  0.4892  0.2872 -0.2260
27294W        W46828   8.843  10.951  16.754  0.0873 -0.2523 -0.0139
27295W        W46829   8.973   8.253  14.198 -0.1709  0.1641 -0.5676
27296W        W46830   7.118   4.775  14.006 -0.2022 -0.0045  0.0437
27297W        W46831   4.073  12.373  14.071  0.0653  0.2195 -0.1844
27298W        W46832   0.734   9.272   4.730  0.0011 -0.3403 -0.1244
27299W        W46833   2.737  15.164   1.401  0.1624 -0.1882 -0.1003
27300W        W46834   9.902   2.156   0.093 -0.0767  0.1183  0.2576
27301W        W46835  11.187   2.846  16.980  0.1847  0.0470  0.0637
27302W        W46836   7.251   6.495  15.618  0.0460  0.2948  0.2212
27303W        W46837   9.495  12.160  16.644  0.0612 -0.0652 -0.0812
27304W        W46838  12.395   3.270   3.087 -0.2796 -0.2657 -0.1166
27305W        W46839   6.547  16.360   0.331  0.0884 -0.0729 -0.0751
27306W        W46840  10.887   0.533   1.233 -0.1428 -0.0463 -0.0047
27307W        W46841  15.141   2.348   4.924  0.3150  0.0266 -0.0706
27308W        W46842   9.196  13.609   5.004 -0.3878  0.2496  0.0634
27309W        W46843   8.158   3.197   2.023  0.2077 -0.2912  0.2537
27310W        W46844   3.442  14.615  16.282 -0.0176  0.2172 -0.0433
27311W        W46845   9.862  14.735  12.907 -0.3326  0.0470 -0.1476
27312W        W46846  16.759  12.670  12.975 -0.1656  0.0066  0.0300
27313W        W46847  16.530   4.210   3.602 -0.0234 -0.2890  0.3471
27314W        W46848  12.132   4.246   1.060  0.0585  0.0413  0.0259
27315W        W46849  14.568   2.292  13.144  0.2726  0.1400  0.4279
27316W        W46850  11.279  14.775  14.766 -0.1199  0.0430  0.1144
27317W        W46851  14.272   4.521  14.304 -0.0171 -0.0976 -0.1646
27318W        W46852   6.466   8.336   2.439 -0.1023  0.0825 -0.1403
27319W        W46853   4.115   3.178  13.373  0.0052  0.0050 -0.3265
27320W        W46854   0.635  17.062  13.250 -0.2603  0.0001 -0.3265
27321W        W46855   1.584  12.050   2.712  0.1943  0.2026  0.0625
27322W        W46856   2.350  15.407   3.758 -0.4326 -0.1003 -0.1059
27323W        W46857   9.080   6.980  13.591 -0.1633 -0.2114  0.0451
27324W        W46858  13.329   5.952  12.946 -0.2532  0.0169  0.1333
27325W        W46859  11.910   6.483   1.069 -0.0774 -0.2121 -0.1732
27326W        W46860   6.846   1.500   3.761  0.1183  0.2885 -0.1246
27327W        W46861  14.854  17.440   0.315  0.0237 -0.2713 -0.1000
27328W        W46862   1.762  16.517   2.926 -0.1943 -0.0572 -0.1024
27329W        W46863   9.659  10.111  14.462 -0.1895  0.2413  0.3104
27330W        W46864  12.504  12.297   3.273 -0.0328  0.1089 -0.6590
27331W        W46865   9.022  17.149  13.519  0.2204 -0.1867  0.0750
27332W        W46866   8.487   2.744   5.066  0.0435 -0.2360  0.1171
27333W        W46867   9.953   8.411  16.806 -0.0451  0.2370  0.3299
27334W        W46868  11.854  12.608   2.844 -0.2826  0.0702  0.0075
27335W        W46869   8.215  10.847  16.223  0.2029  0.2753 -0.0281
27336W        W46870   4.955  13.454  15.291 -0.0538 -0.2163 -0.0123
27337W        W46871   4.000   2.983  16.831 -0.1912  0.2411  0.2418
27338W        W46872   2.226   0.894  13.908  0.0368  0.0843  0.0009
27339W        W46873   7.911   3.308  14.205  0.1749 -0.2065 -0.2332
27340W        W46874  15.021   6.930   0.266 -0.1817  0.0144  0.2300
27341W        W46875   2.419   8.263   3.772  0.1257  0.3752 -0.0739
27342W        W46876  10.879  13.294  16.840 -0.0718 -0.1106  0.1198
27343W        W46877   3.812   5.381  16.319  0.2102  0.1676 -0.1778
27344W        W46878   2.555  12.876  12.305 -0.0253 -0.1038  0.0146
27345W        W46879  14.184  12.012   2.767  0.2041  0.0832  0.1664
27346W        W46880  11.711   0.010   2.609 -0.0015  0.2218  0.1454
27347W        W46881  15.372  10.520   1.553  0.3658  0.1603 -0.1485
27348W        W46882   7.353  17.289   4.285  0.1227  0.0859 -0.0868
27349W        W46883   1.556  17.459  15.935  0.1650 -0.0657 -0.0510
27350W        W46884   0.535   1.068  15.979 -0.1161 -0.2303  0.0082
27351W        W46885   4.861   6.090  12.134  0.0913  0.0025 -0.0637
27352W        W46886  11.711   7.630   2.894  0.1591 -0.2424 -0.1187
27353W        W46887  10.017   4.899  15.051  0.1702  0.1680  0.0452
27354W        W46888  12.758  13.950  14.903 -0.1074  0.0165  0.2231
27355W        W46889   5.130   7.401   1.648 -0.3129 -0.3472 -0.1762
27356W        W46890   4.542  11.362   1.083 -0.1063  0.2438 -0.1187
27357W        W46891   7.157  12.760  13.286  0.1534 -0.1298 -0.0200
27358W        W46892   4.051  15.506  15.844 -0.0489 -0.2922  0.1029
27359W        W46893   8.748  15.718  16.951 -0.0909 -0.5048 -0.0016
27360W        W46894   2.382   1.513   0.393  0.1246 -0.1576  0.0722
27361W        W46895   8.890  12.602  13.868  0.0400  0.1611 -0.1752
27362W        W46896  16.629   4.448   1.457 -0.1719 -0.0897  0.0029
27363W        W46897  17.107  14.284  13.919  0.1805  0.2414 -0.2207
27364W        W46898   8.420   7.416  17.046  0.1800  0.1917 -0.1332
27365W        W46899   1.515   0.385  13.106  0.0727  0.0120  0.0790
27366W        W46900  14.288   7.585  14.701  0.0966 -0.3649  0.1395
27367W        W46901  11.221  15.161   4.588  0.0401  0.2165 -0.2299
27368W        W46902  16.145   0.105   3.138  0.2004 -0.0159  0.1351
27369W        W46903  15.981  15.920  16.356  0.2561  0.1216 -0.0081
27370W        W46904   5.921  12.783  11.807 -0.1142 -0.0204  0.0509
27371W        W46905  14.277   2.839   0.163 -0.1373 -0.0262 -0.4640
27372W        W46906  13.590  15.968  13.509  0.0857  0.1131  0.0493
27373W        W46907   2.806   3.866   0.594  0.0104  0.1622  0.0898
27374W        W46908  12.848   2.946   2.035  0.0607  0.1094  0.1074
27375W        W46909   6.021  14.856  11.529 -0.0807 -0.0019 -0.0777
27376W        W46910   2.083   7.995   4.884 -0.1251 -0.0013  0.2880
27377W        W46911  10.979   6.059   1.946  0.5205 -0.1136  0.1167
27378W        W46912  12.481  17.153   5.005  0.1454 -0.1324 -0.0433
27379W        W46913  14.018   2.987   3.466  0.0837  0.5833 -0.1075
27380W        W46914  15.664   3.500  15.882 -0.1217  0.1083 -0.1493
27381W        W46915  12.963  17.605   1.530  0.0181 -0.0917  0.0474
27382W        W46916  13.128  10.440  12.148  0.2218  0.2842  0.0531
27383W        W46917  17.469   3.061  14.293  0.0814  0.1278  0.0807
27384W        W46918  14.338   6.552   2.031  0.0084 -0.2969 -0.0506
27385W        W46919   8.875   4.422   1.236 -0.0039  0.1258  0.1186
27386W        W46920  11.655   0.045  15.253 -0.1107  0.0894 -0.0690
27387W        W46921   3.337   8.323   2.835 -0.1002 -0.0842 -0.0092
27388W        W46922  12.161  11.229   0.403 -0.0515 -0.1499  0.0944
27389W        W46923  16.776   5.460  12.334  0.0675  0.0553  0.2593
27390W        W46924  11.379  12.098  14.998  0.1753  0.0615 -0.2479
27391W        W46925   1.679   6.648  16.476  0.0667 -0.0564 -0.3567
27392W        W46926   8.115   6.189  12.920  0.0837  0.1243  0.0416
27393W        W46927   8.803   6.845   3.573 -0.4703 -0.1219  0.0603
27394W        W46928   2.004   7.154   1.957  0.0775  0.0610 -0.0062
27395W        W46929  17.165   6.039  12.436 -0.0426 -0.1381 -0.5100
27396W        W46930   5.372   2.465   4.902 -0.2087  0.0465  0.3046
27397W        W46931  11.952   9.856  17.033 -0.1402 -0.1635  0.1903
27398W        W46932   9.485  10.102   0.251 -0.2180 -0.1101 -0.1610
27399W        W46933   6.134  13.423   5.016 -0.0849 -0.1006 -0.1016
27400W        W46934  10.553   7.135   3.164  0.1724  0.1163 -0.1355
27401W        W46935   9.126   6.833  16.254  0.1350 -0.2034  0.0940
27402W        W46936  15.115   9.217  16.696  0.0065  0.0539  0.1207
27403W        W46937  17.516   8.976  16.426  0.0242 -0.1007 -0.1494
27404W        W46938   6.552   1.389  15.789  0.2236  0.0703 -0.0144
27405W        W46939   8.182   6.265   5.858  0.3556 -0.2139  0.1061
27406W        W46940   6.486   5.361   1.074 -0.2237  0.1164  0.0435
27407W        W46941  15.372   0.512  13.907 -0.0586 -0.0256 -0.0473
27408W        W46942   5.386  16.956  14.028  0.1337 -0.0417  0.3421
27409W        W46943   3.403   8.479  13.350  0.1205  0.0634 -0.0158
27410W        W46944  11.184  12.881  12.292  0.1961 -0.0210 -0.3037
27411W        W46945   2.082   2.171  14.969 -0.0101 -0.1033  0.1124
27412W        W46946   2.970  16.465  15.206  0.0812 -0.2098  0.1280
27413W        W46947  10.612   6.759   2.806 -0.0639  0.0195  0.1230
27414W        W46948   5.121   0.436  11.201 -0.0502  0.1292 -0.2238
27415W        W46949   0.992  10.696  14.313  0.0701  0.0349 -0.0758
27416W        W46950   7.165  16.499  16.273 -0.2020  0.1269  0.0647
27417W        W46951   8.803   5.845  15.452  0.2265 -0.0907  0.1731
27418W        W46952  15.324   3.507   3.806 -0.2468  0.0452 -0.1654
27419W        W46953   1.125  13.915   2.459  0.0694 -0.1018 -0.0256
27420W        W46954   0.159  11.077   0.002  0.1108 -0.0682  0.1040
27421W        W46955   1.185   0.138  13.469  0.0730 -0.1230  0.0706
27422W        W46956   3.054   4.367   1.721  0.0397  0.0030 -0.1881
27423W        W46957   3.390  14.479   0.991 -0.1126 -0.4559 -0.1225
27424W        W46958  17.378   1.642  13.427 -0.0954  0.0742 -0.1118
27425W        W46959   8.663   5.504  11.912 -0.2507 -0.0247 -0.1392
27426W        W46960  16.671  10.005  16.870 -0.2355 -0.2970  0.2443
27427W        W46961   7.739   7.123  16.180  0.2475  0.1747 -0.2816
27428W        W46962   9.000  12.540  13.292 -0.0780  0.0018 -0.0088
27429W        W46963   2.865   6.434   1.579  0.1729 -0.0021  0.0963
27430W        W46964   0.114  14.429  15.783 -0.0091 -0.2155  0.0013
27431W        W46965  14.767  15.230   1.278  0.0849  0.0660  0.1491
27432W        W46966   9.651   9.309  12.561 -0.1476 -0.0610 -0.2215
27433W        W46967  10.017   3.122   3.985 -0.2477 -0.1912  0.2552
27434W        W46968  15.455   0.514  17.040 -0.0926 -0.1103 -0.0334
27435W        W46969   7.274   2.876   2.282 -0.0007  0.1831  0.1654
27436W        W46970   7.673   6.832  14.290 -0.1073 -0.0711  0.0127
27437W        W46971   1.028   0.975   2.646 -0.3141  0.0497  0.3006
27438W        W46972   9.941   3.889   1.116  0.2838 -0.1870 -0.0828
27439W        W46973  11.173  17.225   4.010  0.1557 -0.0883 -0.0508
27440W        W46974  10.160   6.617   0.260  0.0334 -0.0499 -0.0530
27441W        W46975   1.258   2.583  13.061 -0.2374  0.0149  0.1289
27442W        W46976   5.204   9.435   2.514 -0.1591 -0.2669 -0.1786
27443W        W46977   0.270   0.823   2.580  0.2161  0.3131 -0.2071
27444W        W46978  13.001   9.636   5.058  0.2822  0.0547 -0.2310
27445W        W46979   4.959  12.413  14.784 -0.0416 -0.3046  0.1544
27446W        W46980   0.272   7.974  16.153  0.1075  0.1677 -0.1034
27447W        W46981   9.852   1.507   3.131  0.1661  0.1437 -0.0764
27448W        W46982  10.250  14.997   0.448  0.1789  0.2842 -0.1846
27449W        W46983   0.334   4.335   0.482 -0.5275 -0.0258 -0.0079
27450W        W46984   7.558  10.924  16.691 -0.3173  0.0950  0.1831
27451W        W46985  17.494   4.579  16.903  0.3399 -0.0734 -0.3457
27452W        W46986   9.447   2.004  16.969 -0.2733 -0.0179  0.1575
27453W        W46987  16.442  14.806   4.444 -0.2106 -0.0912 -0.0176
27454W        W46988  12.697   9.738   0.712  0.4176  0.3175 -0.2024
27455W        W46989   7.549   7.528   0.656 -0.1346 -0.3429 -0.0911
27456W        W46990   2.072  14.523  12.031  0.0116 -0.3090  0.1973
27457W        W46991  15.953  12.524  17.052  0.1296 -0.1066 -0.0128
27458W        W46992   9.248  14.156   1.682 -0.0746 -0.2428  0.0657
27459W        W46993   4.327   9.739   1.937 -0.2944 -0.0852 -0.1243
27460W        W46994   8.517  14.695  13.652  0.1092  0.0728  0.0216
27461W        W46995  15.547   0.146   3.200 -0.0249 -0.3091 -0.2568
27462W        W46996  16.822   9.130  12.393 -0.0491 -0.1672 -0.2286
27463W        W46997  15.006   8.959  12.587 -0.0579 -0.1240 -0.0602
27464W        W46998   0.429  10.606   4.726  0.2897  0.2223  0.0466
27465W        W46999  15.453   1.795   0.216 -0.3480  0.3690  0.0014
27466W        W47000   4.179   7.013   0.366 -0.0803 -0.0596  0.1356
27467W        W47001   9.477   8.548  15.350  0.0072  0.2081 -0.2467
27468W        W47002   3.283  11.353  13.264 -0.0537 -0.0256 -0.1320
27469W        W47003   0.027   6.404   0.925 -0.3625  0.0466  0.0202
27470W        W47004   6.780   6.268   3.212  0.0120  0.2697  0.0742
27471W        W47005  14.832   3.677   3.775 -0.0035  0.1141 -0.1062
27472W        W47006  11.191   3.251   1.270  0.0887  0.0749  0.0895
27473W        W47007   0.354  12.112  15.830 -0.1871  0.2245 -0.0405
27474W        W47008   1.590   5.911   1.390 -0.0576 -0.2395  0.0241
27475W        W47009   1.197   7.817  15.890 -0.0063 -0.0539 -0.2616
27476W        W47010   4.804  12.296   5.229 -0.2579 -0.1722 -0.2903
27477W        W47011   3.833  17.493   5.101 -0.0666 -0.1481  0.0440
27478W        W47012   9.012   6.751   1.243 -0.1744  0.2350 -0.0039
27479W        W47013   6.037   6.678  16.243 -0.0057 -0.0962  0.1846
27480W        W47014   9.086   6.801   0.272 -0.2728 -0.1510 -0.1384
27481W        W47015  16.105   0.148   4.040  0.2369 -0.0332  0.1876
27482W        W47016  14.777   2.343   4.213 -0.2494  0.2282  0.1140
27483W        W47017  11.191  16.828  13.276 -0.1924 -0.0841 -0.2194
27484W        W47018   4.658  15.361  16.271  0.1783 -0.0049 -0.4021
27485W        W47019  10.776   3.896  14.922  0.2142  0.1906  0.5266
27486W        W47020   2.047  14.561   1.162  0.1717 -0.0928 -0.2364
27487W        W47021   7.350  15.487   3.477 -0.0477  0.2530  0.0998
27488W        W47022  14.936   7.583   4.170  0.0007  0.1557  0.0292
27489W        W47023   5.398   3.736  12.818  0.1132  0.1429 -0.0088
27490W        W47024  14.403  17.218  14.862 -0.0483  0.1078  0.1347
27491W        W47025   2.555  16.510  13.730 -0.0163 -0.0451  0.0055
27492W        W47026  17.430  15.603   0.695 -0.0762  0.1723  0.2080
27493W        W47027   6.568  11.264  12.793 -0.2370  0.3805 -0.1361
27494W        W47028   8.719   2.634   0.609  0.4122 -0.1437  0.4418
27495W        W47029   1.730   7.125   0.026  0.1616  0.2559  0.0032
27496W        W47030  11.989  14.990  15.680  0.2004 -0.0956 -0.3374
27497W        W47031  11.056  12.899  16.413  0.4868  0.0198 -0.0322
27498W        W47032   3.171   5.423   2.501 -0.2020 -0.1496  0.0856
27499W        W47033   9.222   4.049   2.148  0.4683 -0.0120  0.1018
27500W        W47034   2.800  16.098   1.376 -0.1059  0.2310 -0.1642
27501W        W47035   7.258   9.711  13.918  0.0685  0.1164 -0.0845
27502W        W47036  10.502  10.017   1.258 -0.2410 -0.0601 -0.0621
27503W        W47037  11.238   9.356   3.636  0.0905  0.1055 -0.2366
27504W        W47038   5.160  16.145   2.770 -0.1366  0.3413  0.0858
27505W        W47039  16.503  15.255   4.281 -0.2562  0.2698 -0.0898
27506W        W47040  13.760  14.541   0.258  0.1759 -0.0844 -0.0021
27507W        W47041   2.173   4.151  16.310 -0.1397  0.2000  0.2148
27508W        W47042   4.552  15.550  15.807  0.3051  0.2228  0.0358
27509W        W47043  17.627  13.955   1.093 -0.2735  0.0951  0.0937
27510W        W47044   9.676  14.538   0.000  0.0739 -0.1336  0.0821
27511W        W47045  15.135  17.017   0.293  0.0222  0.1640  0.0704
27512W        W47046   9.436  15.823   4.968  0.1238  0.1484  0.3392
27513W        W47047   5.689  12.271   1.426 -0.1204 -0.2597 -0.1459
27514W        W47048   4.048  16.226  16.466  0.0093  0.1718  0.0422
27515W        W47049   3.525  17.141   1.921 -0.1053  0.0999  0.2155
27516W        W47050   6.857  17.392   4.381  0.4996  0.0682 -0.1661
27517W        W47051   3.295  15.767  17.047 -0.1693 -0.1497  0.0735
27518W        W47052  12.909  14.276   4.193 -0.1480  0.2463  0.1915
27519W        W47053   3.319  17.607   4.883 -0.0544 -0.2524  0.0131
27520W        W47054   9.529  11.536  15.164 -0.5342 -0.0225  0.1402
27521W        W47055  16.850  15.966  15.138 -0.3844  0.0418  0.0575
27522W        W47056   5.754  17.183  12.454 -0.0288  0.0243 -0.1539
27523W        W47057   6.780   2.289   0.394 -0.1796  0.0128 -0.1344
27524W        W47058   2.625   2.848  14.724  0.2203  0.0542 -0.1606
27525W        W47059   5.103  14.727  12.744 -0.2573 -0.0340  0.1175
27526W        W47060   4.581   9.851   2.440 -0.3412 -0.0381 -0.1994
27527W        W47061   5.985  10.714   0.863 -0.1412  0.1850 -0.1386
27528W        W47062   9.946   4.188  12.628 -0.1134 -0.1090  0.1040
27529W        W47063  14.410  15.757   0.066 -0.0217 -0.2743 -0.2209
27530W        W47064   0.290   1.716  13.361  0.0791  0.0517 -0.1209
27531W        W47065  17.542   4.247  15.978  0.2097 -0.0654 -0.1065
27532W        W47066   1.946   1.383   4.713 -0.0166  0.4198  0.1442
27533W        W47067   4.455   7.242   3.276 -0.2387  0.1847 -0.1244
27534W        W47068   2.328   5.513   0.866 -0.1757  0.3248 -0.2012
27535W        W47069   7.570   0.173   1.991  0.2233  0.0846  0.0560
27536W        W47070   3.609  12.056   0.130 -0.1521  0.3742  0.0288
27537W        W47071   6.725   1.507   3.282 -0.2599  0.1396  0.1098
27538W        W47072   5.893   0.293   2.418 -0.1014  0.0232  0.1882
27539W        W47073   5.467  14.480  12.934 -0.1209  0.0857 -0.0194
27540W        W47074  11.213   0.432   1.634  0.0698  0.1244  0.4673
27541W        W47075   9.720  11.865   4.361 -0.0728  0.0642 -0.0977
27542W        W47076  15.650   6.522   0.701  0.0176  0.2193  0.2777
27543W        W47077   5.853  10.605  16.861 -0.0848 -0.0599 -0.3316
27544W        W47078   8.746   1.324  14.384  0.2430  0.0690 -0.2765
27545W        W47079   8.719   2.000   1.915 -0.3692  0.0361 -0.2744
27546W        W47080   8.509  15.584  13.726 -0.2438 -0.1731 -0.0868
27547W        W47081   3.090  14.024  15.568  0.2088 -0.0702  0.1551
27548W        W47082   0.029  10.247  13.219  0.1853 -0.0154 -0.0787
27549W        W47083  15.897   6.163   2.727  0.1260 -0.2463 -0.0614
27550W        W47084   8.893  10.999  12.481 -0.0060  0.0207  0.1717
27551W        W47085  14.958  14.815  13.158 -0.2766  0.2220  0.1406
27552W        W47086   6.660  10.844   4.114 -0.0722  0.2659 -0.1766
27553W        W47087   4.664  11.349  13.447 -0.3518 -0.0867  0.2002
27554W        W47088   0.466  16.640  13.080  0.1174  0.2149  0.1130
27555W        W47089  11.337   1.948  16.779  0.0998  0.2058  0.1204
27556W        W47090   0.319   2.600   0.399 -0.1072 -0.1141 -0.1070
27557W        W47091  17.201  12.795   1.145 -0.3985  0.1385  0.3431
27558W        W47092   2.263   7.546  13.126  0.3900  0.0622  0.0281
27559W        W47093   1.253   3.791   3.810  0.1019  0.2402 -0.1231
27560W        W47094   0.305   3.721  12.664 -0.1884 -0.0480  0.3361
27561W        W47095  17.452  14.349   1.353  0.0312  0.0590  0.2203
27562W        W47096   2.775   3.010   3.419  0.1611 -0.0972  0.3109
27563W        W47097   8.647   5.277  13.391  0.1486  0.0896 -0.1389
27564W        W47098  10.408  14.042   4.804  0.2296  0.0792  0.0149
27565W        W47099  10.438  12.785  12.022 -0.2700 -0.0740  0.0437
27566W        W47100   0.715   3.729   1.753  0.0802 -0.4357  0.0334
27567W        W47101   0.220  10.018  12.745  0.0482 -0.1964  0.0654
27568W        W47102   0.130   9.273  16.700 -0.0496 -0.0587 -0.0172
27569W        W47103   2.138  13.976  17.050  0.4746  0.0855  0.1296
27570W        W47104  12.022  15.514   5.138  0.0518 -0.0909  0.1316
27571W        W47105  13.561   8.209   2.419  0.0003  0.0766 -0.1805
27572W        W47106  17.257   7.463   3.628  0.0495 -0.0183  0.1558
27573W        W47107  16.579   3.496  16.380 -0.0629 -0.0649  0.1058
27574W        W47108  12.707   4.306   2.243  0.3136  0.2646  0.1409
27575W        W47109   3.901   9.094  16.769 -0.0138  0.1724  0.2187
27576W        W47110   4.969  14.417  15.518 -0.0008 -0.1775  0.2218
27577W        W47111  11.706   5.401   1.545 -0.4635  0.0465  0.2760
27578W        W47112   0.210   1.119  14.204  0.3014 -0.0096  0.1657
27579W        W47113   0.971  12.169   2.662  0.0288  0.2144 -0.4075
27580W        W47114   9.140   3.673   5.614 -0.0320 -0.5087 -0.3012
27581W        W47115   7.068  12.886  14.136 -0.0220 -0.0482  0.2139
27582W        W47116  16.776  15.362   0.090  0.1427 -0.0525  0.1598
27583W        W47117   7.797  11.884  14.863  0.3388  0.1165 -0.0262
27584W        W47118   3.165  15.134   3.107  0.1843  0.0182  0.3850
27585W        W47119   8.383   2.162   0.634 -0.2662  0.0142  0.0221
27586W        W47120   4.038   3.517  12.918 -0.0659 -0.1376  0.1438
27587W        W47121   7.245   1.036  15.273 -0.3569 -0.0999  0.0167
27588W        W47122  12.616  15.448   1.461  0.0871 -0.3520  0.1981
27589W        W47123   5.407  10.971  14.176 -0.1277  0.2140  0.0237
27590W        W47124   2.220  17.328  15.250 -0.2965 -0.3396  0.1110
27591W        W47125  16.557   6.228   4.568  0.1876  0.0791 -0.1871
27592W        W47126   2.676   1.848  13.805  0.1463 -0.0795  0.0977
27593W        W47127  13.423   7.969   4.972 -0.1014  0.0100 -0.0390
27594W        W47128   0.527   2.181  14.089 -0.1372 -0.3006 -0.1253
27595W        W47129   6.205   5.685   1.990 -0.1207 -0.1286 -0.1245
27596W        W47130  12.900  11.223  16.565  0.0161  0.0863 -0.0364
27597W        W47131  13.224   3.899  15.469 -0.1812  0.1167 -0.1506
27598W        W47132   7.561   7.308  16.934 -0.0345 -0.0734  0.0606
27599W        W47133  17.416  15.559   4.366 -0.1594 -0.2655  0.0971
27600W        W47134  13.344  15.791  13.077  0.0994 -0.0322  0.1652
27601W        W47135   5.711   6.044   1.039  0.0942 -0.2390 -0.0184
27602W        W47136  11.990   1.608  14.506 -0.1230 -0.3402  0.0287
27603W        W47137   1.389   1.758  13.922 -0.0083 -0.1314 -0.1572
27604W        W47138   2.004  13.620   4.688  0.1418  0.0713 -0.0445
27605W        W47139   9.993   9.892   2.898 -0.1634 -0.0862 -0.1119
27606W        W47140   8.401   3.520   3.470  0.2436 -0.2711  0.4005
27607W        W47141  12.308  11.978   5.079 -0.4276 -0.0371 -0.3322
27608W        W47142  16.100   5.924   4.169 -0.0924  0.2118  0.0761
27609W        W47143   6.070   8.656  13.252 -0.0741 -0.0235 -0.0277
27610W        W47144   1.452   4.528   3.391 -0.1964  0.1374 -0.0381
27611W        W47145   0.939   7.001   2.866 -0.1989  0.3169  0.1451
27612W        W47146   0.559   6.314   3.983  0.1999 -0.1418 -0.1482
27613W        W47147  12.536   0.329  16.030  0.0313  0.6466  0.2133
27614W        W47148  17.523   9.829   3.805  0.0605  0.3283 -0.0509
27615W        W47149  17.000   0.939   2.233  0.2374  0.3668 -0.1052
27616W        W47150  10.080   2.446   2.149  0.0004 -0.0790  0.1082
27617W        W47151  10.442   0.462  12.320 -0.0002  0.0447  0.2054
27618W        W47152  11.632   9.703  16.736  0.2976  0.2256 -0.0563
27619W        W47153   9.773  10.000   1.450 -0.0900 -0.2187  0.1681
27620W        W47154   4.037   1.665  14.315  0.1478  0.0317  0.2738
27621W        W47155   5.019   8.345  15.124 -0.2083 -0.0970  0.1579
27622W        W47156  16.252  14.283   1.107  0.1617 -0.0501 -0.2686
27623W        W47157  15.338   3.771   3.334  0.1225  0.1586  0.0399
27624W        W47158  12.751  14.724  15.080 -0.0825 -0.1603  0.0708
27625W        W47159   8.128   2.383  14.127  0.0615 -0.0499 -0.1323
27626W        W47160  13.759   3.766   1.237  0.3276 -0.2276  0.0347
27627W        W47161   9.602  12.986  12.436  0.3607  0.3564 -0.1408
27628W        W47162   0.981   9.019  14.430  0.0606 -0.0267 -0.1829
27629W        W47163   5.410   8.191  14.467 -0.1561  0.1176 -0.2325
27630W        W47164   3.378  14.966   4.852  0.0835  0.1349  0.0967
27631W        W47165  12.317   7.540   4.493  0.2989  0.2518 -0.0975
27632W        W47166  13.048  11.608  16.960  0.0510  0.0032 -0.1218
27633W        W47167   0.517   8.269  14.873 -0.0526 -0.2310 -0.0759
27634W        W47168   5.216  11.451   4.075 -0.1673 -0.0092 -0.1253
27635W        W47169  15.387   7.963   4.369  0.0363 -0.1215 -0.1370
27636W        W47170  13.831  14.497   2.617 -0.0428 -0.0407  0.1806
27637W        W47171   0.920  11.509  13.701  0.0156 -0.1462 -0.2707
27638W        W47172  16.193   8.458  16.513 -0.0517 -0.2102 -0.0976
27639W        W47173   4.740  12.189   4.060  0.0688  0.0547  0.1754
27640W        W47174  15.234   6.746   4.887  0.0280  0.1481  0.0128
27641W        W47175  11.990  17.008   4.210  0.2295  0.0925 -0.0819
27642W        W47176   5.854  11.513   0.504 -0.2486  0.1012 -0.0334
27643W        W47177   9.365   0.426  13.865  0.2309 -0.0583  0.1292
27644W        W47178   3.483  12.971   1.266 -0.3026 -0.0672  0.1303
27645W        W47179  15.468  10.820   0.908 -0.0513  0.3182 -0.0832
27646W        W47180   3.808   8.801  13.198 -0.0375 -0.0999 -0.2668
27647W        W47181  10.988   9.154  16.400  0.3641 -0.2485 -0.2633
27648W        W47182  11.816  10.836   3.968  0.0883 -0.0737 -0.0243
27649W        W47183   6.632   8.399   2.894 -0.1606  0.2613  0.0266
27650W        W47184  10.916  13.231   0.951  0.1191 -0.1567  0.3202
27651W        W47185   2.374  10.711   2.407 -0.0368  0.0229 -0.1737
27652W        W47186   9.195   4.728   3.321  0.2374 -0.1277  0.0644
27653W        W47187   5.153  11.364  13.270 -0.1715  0.0766  0.0253
27654W        W47188   3.598  13.208  13.166 -0.4111 -0.0985 -0.0506
27655W        W47189   1.873  16.121   4.310 -0.0788  0.4623  0.3674
27656W        W47190  10.694  15.696   3.299  0.2538  0.3210 -0.3513
27657W        W47191   6.381  17.196   3.858 -0.1081 -0.1325  0.0486
27658W        W47192   3.109   8.485  16.925  0.2721  0.0189  0.0788
27659W        W47193  10.150   7.364  13.221 -0.1375  0.1773 -0.1380
27660W        W47194   9.574   3.526  15.353  0.4380 -0.0546 -0.0335
27661W        W47195  15.414   9.642   0.743  0.1097  0.0212  0.0946
27662W        W47196  10.956  11.477  13.117  0.2505  0.0855 -0.0264
27663W        W47197  17.049  16.816   1.676 -0.2388  0.0062  0.0497
27664W        W47198  17.519  14.262   4.930 -0.0364 -0.0683  0.1644
27665W        W47199   7.764   2.312   1.624  0.1721 -0.0926 -0.0951
27666W        W47200  16.118   2.289   3.846 -0.0630  0.0638  0.2112
27667W        W47201   9.925  11.276   1.092 -0.0775 -0.1068 -0.0572
27668W        W47202  17.514  13.977  13.000  0.0296  0.3320  0.1134
27669W        W47203  10.007  12.563  12.068  0.1461  0.4040  0.1418
27670W        W47204   3.789   7.647  12.615 -0.0111  0.2074  0.0551
27671W        W47205   4.986   5.610  15.206 -0.1998 -0.0612 -0.1701
27672W        W47206   0.752   7.495   4.216 -0.4456 -0.1042  0.0611
27673W        W47207  11.982   8.043   3.150  0.3235  0.0841 -0.1647
27674W        W47208   1.468  16.231   0.168 -0.0392  0.1005 -0.0583
27675W        W47209   7.658   2.641   2.569 -0.1958  0.0172  0.0690
27676W        W47210  13.451  13.510  12.739  0.0605  0.1986  0.0700
27677W        W47211   7.233  16.155   5.043  0.1457  0.1919 -0.3424
27678W        W47212  14.284   8.115  15.887 -0.0318  0.0056  0.5260
27679W        W47213  16.647  10.069   2.757  0.0503  0.0404  0.1523
27680W        W47214   7.118  13.047   0.552 -0.0765  0.3066 -0.1036
27681W        W47215  12.272  13.639   3.316  0.1131 -0.0692 -0.0209
27682W        W47216   8.291   5.170   0.819  0.0805 -0.2137  0.1452
27683W        W47217  14.763   1.302  16.347 -0.1432 -0.1915  0.0275
27684W        W47218  14.104  17.524  14.622  0.2958  0.1448  0.1660
27685W        W47219  16.096   7.024  16.667 -0.0308  0.2121  0.0026
27686W        W47220  12.112   2.487  15.767  0.0771  0.0997 -0.1493
27687W        W47221   2.023   6.477   5.945  0.1610  0.1365 -0.0052
27688W        W47222  10.306  14.987  16.017 -0.0311  0.0743  0.1676
27689W        W47223   9.046   3.219   2.380  0.0284  0.0254 -0.0856
27690W        W47224  10.976  13.000   4.594  0.0933 -0.2143 -0.3075
27691W        W47225  10.994  13.951  15.663 -0.2667  0.2492 -0.0496
27692W        W47226   8.444   5.094   2.835  0.0563 -0.3172 -0.2671
27693W        W47227   3.872   2.201  14.455 -0.0201  0.2155 -0.1729
27694W        W47228  14.131  14.545   3.924  0.1186 -0.2574 -0.0033
27695W        W47229  12.985  14.362   2.457 -0.0949  0.1654 -0.2617
27696W        W47230  12.652   5.239  16.713 -0.2881  0.1342  0.1953
27697W        W47231   1.559   1.808  12.572 -0.0383 -0.0076 -0.1625
27698W        W47232   6.058  13.117  12.678 -0.0313  0.0568  0.1145
27699W        W47233  11.653  16.465   3.632  0.1895  0.4023  0.1613
27700W        W47234  13.089  13.314  16.537  0.4609 -0.2919 -0.0436
27701W        W47235   7.960  15.169   0.706 -0.1902 -0.1590  0.1097
27702W        W47236   6.767   6.405  15.431 -0.0457 -0.2990  0.0545
27703W        W47237  14.616  10.506  15.941  0.0235  0.0256 -0.0294
27704W        W47238  16.584   8.313  11.964 -0.1033  0.4895 -0.1925
27705W        W47239  10.373   5.991  12.951  0.1763  0.1578  0.0003
27706W        W47240  11.827  14.325   0.648 -0.4964  0.1140  0.2464
27707W        W47241   6.800  14.891   2.469  0.1722  0.1206 -0.0814
27708W        W47242   6.443  15.068   0.295 -0.1734 -0.1060 -0.0491
27709W        W47243   0.620  13.903   0.193 -0.0387  0.2047 -0.2424
27710W        W47244  15.458  12.060   0.443 -0.2749 -0.1131  0.0853
27711W        W47245   2.429   6.993   3.907  0.1439  0.0787  0.0701
27712W        W47246   3.726   9.900  12.599  0.1336  0.2933 -0.0958
27713W        W47247   1.809  15.348   1.677  0.0182 -0.3173 -0.1690
27714W        W47248   1.773   0.645   3.594  0.2881 -0.1813  0.3968
27715W        W47249   7.288  16.867   0.239 -0.0524 -0.1981  0.1869
27716W        W47250  15.620   8.967  14.133  0.0944 -0.0203 -0.1082
27717W        W47251   7.168   2.646  12.232 -0.0504  0.2016  0.0691
27718W        W47252  15.635   9.287  13.669 -0.1857  0.0156  0.0982
27719W        W47253  16.984  11.460  15.468  0.0066 -0.0244  0.2513
27720W        W47254   3.284  14.360  12.111  0.0560  0.0213  0.1382
27721W        W47255   1.449  10.658  12.731  0.1872 -0.2572  0.1996
27722W        W47256   3.180   2.464   5.130 -0.0310 -0.1852 -0.3100
27723W        W47257   5.141   5.874  13.814  0.2635 -0.2649  0.1276
27724W        W47258  12.854  10.735  15.345 -0.0932  0.2064 -0.0102
27725W        W47259   3.459  14.118  16.375 -0.0750 -0.0312  0.1812
27726W        W47260   0.379   2.154   1.919 -0.3317  0.2321 -0.3412
27727W        W47261   4.347  16.877   3.939 -0.1292 -0.0079  0.0901
27728W        W47262  13.289  11.430   5.146 -0.0108 -0.1034 -0.0606
27729W        W47263  14.460   9.359   4.677  0.1467  0.1053  0.0249
27730W        W47264  10.596  12.812   2.567  0.0747  0.0321 -0.0689
27731W        W47265   5.784  13.101   0.832  0.1230 -0.0534 -0.1585
27732W        W47266  13.869   1.326   1.759 -0.2364  0.1243  0.2523
27733W        W47267   4.565   9.452   4.217  0.1138 -0.0485  0.0407
27734W        W47268  12.901  12.479   3.704 -0.1297  0.2921 -0.0439
27735W        W47269  13.375   1.519  14.897 -0.3965 -0.0580 -0.3903
27736W        W47270  17.512  11.833  14.380  0.0091 -0.2067  0.1659
27737W        W47271   9.751   9.042  16.312 -0.0027  0.1906  0.3043
27738W        W47272   7.734   0.676   2.664 -0.0470  0.2724 -0.1943
27739W        W47273  16.648  11.651   4.679  0.0889 -0.0284  0.0967
27740W        W47274  16.606  11.646  14.459 -0.0575  0.0229  0.2385
27741W        W47275   2.932  11.667  12.590 -0.0856  0.0679  0.1550
27742W        W47276  10.450   7.011  12.957 -0.0079  0.1644  0.0033
27743W        W47277   0.567  16.454  16.239  0.1651  0.4566 -0.0101
27744W        W47278  14.245  13.049  15.192 -0.1156 -0.3823  0.1143
27745W        W47279   2.677  15.724   1.999  0.2408 -0.1997 -0.1412
27746W        W47280  13.635  15.035  13.845  0.2609 -0.0131  0.3050
27747W        W47281   6.882  13.608  12.372  0.0013  0.2837 -0.0392
27748W        W47282  14.748  13.019  12.478 -0.1124  0.0558 -0.1459
27749W        W47283   1.834  10.161  14.626 -0.0304 -0.4387 -0.0797
27750W        W47284   9.104   2.700   0.871  0.0812 -0.3290 -0.1025
27751W        W47285  14.553   2.062   1.389  0.0617  0.0559  0.1334
27752W        W47286   4.907   9.383  15.246 -0.0617  0.3091 -0.2961
27753W        W47287   2.788   7.512  12.438 -0.1296  0.2200  0.1766
27754W        W47288  13.116   9.322   2.277  0.0418  0.0585  0.0429
27755W        W47289   9.152  13.575   3.015 -0.0398 -0.0810  0.0017
27756W        W47290   0.495   0.459  14.170  0.0455  0.0400 -0.0774
27757W        W47291   2.920  12.589  12.722  0.0133 -0.1750  0.1333
27758W        W47292   5.330  12.783  14.695  0.0072 -0.1521 -0.4445
27759W        W47293   3.393  17.451   0.082 -0.3176  0.1336 -0.0017
27760W        W47294   3.590  11.773   3.515 -0.2129 -0.0985 -0.1283
27761W        W47295   5.688  12.874  15.106  0.1888 -0.0984 -0.1661
27762W        W47296   0.354  15.218  15.416  0.0616 -0.2540  0.2521
27763W        W47297   1.158   3.777   2.594  0.0105  0.2657 -0.1213
27764W        W47298   2.684  15.895  12.013 -0.1101 -0.0579  0.1300
27765W        W47299  13.565   1.384   2.152  0.1125 -0.0906 -0.4156
27766W        W47300  15.937   2.882  14.221 -0.2610  0.1669  0.0847
27767W        W47301   1.560   1.643   4.609 -0.0755 -0.3119 -0.2206
27768W        W47302   6.505   0.120   3.079  0.1959 -0.0585 -0.1792
27769W        W47303  12.024   4.618  13.517  0.0014  0.0115  0.1930
27770W        W47304  17.026  10.317  13.910 -0.0480  0.3541  0.1589
27771W        W47305  14.534   8.706   3.046  0.1006  0.1539 -0.0075
27772W        W47306  14.599  15.125   4.854  0.0051 -0.0010  0.1097
27773W        W47307   9.650   2.467  15.446  0.3462 -0.0573 -0.3470
27774W        W47308   9.623   6.669  16.105 -0.2043 -0.2025 -0.0454
27775W        W47309   2.529  12.360  12.561 -0.1507  0.0275 -0.1292
27776W        W47310   4.772  17.489   4.823  0.5726 -0.1072 -0.3232
27777W        W47311   7.220   2.769  16.285  0.1120 -0.0980  0.2362
27778W        W47312  14.234   1.521  12.884  0.0399  0.0100  0.1638
27779W        W47313  14.454  11.225  12.695 -0.1680  0.2107 -0.1850
27780W        W47314   7.081   6.776   2.535  0.1155  0.0123 -0.1623
27781W        W47315   1.259   7.765  16.435  0.0714  0.1079 -0.1170
27782W        W47316   6.666  10.220   3.399 -0.0276  0.2462  0.1538
27783W        W47317   8.090   5.226  14.728  0.2587  0.3479 -0.1340
27784W        W47318   0.369   9.310  12.177 -0.1236 -0.0491  0.0925
27785W        W47319  11.472  12.073   2.161  0.1062  0.0275  0.2718
27786W        W47320   2.081  14.107  12.344  0.1435  0.0196 -0.1560
27787W        W47321  17.190  13.145   2.859  0.2823  0.2022 -0.1914
27788W        W47322  13.495   8.781   3.746 -0.0202  0.2852 -0.0695
27789W        W47323   3.552   5.767  14.991 -0.1537 -0.0145 -0.0490
27790W        W47324   3.855   6.001  17.038 -0.0173  0.1969  0.0062
27791W        W47325  13.933  14.030   2.924 -0.0245  0.0976 -0.0747
27792W        W47326  11.250  11.675  14.027  0.2348 -0.1158  0.0867
27793W        W47327   7.245  16.173  15.905  0.1627  0.3347  0.0672
27794W        W47328   8.720   3.453   3.928 -0.1591 -0.1969 -0.1350
27795W        W47329  14.782  17.097   2.408 -0.2132 -0.0394 -0.1784
27796W        W47330   4.708  11.097  13.017 -0.0531  0.1435 -0.1596
27797W        W47331   5.424   9.354   4.447  0.2249 -0.3136  0.2530
27798W        W47332   9.992   5.346  13.583 -0.0140 -0.0906 -0.0928
27799W        W47333  16.898   4.937   3.691  0.3233 -0.3578  0.3230
27800W        W47334  14.868  12.211  13.994 -0.0322  0.4972  0.2097
27801W        W47335   5.684   1.735   1.319  0.0114  0.0720 -0.0673
27802W        W47336   3.611   2.867  14.974 -0.2853 -0.0817 -0.1230
27803W        W47337   6.629  15.123  14.745  0.1066 -0.0926  0.1307
27804W        W47338   1.179  13.173  12.591  0.2925  0.0897  0.0066
27805W        W47339   0.980  15.258  14.159  0.2130  0.1731 -0.0391
27806W        W47340  15.847   0.102   3.613  0.0272 -0.1372 -0.0513
27807W        W47341  17.630   5.888  12.222 -0.1560 -0.5165  0.0477
27808W        W47342  12.649   2.702   1.203 -0.0199  0.1521 -0.3341
27809W        W47343   8.023  13.811   4.534  0.1782  0.0339 -0.2140
27810W        W47344  14.834  10.428  15.135  0.0001  0.2806 -0.0588
27811W        W47345  10.658  16.898  15.533 -0.3020  0.1940 -0.2052
27812W        W47346  17.131  12.267  16.758  0.1535 -0.1890 -0.1172
27813W        W47347  13.743   9.322   4.410  0.2742  0.4572  0.1009
27814W        W47348   1.724  15.785  13.001  0.2050 -0.2141 -0.0228
27815W        W47349   0.822  15.803   5.194  0.1671 -0.2575 -0.0334
27816W        W47350  13.743   7.021   4.064  0.3302 -0.4992 -0.1256
27817W        W47351   3.116  11.602   0.666  0.2784 -0.1280  0.4805
27818W        W47352   7.783  13.665  16.312 -0.0148 -0.0759 -0.1641
27819W        W47353   5.049  11.953  13.469  0.0337 -0.0450 -0.1764
27820W        W47354   9.585   0.847   4.390  0.0956 -0.0366 -0.2591
27821W        W47355   3.433  13.251  14.492  0.0612  0.1129  0.1083
27822W        W47356   4.712   9.028  16.529  0.3115  0.3261  0.0594
27823W        W47357  13.904   3.725  13.866 -0.0020 -0.1375  0.1897
27824W        W47358  10.396   0.344   1.086  0.2870 -0.3245 -0.0011
27825W        W47359  16.204   5.157  16.742 -0.4268 -0.3607 -0.5015
27826W        W47360   6.843   2.361  12.970 -0.0786  0.1616  0.1839
27827W        W47361   1.543  13.111  14.609  0.2300  0.0634 -0.0903
27828W        W47362  11.191   7.669  12.097  0.2197 -0.0193 -0.0581
27829W        W47363  14.866   1.930  15.238 -0.1527 -0.0491 -0.3436
27830W        W47364  16.295   4.174  15.018 -0.0162 -0.0908 -0.1815
27831W        W47365   0.738   5.520  13.538 -0.4301 -0.0452 -0.0087
27832W        W47366  15.113   0.733  15.566  0.0236  0.0217  0.1133
27833W        W47367  11.992  11.688   0.999 -0.2820 -0.0849 -0.3111
27834W        W47368   3.525  16.804  15.606 -0.0093  0.2007  0.0886
27835W        W47369   1.648   7.090   0.504  0.3116  0.2521 -0.2961
27836W        W47370  11.838  13.153   2.871 -0.0465 -0.2092  0.1189
27837W        W47371  10.743  13.660  13.535  0.0131 -0.0452  0.2458
27838W        W47372  15.932  12.657  15.078 -0.0695  0.0461  0.2146
27839W        W47373   0.961  17.403  16.402  0.2614 -0.1042  0.0937
27840W        W47374  16.212   6.634  15.852  0.1684  0.1671  0.1054
27841W        W47375  17.037   4.171  15.725 -0.0158  0.2628 -0.1723
27842W        W47376  16.551  14.908   0.004 -0.3262  0.1421  0.0399
27843W        W47377  15.459  12.820  15.691 -0.0889 -0.0061 -0.2455
27844W        W47378   9.959   2.084   0.565 -0.0799 -0.1203 -0.0281
27845W        W47379   5.768   9.494  14.299  0.0303  0.1239 -0.1185
27846W        W47380  16.752   8.958  16.086 -0.2718  0.2358  0.1979
27847W        W47381   6.519   7.599  15.165  0.4197  0.1393  0.1458
27848W        W47382  10.753   7.125   3.769  0.0604  0.1260 -0.0075
27849W        W47383   9.682  15.015   2.096  0.1745  0.0950 -0.0611
27850W        W47384   9.959   3.937  14.377  0.1615  0.5132 -0.1063
27851W        W47385   2.605   4.319  14.666  0.0618 -0.1403  0.2290
27852W        W47386   3.138   1.703  14.581  0.1719  0.1177  0.2885
27853W        W47387   5.668  12.989  12.919 -0.0960 -0.0200 -0.4083
27854W        W47388  13.210   1.487  12.452 -0.1649 -0.2039  0.3038
27855W        W47389  16.731   2.999   5.125  0.0363 -0.0382 -0.0893
27856W        W47390   3.119   5.870  12.943  0.2121 -0.1675  0.0146
27857W        W47391   6.145   9.968  16.240 -0.0504  0.3415  0.0707
27858W        W47392  10.266   3.497  13.281  0.3722 -0.1381 -0.1210
27859W        W47393  13.547   4.626   3.474  0.2872  0.0100  0.0941
27860W        W47394   6.865   8.239  16.339  0.0582  0.0245  0.2860
27861W        W47395   9.840  15.614  13.775 -0.0038  0.0696 -0.4496
27862W        W47396  13.770   4.248   1.181 -0.1172 -0.1382  0.2172
27863W        W47397  12.949   7.792   4.899  0.3180  0.3998  0.0619
27864W        W47398   4.220  11.479  14.391 -0.0915  0.0491 -0.2210
27865W        W47399   6.404  13.902   4.812  0.4126  0.4894 -0.2657
27866W        W47400   4.803   6.986  12.019 -0.1125 -0.0063  0.1577
27867W        W47401   0.571  14.561  16.858 -0.1591  0.1607 -0.3456
27868W        W47402   2.248  15.676  12.273 -0.0157  0.2643 -0.0974
27869W        W47403   7.424  16.787   4.436  0.0017  0.1646  0.0467
27870W        W47404   4.706   6.757  16.138  0.0931 -0.1675  0.1673
27871W        W47405   9.684  15.693   4.448  0.1391 -0.0136  0.1087
27872W        W47406   7.630   1.625  16.480  0.1958  0.2480 -0.1217
27873W        W47407  12.336   0.078  14.265 -0.4679 -0.0336 -0.2897
27874W        W47408  13.380   7.287  14.838 -0.1270 -0.0203  0.0463
27875W        W47409   0.402   6.983   2.632  0.2378 -0.1868 -0.0806
27876W        W47410  11.058  11.374  14.435  0.1974 -0.1145 -0.0848
27877W        W47411   0.217  16.002  13.926  0.0569  0.0735  0.0312
27878W        W47412   0.615  10.427  14.071 -0.0730 -0.1227 -0.0222
27879W        W47413  14.674   4.577  16.840  0.3214  0.1686  0.2377
27880W        W47414   4.902  16.991  13.966  0.1489  0.1370  0.1212
27881W        W47415   3.029  16.735   0.124 -0.3199  0.2962  0.3038
27882W        W47416   9.057   2.894  12.320  0.2605  0.1295  0.1773
27883W        W47417  14.572  14.847  14.361  0.2775  0.1196  0.3537
27884W        W47418   9.578   4.377   2.689 -0.0407 -0.1367  0.1023
27885W        W47419   7.186   7.539  15.350  0.0378  0.3038  0.0156
27886W        W47420   6.212   5.334  15.833 -0.3053 -0.1944 -0.2430
27887W        W47421   0.793   7.300  13.944 -0.2423 -0.1280 -0.1913
27888W        W47422  10.679  11.143  13.380 -0.0932  0.0170  0.1659
27889W        W47423  11.216  17.428   0.038 -0.0842  0.1333  0.0491
27890W        W47424   4.610   0.845  13.698 -0.1488 -0.0105  0.0996
27891W        W47425   3.219  16.710  13.252  0.4333  0.2281  0.3785
27892W        W47426  16.984   6.438   0.312  0.0755  0.2032  0.2613
27893W        W47427   1.408  15.778  17.006 -0.0161  0.1766 -0.1344
27894W        W47428   7.555  16.305   4.377  0.1360 -0.0345  0.0843
27895W        W47429   5.238   6.879  16.067 -0.0215 -0.0804 -0.0043
27896W        W47430  15.133   1.485  12.565 -0.0273 -0.0698 -0.0502
27897W        W47431   6.267  16.009   2.938  0.1343  0.0394  0.2101
27898W        W47432   9.359  14.881   5.178 -0.0859  0.0797  0.1686
27899W        W47433   3.530   7.068  14.114  0.1860 -0.1857  0.1797
27900W        W47434   7.236   5.572  12.694  0.1160 -0.3662  0.0073
27901W        W47435  10.046  12.262   5.389 -0.0599  0.1001 -0.1143
27902W        W47436   3.039   7.724   0.319 -0.2116  0.3639  0.0452
27903W        W47437   0.847   1.912   3.548  0.1994  0.0208 -0.3274
27904W        W47438  10.714  13.047  12.325  0.2496  0.1865 -0.1435
27905W        W47439   2.829   9.181   1.287 -0.1392  0.2532 -0.0381
27906W        W47440   3.794  10.133  15.085  0.1612  0.2363  0.1389
27907W        W47441   6.445  11.607   3.050  0.0456  0.2930 -0.2339
27908W        W47442  12.706   0.803   2.758 -0.2462 -0.1886  0.3558
27909W        W47443   1.008   4.979   2.063 -0.1081  0.0662  0.0631
27910W        W47444   3.130   1.494   3.185 -0.0674  0.1449 -0.3262
27911W        W47445   2.070   6.260  12.222 -0.0789 -0.1293 -0.1754
27912W        W47446  14.946   2.085   3.777 -0.2469 -0.1434  0.2476
27913W        W47447  10.110   1.411  16.059 -0.2164 -0.1368  0.2287
27914W        W47448   1.323  13.143  13.562 -0.0193 -0.1946  0.0153
27915W        W47449   3.170  10.912   1.298  0.1837  0.1677 -0.0005
27916W        W47450   6.810   0.210   2.698 -0.1284 -0.1253 -0.0871
27917W        W47451   6.622   4.869   2.903 -0.1091  0.2129 -0.1138
27918W        W47452  11.858   2.810   2.981  0.0540  0.1420  0.1929
27919W        W47453   9.514  12.017  14.887 -0.2417 -0.3957  0.2962
27920W        W47454   4.516   9.436  15.609  0.1990  0.1820  0.0130
27921W        W47455   0.001  14.199  13.975  0.0403  0.0571  0.1739
27922W        W47456   2.108   9.347   0.658  0.1580 -0.3358 -0.0567
27923W        W47457  15.611   2.197   4.184 -0.0138 -0.0141 -0.1336
27924W        W47458  17.137   3.202  16.196  0.1185  0.1231 -0.0032
27925W        W47459   5.506  14.763   3.874  0.1205 -0.0392 -0.1709
27926W        W47460   3.757   5.644   0.732 -0.0413  0.1389  0.0774
27927W        W47461  16.807   1.671  13.045  0.0327  0.2620  0.2954
27928W        W47462  11.523  11.333   3.043 -0.3780  0.2709 -0.1558
27929W        W47463   4.139   7.348   4.081 -0.1553  0.0275  0.0299
27930W        W47464   6.924  17.102  12.407  0.0061 -0.0636 -0.3925
27931W        W47465  12.510  10.906  16.593 -0.2440 -0.0990 -0.1344
27932W        W47466  15.766   4.607   1.745 -0.0867 -0.0648  0.0884
27933W        W47467  16.649  15.323  15.827 -0.0606  0.3228 -0.2609
27934W        W47468  10.014  12.365  13.662  0.3786  0.1669  0.2205
27935W        W47469  15.718   5.275  16.001  0.2839  0.3840  0.0695
27936W        W47470   2.466   6.443   2.687  0.1648 -0.0135 -0.2446
27937W        W47471  17.063  15.159   5.055  0.0340  0.1211  0.1872
27938W        W47472   7.288   3.537   1.597  0.0122 -0.3226  0.0758
27939W        W47473   4.631  17.445  13.733  0.0601 -0.2376 -0.0443
27940W        W47474   1.061   2.867   3.406  0.0518 -0.1941 -0.0448
27941W        W47475   5.891  11.134   5.068 -0.2742  0.1155  0.2083
27942W        W47476  16.127   9.405   2.427  0.4187  0.0578  0.0362
27943W        W47477   8.480  17.404  13.256 -0.1870 -0.2413  0.1903
27944W        W47478  15.341  12.971  15.223  0.0057  0.3421 -0.2669
27945W        W47479  17.670   9.208  15.544 -0.1092  0.1963 -0.0817
27946W        W47480   7.469  17.038  16.852  0.1806  0.0023 -0.0832
27947W        W47481   0.548  14.301  15.957 -0.1041 -0.0270  0.1174
27948W        W47482   5.521   7.411  13.269 -0.3491 -0.2982  0.0667
27949W        W47483   5.984  10.457   3.847 -0.3225  0.3445  0.2176
27950W        W47484   5.226   9.857  16.704 -0.0702  0.1671  0.2178
27951W        W47485   2.861  12.526  12.177 -0.0714  0.0598 -0.1247
27952W        W47486  13.179   0.034  16.666  0.1512  0.1908  0.0394
27953W        W47487   7.251  11.689   4.085  0.0039 -0.0128  0.3476
27954W        W47488  11.096   1.481   1.040 -0.0092  0.0743 -0.1617
27955W        W47489  14.999   3.627   2.996  0.1133 -0.2308  0.2311
27956W        W47490   3.036   2.627   5.604 -0.0422  0.1258 -0.2535
27957W        W47491   4.330   7.067  13.670 -0.1405  0.0079  0.1230
27958W        W47492  16.362  17.092   1.261  0.0304 -0.0358  0.1156
27959W        W47493   7.403   4.310   4.102 -0.0607  0.1432 -0.0239
27960W        W47494   9.238  16.643   1.482  0.1738 -0.0041 -0.0006
27961W        W47495  10.718   0.716  14.022 -0.1676 -0.1536  0.0140
27962W        W47496  14.732   4.517  14.089  0.2033  0.0562  0.0565
27963W        W47497  16.956   0.034   2.585 -0.3336  0.3762  0.1347
27964W        W47498   4.292  14.315  13.899  0.0703 -0.3953  0.0359
27965W        W47499  13.203   2.147  11.597 -0.1684  0.0272  0.0341
27966W        W47500   2.716   8.551  14.624  0.1777  0.3618  0.0332
27967W        W47501  12.816   2.611  14.928  0.2341 -0.1686 -0.0207
27968W        W47502   7.317  16.872   2.255  0.0278  0.0752  0.1878
27969W        W47503  11.568   4.143  13.756  0.2647  0.1276  0.2086
27970W        W47504   9.928   2.927  12.173 -0.1275  0.4539  0.0338
27971W        W47505  16.980   8.485   1.324 -0.0126  0.0006  0.2940
27972W        W47506   2.668  15.754  15.405 -0.0823 -0.1364  0.1556
27973W        W47507   4.735  14.815   4.867 -0.1897 -0.1595 -0.0552
27974W        W47508   6.683   9.348   0.792  0.0272  0.0814 -0.1449
27975W        W47509  17.326  12.784  16.319 -0.0084  0.0552  0.2123
27976W        W47510  10.385  16.396  16.371 -0.0300 -0.1151  0.1011
27977W        W47511  15.766  17.391  15.395  0.3057 -0.2400 -0.0374
27978W        W47512   7.143   1.190   1.420  0.2808  0.0241 -0.0328
27979W        W47513  15.642  15.771   2.458  0.0549 -0.1317  0.0388
27980W        W47514  13.706   0.030  16.800  0.0203  0.2508  0.0844
27981W        W47515  14.627  15.897   1.510 -0.0177  0.0660  0.0342
27982W        W47516  13.405   6.023  17.066  0.2267  0.0132 -0.1012
27983W        W47517  15.468   1.062  13.887 -0.2414  0.1777 -0.1762
27984W        W47518   4.603   4.606  16.648 -0.3582 -0.1834  0.1800
27985W        W47519   6.051   5.543  12.228  0.1229 -0.1355 -0.1642
27986W        W47520   2.799  17.397  13.873  0.0278 -0.3913 -0.1482
27987W        W47521   9.219   2.406  12.525  0.0879  0.0320 -0.0005
27988W        W47522  10.115   1.303   0.007  0.1616  0.2157  0.0436
27989W        W47523  16.511  14.280   4.632 -0.1281 -0.0108  0.1459
27990W        W47524   0.813  10.551   0.258 -0.1426 -0.1232 -0.0908
27991W        W47525  11.741  15.692  12.134 -0.1257  0.0852  0.0689
27992W        W47526   0.510   7.020   0.233  0.3321 -0.1771 -0.1987
27993W        W47527   8.330  14.724  13.186  0.1054 -0.0547  0.0263
27994W        W47528  10.383  10.439   4.835 -0.1196 -0.2219  0.1709
27995W        W47529   4.007  17.528   2.636 -0.2659 -0.2982  0.2684
27996W        W47530  13.246   4.616   2.949 -0.1339  0.1055  0.1750
27997W        W47531  15.318   2.739  15.363 -0.1190 -0.2122 -0.1703
27998W        W47532   5.571  12.533  16.805  0.1638 -0.2494  0.0098
27999W        W47533  11.218   6.601   0.120 -0.1365 -0.1310 -0.0205
28000W        W47534  14.937  16.417   4.893  0.4829  0.1126 -0.1127
28001W        W47535   1.539   0.266   4.845 -0.0852 -0.3591  0.1869
28002W        W47536  15.405  10.881   2.807 -0.1441 -0.2273 -0.0065
28003W        W47537   4.847   8.372  13.160  0.2971  0.0200 -0.1345
28004W        W47538  16.283   8.478   1.920  0.1103 -0.0106  0.0865
28005W        W47539   5.803   1.667   3.535 -0.1626  0.0132 -0.0457
28006W        W47540   1.014  14.950  13.737 -0.1356  0.0847 -0.0237
28007W        W47541   5.367   8.656  16.054  0.1726 -0.2388 -0.0851
28008W        W47542   2.829   5.365   1.061 -0.3758 -0.1202  0.1258
28009W        W47543   5.977  17.168   3.533 -0.2080 -0.1000 -0.1473
28010W        W47544   6.275  13.695  10.804  0.0629  0.3669 -0.2913
28011W        W47545  17.330  14.991  13.213 -0.1309  0.1233 -0.0234
28012W        W47546  14.885   9.162   1.884  0.1686 -0.1517  0.4105
28013W        W47547  14.375   6.374  16.727 -0.1801 -0.2921  0.3468
28014W        W47548   7.980  11.389  16.948 -0.2912  0.3201 -0.0413
28015W        W47549   0.382  12.372   3.270 -0.0276  0.0784 -0.0637
28016W        W47550  10.650   4.865   3.082 -0.2787 -0.4941  0.1931
28017W        W47551   8.258   6.143   1.529 -0.1390  0.1379 -0.1196
28018W        W47552   7.715  12.673   4.250  0.2158 -0.1037  0.2090
28019W        W47553  10.489   2.098   3.527 -0.0748 -0.0664  0.0019
28020W        W47554  14.088   0.941   0.465 -0.4628 -0.0387  0.1400
28021W        W47555  14.321   3.573  14.778  0.0201  0.1761  0.0232
28022W        W47556  12.110   7.453  16.648 -0.0218 -0.1404  0.2937
28023W        W47557   4.729   3.450   0.906  0.1285  0.0394 -0.2979
28024W        W47558   8.306   8.176   5.188 -0.1633 -0.0224 -0.0129
28025W        W47559   7.751   9.180   4.542  0.0256 -0.2305 -0.0990
28026W        W47560  15.653  15.493   5.371 -0.2883 -0.0244 -0.3617
28027W        W47561  16.455   5.485  13.548  0.1569 -0.1455  0.3125
28028W        W47562   1.925  16.175  16.521 -0.0589 -0.1186  0.1292
28029W        W47563  12.655   0.902  12.836 -0.0910 -0.2385  0.0988
28030W        W47564  12.664   5.689   1.751  0.1823 -0.1740 -0.1884
28031W        W47565  13.294  15.814   3.787 -0.1131  0.2063  0.2981
28032W        W47566   7.639   4.694   4.784 -0.4014  0.1003  0.0591
28033W        W47567   3.827   4.667   0.673  0.0532  0.0424  0.0813
28034W        W47568   9.937  11.278   1.798 -0.1237 -0.1958 -0.1077
28035W        W47569   1.792  15.865  12.462 -0.0612 -0.0690  0.2319
28036W        W47570   3.751   9.310   1.405  0.3259  0.0603 -0.1861
28037W        W47571   9.919   3.067   3.412  0.0369 -0.0059  0.1359
28038W        W47572   0.138   7.275  12.846  0.2659  0.4151 -0.0837
28039W        W47573  12.052  14.039  13.902 -0.0680  0.3993  0.0090
28040W        W47574   2.441   7.673   0.190 -0.0645 -0.0076 -0.0394
28041W        W47575  11.715  16.113   0.066  0.0251 -0.1763 -0.1896
28042W        W47576   6.625  12.092   0.312 -0.0210 -0.0989  0.2641
28043W        W47577   0.420   3.047  16.153 -0.2593 -0.0301 -0.3432
28044W        W47578  11.419   7.363   4.335 -0.2728 -0.0452 -0.0893
28045W        W47579   8.410  16.004   0.281  0.2135 -0.0984 -0.0732
28046W        W47580   1.540   9.559   2.962 -0.3539  0.1071 -0.0841
28047W        W47581   8.463  13.761   0.574 -0.2992 -0.3425 -0.0721
28048W        W47582   5.931   8.663  14.980  0.0127 -0.1342 -0.0494
28049W        W47583  14.598   2.759   1.608 -0.0555  0.1379  0.3639
28050W        W47584   3.159   0.417   4.888  0.4412 -0.4657  0.1412
28051W        W47585   6.000  16.735  13.749 -0.0319 -0.2959 -0.0761
28052W        W47586   9.886   0.993  15.251  0.0010 -0.2876 -0.0551
28053W        W47587  16.265   2.990   3.126  0.0615 -0.1298 -0.0132
28054W        W47588   7.643  16.342   2.957 -0.0859  0.0776  0.1270
28055W        W47589   3.604  16.850   4.864  0.1428  0.0368 -0.2909
28056W        W47590  15.669  12.401   0.756 -0.0282 -0.2251  0.1116
28057W        W47591  12.990   4.074  15.041  0.0834  0.3046  0.0971
28058W        W47592  14.501  14.010  14.094  0.2196  0.0479 -0.3306
28059W        W47593   8.433   9.315  12.937  0.2630 -0.3074 -0.0187
28060W        W47594   6.374  16.298   4.507  0.1264 -0.2336  0.0144
28061W        W47595   1.955   3.117   0.485 -0.0853 -0.3424 -0.2794
28062W        W47596   3.272  14.726   4.429 -0.0559  0.0765  0.2612
28063W        W47597   0.875  16.740   0.628 -0.0600 -0.2024 -0.0963
28064W        W47598   5.769   2.431   0.135 -0.0218 -0.0878  0.1216
28065W        W47599  11.326   2.772   4.533  0.0511  0.1702  0.0061
28066W        W47600   3.236  13.539  16.906 -0.0682 -0.1156  0.1890
28067W        W47601   9.428  10.607  16.039 -0.2652 -0.0662  0.1651
28068W        W47602  17.065   3.330  13.861 -0.0642 -0.2515  0.0566
28069W        W47603   7.751  10.047  16.320  0.1756  0.2630 -0.2512
28070W        W47604   7.980   3.018  16.512  0.0461  0.1479 -0.2235
28071W        W47605   7.321  12.173  12.051 -0.0477 -0.1034 -0.2661
28072W        W47606   0.147   4.394  13.253  0.1400 -0.3073  0.1508
28073W        W47607   9.478   1.540   3.497  0.0948  0.2893 -0.2498
28074W        W47608  12.005   3.691   2.543  0.0506  0.3230  0.0916
28075W        W47609   5.431  13.093   1.878 -0.0780  0.2677 -0.3225
28076W        W47610  11.546   4.368  12.374  0.0031 -0.5684 -0.0520
28077W        W47611  15.296   6.459   4.062 -0.0097  0.1040 -0.0586
28078W        W47612   5.574  11.275   2.119  0.2022  0.0770  0.1420
28079W        W47613   5.402   5.155  15.323 -0.1222  0.0911  0.1231
28080W        W47614  15.400  15.157   1.725  0.0739 -0.0920 -0.0250
28081W        W47615   6.538  13.250   0.622 -0.1756 -0.2285 -0.3576
28082W        W47616  10.130   6.765   3.091 -0.1671 -0.0684 -0.3324
28083W        W47617  15.252   0.508   2.773  0.0583 -0.1811 -0.0765
28084W        W47618  11.285   7.449   0.200 -0.1507 -0.0924  0.0440
28085W        W47619   5.298  10.101   0.784 -0.1383 -0.2492  0.1539
28086W        W47620  13.141   9.252  15.739 -0.1001  0.0031  0.0315
28087W        W47621   2.100   9.718   2.271 -0.0117 -0.2106  0.2505
28088W        W47622  15.530  14.738   4.369 -0.0861  0.6063  0.2207
28089W        W47623  11.779  10.938   1.172  0.0849 -0.0511  0.2815
28090W        W47624  16.695   4.829  14.258 -0.3029  0.0513  0.0694
28091W        W47625   2.222   2.671   2.064 -0.2630  0.2140  0.3611
28092W        W47626   4.978  13.680  16.299  0.0881 -0.3056  0.1527
28093W        W47627   0.984  11.180   1.127 -0.0231 -0.0413  0.1764
28094W        W47628   7.323   4.592  12.760 -0.3636  0.2084 -0.3882
28095W        W47629   3.225  16.686  14.782  0.0004 -0.2747 -0.1541
28096W        W47630   6.019  12.006  12.808 -0.2056  0.1182 -0.4682
28097W        W47631   9.963   8.113  12.155 -0.0089 -0.0083  0.1836
28098W        W47632   8.277   6.287   0.050 -0.0452 -0.2426 -0.0516
28099W        W47633  14.039  16.952   3.484  0.1636 -0.2669  0.3295
28100W        W47634   2.777   7.016  12.095 -0.1539  0.2722  0.1754
28101W        W47635  13.890   0.717  12.646  0.0374  0.4082 -0.1355
28102W        W47636   0.486  14.176  12.760 -0.3311 -0.0091 -0.4337
28103W        W47637   1.232   5.579   0.233  0.1048 -0.0652  0.0601
28104W        W47638   9.301  11.751  13.543 -0.3803  0.0337  0.0301
28105W        W47639   6.869   3.963   0.896 -0.4758 -0.0561 -0.0786
28106W        W47640  14.856   4.390  15.446 -0.0055  0.1748  0.0486
28107W        W47641   7.600  16.754   2.646 -0.1672 -0.1139 -0.0149
28108W        W47642   6.303   8.153  12.696 -0.1966 -0.3303  0.1172
28109W        W47643  10.665  17.052   5.268  0.2259 -0.5442  0.0337
28110W        W47644   8.406  11.106  12.387 -0.3749  0.2679  0.2932
28111W        W47645   7.893   3.404  12.650 -0.4606 -0.0031 -0.0305
28112W        W47646  16.940   4.565  15.468 -0.1652 -0.0940 -0.0125
28113W        W47647  11.608  11.395  14.342  0.4488 -0.1363  0.0106
28114W        W47648   8.990   9.238  16.974  0.1075 -0.0403  0.0944
28115W        W47649  15.893   7.537   5.917 -0.0405 -0.1529 -0.1463
28116W        W47650  10.685  16.846   5.728  0.2587 -0.0906 -0.0335
28117W        W47651  13.915   9.167  16.819  0.1309  0.1706 -0.2287
28118W        W47652   7.199  14.543   2.280  0.0535 -0.4226  0.0152
28119W        W47653   4.186  11.801   4.614 -0.0362  0.2388 -0.1204
28120W        W47654   2.126  13.698   3.300 -0.1476 -0.3791 -0.0803
28121W        W47655  13.246  12.122  14.631 -0.1825 -0.2009 -0.0765
28122W        W47656  17.476   6.701  16.068  0.1109 -0.0681 -0.1261
28123W        W47657   8.377   2.107   1.254 -0.1287 -0.0604 -0.0855
28124W        W47658   9.542   2.098   2.220 -0.0084 -0.4233  0.1599
28125W        W47659   2.147  10.591  14.439 -0.2302 -0.1169  0.1822
28126W        W47660  16.241   3.498  15.952  0.0621 -0.0496  0.0156
28127W        W47661   9.954  13.312  16.340 -0.1192 -0.3792 -0.0958
28128W        W47662  16.802   1.719  15.073  0.0133 -0.0520  0.0797
28129W        W47663  12.752  10.116   3.791  0.0792  0.1300  0.0155
28130W        W47664  16.340   0.432   5.138 -0.0097 -0.0292 -0.3836
28131W        W47665   7.278  17.639   2.884  0.1645 -0.3221  0.2031
28132W        W47666   7.369   3.570  12.460 -0.2143 -0.3783 -0.2109
28133W        W47667  14.150  12.152  15.439 -0.1106  0.0577  0.3502
28134W        W47668   0.292   2.133   5.032 -0.0389 -0.1543 -0.0419
28135W        W47669   3.765   5.510  16.822 -0.0035 -0.2775  0.1090
28136W        W47670  14.260  10.192  13.357 -0.1348  0.2267  0.3282
28137W        W47671   8.795  11.765  14.554 -0.1394 -0.2457 -0.1362
28138W        W47672   9.312   3.715  15.745  0.1090 -0.1420  0.0807
28139W        W47673  16.332  13.290  13.496 -0.2668 -0.0197  0.0002
28140W        W47674   4.181   3.728   2.448  0.1890 -0.1038 -0.5766
28141W        W47675   4.677   0.255  12.894  0.0059 -0.0417 -0.0472
28142W        W47676   0.697  13.656   5.003  0.0727 -0.2744  0.1177
28143W        W47677  17.545   9.351   4.026  0.0083  0.1359 -0.0255
28144W        W47678   4.153   8.082   0.235  0.3614  0.2257 -0.1768
28145W        W47679   1.767   9.861   0.829  0.2603 -0.2533 -0.1570
28146W        W47680   3.267  10.248  13.218  0.0253 -0.0165 -0.2408
28147W        W47681   7.382  14.545  13.632  0.2444 -0.1781 -0.0179
28148W        W47682   7.670   1.701   3.691  0.1165  0.1742  0.1273
28149W        W47683  17.313  16.496   4.351 -0.0586  0.4422  0.0428
28150W        W47684  16.400  16.241   4.299 -0.0294  0.0684  0.0390
28151W        W47685   5.669  14.639   0.036 -0.2319  0.4590 -0.1273
28152W        W47686  15.482   2.212   3.236  0.1176  0.0781 -0.2186
28153W        W47687   5.365   6.158  12.326  0.0107  0.1496 -0.3208
28154W        W47688  11.960  13.272   4.740  0.4209 -0.1498  0.0841
28155W        W47689  14.040   1.120   2.916 -0.3788  0.0080  0.0366
28156W        W47690   6.959   5.211   3.264  0.0725 -0.0585  0.0310
28157W        W47691   3.896  12.176  12.105 -0.0155  0.0860  0.2456
28158W        W47692   3.236  12.954  13.005  0.2969 -0.1455 -0.1001
28159W        W47693   1.850  11.216   3.990 -0.1044 -0.0687  0.1439
28160W        W47694  15.838   2.836  12.711  0.1571 -0.3639 -0.1110
28161W        W47695   2.043   6.388   2.404 -0.0842 -0.0175  0.1979
28162W        W47696   4.018  15.378   2.293 -0.2622  0.0657  0.0845
28163W        W47697   1.284   3.432  15.313  0.1441 -0.0896 -0.0476
28164W        W47698   7.389   8.447   2.362 -0.2170 -0.1924  0.1598
28165W        W47699  11.481  15.025  13.453 -0.0031  0.0093  0.0542
28166W        W47700  12.780  14.819  13.763  0.1363 -0.1030  0.0900
28167W        W47701  12.385  10.399  13.287 -0.2203  0.1457  0.0922
28168W        W47702  12.427   3.367  12.060  0.1988 -0.0229 -0.0914
28169W        W47703   9.520   9.166   4.665  0.1234 -0.0495  0.3427
28170W        W47704  11.450   3.002  13.469 -0.1200 -0.3270 -0.1480
28171W        W47705  11.107   0.700   4.450 -0.0138 -0.1977  0.3086
28172W        W47706  15.684  13.637   1.258  0.2134  0.2850 -0.1781
28173W        W47707  16.410   2.103   0.020  0.0403  0.0598 -0.0607
28174W        W47708   4.563   0.709  14.614 -0.1053 -0.0660  0.4230
28175W        W47709   4.813   3.861  16.191  0.2276 -0.1698  0.2280
28176W        W47710  11.375  13.056   4.287  0.3110 -0.2086 -0.0590
28177W        W47711   7.825   3.518   3.907  0.2472  0.0837  0.0243
28178W        W47712   2.891  14.479   0.364 -0.1038  0.0257 -0.1862
28179W        W47713  12.086  17.024  12.502  0.2354  0.0714  0.0028
28180W        W47714  16.465  13.765   1.129  0.3297  0.0739  0.0683
28181W        W47715   5.515   2.828   2.605  0.1088 -0.1264 -0.1995
28182W        W47716   1.318  12.780  12.214  0.0706  0.0580 -0.1379
28183W        W47717   1.203   5.291  16.658 -0.0194  0.1402 -0.1802
28184W        W47718   8.417   5.513   4.149  0.0325  0.0362 -0.0383
28185W        W47719   4.582   8.633  12.806 -0.0573 -0.1159 -0.0923
28186W        W47720  13.042  16.203  15.320 -0.2871 -0.5067 -0.3550
28187W        W47721  10.912   7.772  16.651 -0.1260 -0.0268  0.1406
28188W        W47722   6.172   4.266  16.539 -0.2186  0.1590  0.0610
28189W        W47723   0.436   7.074  13.674  0.0265  0.1781  0.2704
28190W        W47724   3.362   0.200  12.148  0.0399  0.0474  0.0858
28191W        W47725  11.517  12.752  15.807 -0.0536  0.1297 -0.4804
28192W        W47726   5.925   4.678  12.547  0.0902 -0.0832 -0.1664
28193W        W47727  15.195  10.736   0.151 -0.0103  0.0779 -0.0149
28194W        W47728  14.812   3.566   1.439 -0.0284 -0.0861 -0.0726
28195W        W47729  17.458  13.107  12.542 -0.0471  0.2596  0.1179
28196W        W47730   4.712   7.870  13.223 -0.1210  0.0898  0.0523
28197W        W47731   0.213  12.663  16.897  0.2772 -0.2835 -0.1630
28198W        W47732  10.072   7.490  16.876 -0.0884  0.3114  0.1672
28199W        W47733   1.043   9.392   0.893  0.0039 -0.0093  0.3663
28200W        W47734  10.260  14.194   2.109  0.1053  0.0817  0.3829
28201W        W47735   2.427   2.888  12.755 -0.1460 -0.4071  0.2331
28202W        W47736   4.862  16.700   0.815  0.1198  0.0892 -0.1342
28203W        W47737   9.500  14.479  14.932 -0.0785 -0.3679 -0.2492
28204W        W47738   8.336  16.214  13.110  0.2416 -0.2375  0.1516
28205W        W47739   2.372   0.442  15.148 -0.2651 -0.1462 -0.0222
28206W        W47740  12.507  11.430   2.938  0.1431  0.1013  0.2581
28207W        W47741  14.892   6.700   3.224  0.2300  0.0032  0.1353
28208W        W47742   9.858   6.117  12.724  0.0713  0.2631 -0.4485
28209W        W47743  13.852   0.267   0.346  0.3702 -0.0518 -0.1591
28210W        W47744  11.923   2.680   0.622  0.0583  0.1629 -0.0349
28211W        W47745   5.649   0.000  14.262 -0.1593  0.2839 -0.1065
28212W        W47746   4.018   9.777   0.767  0.1228  0.2734 -0.1868
28213W        W47747   3.579  12.164   0.635 -0.0258  0.0220 -0.0517
28214W        W47748   3.991  12.422  13.093  0.0291 -0.0035 -0.0460
28215W        W47749   7.514   9.893  13.570  0.3145 -0.1222 -0.0177
28216W        W47750   0.351  16.160  17.051  0.1864  0.0226 -0.3320
28217W        W47751  12.986   4.800   2.574 -0.0526 -0.0052  0.2384
28218W        W47752   1.476   6.303   1.690 -0.1019 -0.1640 -0.1196
28219W        W47753   2.910   2.233  16.368  0.1627 -0.3130  0.2621
28220W        W47754   3.426   1.536   4.127 -0.0501 -0.1744  0.1001
28221W        W47755  16.507   2.113  15.264  0.0703  0.2433 -0.1818
28222W        W47756   3.665  14.393  14.119  0.1029 -0.1753 -0.0190
28223W        W47757   0.997   5.371  12.599 -0.0751 -0.0384 -0.0353
28224W        W47758   3.461  11.805   2.758 -0.0851 -0.3781  0.1399
28225W        W47759   9.069   2.751   1.401 -0.0453  0.1700 -0.0430
28226W        W47760  16.279   8.027  12.773 -0.0019 -0.2712  0.1813
28227W        W47761  13.211   4.745  12.425 -0.0867  0.0817 -0.0830
28228W        W47762  13.352   3.901  13.023 -0.2558  0.2318 -0.1388
28229W        W47763  13.183  11.458  13.183  0.3750  0.0431 -0.0472
28230W        W47764  11.029   4.767  15.290 -0.1607 -0.0118 -0.1114
28231W        W47765  16.782   3.416  15.829  0.1246  0.2045  0.1625
28232W        W47766   7.648   9.542  15.014  0.2038 -0.0268 -0.0861
28233W        W47767  10.279   7.283  13.706  0.0523 -0.0120  0.1204
28234W        W47768  12.433   2.714   0.753  0.0215  0.1102  0.0884
28235W        W47769  16.445   5.059   2.915 -0.0868  0.0299  0.0235
28236W        W47770   6.633   8.162   4.232  0.2819 -0.0879 -0.1618
28237W        W47771  14.483  15.409   5.504 -0.4132 -0.2108  0.1181
28238W        W47772   7.607   6.870  12.154  0.1651  0.0977  0.1562
28239W        W47773  10.505  13.925   2.555 -0.0805  0.1506 -0.0501
28240W        W47774  15.940  16.150   2.250  0.0919  0.1236  0.1880
28241W        W47775  10.771  17.204  15.961 -0.0319  0.2486 -0.0702
28242W        W47776   7.287  11.836  14.679  0.0423  0.1687  0.0986
28243W        W47777  12.132  16.874   0.706  0.0648 -0.1184  0.1019
28244W        W47778  11.950   4.688   2.818 -0.1705  0.0573  0.1875
28245W        W47779   3.333  13.670  14.762 -0.0541  0.4296  0.0821
28246W        W47780   4.462   5.800   1.779  0.1609 -0.0740  0.4583
28247W        W47781   2.088   3.681   2.311 -0.2451 -0.1117 -0.1001
28248W        W47782   7.874   2.056   4.934 -0.1667 -0.0466 -0.1503
28249W        W47783  14.148  13.003  15.734 -0.3359  0.0295 -0.1672
28250W        W47784  14.280  15.625  15.108  0.0100  0.1107 -0.1035
28251W        W47785   4.297   5.498  16.963 -0.3116 -0.3442  0.0495
28252W        W47786  12.232  13.737  12.013  0.4358  0.1961 -0.1319
28253W        W47787   3.579  17.546   0.884 -0.0427 -0.1107  0.0204
28254W        W47788  14.344   4.270   3.148 -0.0035 -0.0396 -0.1953
28255W        W47789   5.371   2.696   0.410  0.1867 -0.3300  0.2562
28256W        W47790  11.637  10.617   3.431 -0.0450  0.2268 -0.2546
28257W        W47791  13.652   8.955   0.530 -0.2430 -0.0545  0.2370
28258W        W47792  17.401  16.571   4.965  0.0717  0.1719 -0.1735
28259W        W47793   8.515   8.190  14.897 -0.0326 -0.1149  0.2450
28260W        W47794  12.646   3.542   2.761  0.1693  0.1817 -0.3223
28261W        W47795   0.571   0.832  13.744  0.1268  0.4477  0.1752
28262W        W47796   2.852   7.759  15.663 -0.0505  0.1698  0.0262
28263W        W47797   0.360  10.998   2.437 -0.0008 -0.0416  0.1490
28264W        W47798  11.410  13.159   0.996 -0.0064 -0.3261 -0.1200
28265W        W47799  15.430  14.668   1.670 -0.1448 -0.1005  0.2988
28266W        W47800  15.486   6.731  15.516  0.1817 -0.0826  0.1558
28267W        W47801  16.036  13.481   4.192  0.0689  0.0299  0.1644
28268W        W47802   1.733  14.187   1.362  0.0130 -0.0797 -0.1130
28269W        W47803  15.729   0.779   1.862 -0.2625  0.3356 -0.1639
28270W        W47804  15.081  13.415   4.829  0.0106  0.0392  0.3287
28271W        W47805   7.972  13.206   5.667  0.0473  0.0764 -0.0043
28272W        W47806  16.655  10.067   4.829 -0.0371  0.1171 -0.2815
28273W        W47807  16.340  16.056  14.875  0.3802 -0.0667 -0.0629
28274W        W47808   4.488  14.177  15.766 -0.2177  0.1657 -0.1052
28275W        W47809  12.229   0.139   3.381 -0.1107 -0.0685  0.2254
28276W        W47810   6.613  15.314  16.186  0.1054 -0.0249  0.1148
28277W        W47811   5.355   6.106   4.440  0.4721 -0.0238  0.2446
28278W        W47812  11.835  15.632   3.640 -0.2106  0.1180 -0.1813
28279W        W47813  16.594  11.479  13.901  0.3422 -0.2157  0.3255
28280W        W47814   8.078   8.011  14.044  0.1295  0.0284  0.0769
28281W        W47815  11.427   6.700   1.942  0.0327  0.2918 -0.1740
28282W        W47816  11.473   3.770  14.831 -0.1360  0.2959 -0.0080
28283W        W47817  12.251   0.480  14.680  0.0517 -0.2202 -0.1533
28284W        W47818  14.586   1.788   2.787  0.2335  0.1719  0.2699
28285W        W47819   0.065   0.550   0.968 -0.3642 -0.0870  0.0656
28286W        W47820  16.699  14.437  14.873 -0.2215  0.1099  0.1223
28287W        W47821  13.820   2.746  14.728  0.2407 -0.0794 -0.2573
28288W        W47822  14.407  16.420   4.785 -0.1800  0.1076 -0.2108
28289W        W47823  16.840   6.830  13.936  0.0498  0.0917 -0.1954
28290W        W47824   3.430  16.005   0.688  0.2703 -0.1336 -0.1213
28291W        W47825  10.312  10.938  13.666  0.1590 -0.1041 -0.1834
28292W        W47826  15.885  13.788  16.036 -0.1547  0.1213  0.4064
28293W        W47827   5.074  10.479   5.024  0.1382  0.2205 -0.1547
28294W        W47828  13.387  10.827   4.335 -0.1263  0.1543 -0.0466
28295W        W47829   6.614   0.714   3.551  0.1763 -0.1779  0.2706
28296W        W47830  15.919  14.768   5.208 -0.2338 -0.1765  0.2250
28297W        W47831  16.621  13.549  14.043  0.0580  0.2880 -0.0726
28298W        W47832   8.744   9.974   4.317  0.1759  0.3222 -0.1404
28299W        W47833  17.597  12.456  16.566 -0.1217 -0.2999 -0.0617
28300W        W47834   6.353   9.981   3.056 -0.1552 -0.1114 -0.3494
28301W        W47835   2.874   4.802   1.887 -0.1773 -0.0171 -0.0170
28302W        W47836   5.656  13.101   3.483 -0.2546 -0.0504  0.2622
28303W        W47837  16.353   6.502  14.470  0.0068  0.1146  0.1382
28304W        W47838  12.907   4.123  13.725 -0.0241  0.1093 -0.1952
28305W        W47839   7.374  16.789  11.517  0.0559 -0.3613  0.3339
28306W        W47840  15.631   9.754   3.821  0.1094 -0.5688  0.3833
28307W        W47841  10.285  11.456   2.123  0.2561 -0.1680 -0.1930
28308W        W47842   9.521   9.305  15.902 -0.0882  0.0179  0.1466
28309W        W47843  11.289  14.657   3.204  0.2244 -0.1272  0.1267
28310W        W47844   4.234   0.131  15.695  0.0643 -0.0691 -0.2127
28311W        W47845   0.693  16.375  14.116  0.2687 -0.1042 -0.0160
28312W        W47846  11.814   9.334  13.471  0.1709 -0.0903  0.3320
28313W        W47847   4.510   8.918  15.291 -0.1119 -0.2430  0.4642
28314W        W47848  12.192   0.025  16.283 -0.1090 -0.0862  0.0478
28315W        W47849   8.832  12.545  11.337 -0.2067  0.1302 -0.1988
28316W        W47850   6.621  12.932  16.339  0.1612 -0.0104 -0.0946
28317W        W47851  16.580   8.273   1.571 -0.1496  0.3079  0.0917
28318W        W47852  16.673  10.453  12.437  0.1437 -0.0228  0.1336
28319W        W47853  14.039  17.358  16.834  0.2614  0.0214  0.0055
28320W        W47854  10.963  10.880  12.458  0.0217 -0.0790 -0.0902
28321W        W47855   8.170  15.518   0.360 -0.3842  0.0812 -0.1217
28322W        W47856  16.023   3.113   0.435  0.0347 -0.2184 -0.0238
28323W        W47857   9.212  16.126   2.231  0.1723  0.2115  0.2604
28324W        W47858   0.342  10.608  13.390  0.2510  0.1991  0.3230
28325W        W47859   9.997  11.339  15.106  0.1015 -0.0321  0.0252
28326W        W47860   9.906   5.165   1.986 -0.1730  0.4791 -0.1921
28327W        W47861   9.984  10.234   1.826 -0.1177  0.1071  0.1428
28328W        W47862  11.902   8.415  16.989  0.2986  0.2514  0.1504
28329W        W47863   9.589   2.402   4.515  0.1713  0.0860  0.1653
28330W        W47864   5.700  16.360  12.153  0.1392 -0.1759 -0.0678
28331W        W47865  14.633   0.667   1.421 -0.1761 -0.0034  0.1381
28332W        W47866  16.985   9.694  13.025  0.2135 -0.1977  0.1200
28333W        W47867  13.661   8.954   1.211  0.0838 -0.1766  0.1332
28334W        W47868   1.867  16.845   1.436  0.2554 -0.0384  0.0575
28335W        W47869  10.673   9.951  14.821  0.1195 -0.1034 -0.0676
28336W        W47870   9.764  10.182  13.089  0.0126  0.1405  0.0039
28337W        W47871   9.649   2.822  13.409 -0.0076  0.0409  0.1124
28338W        W47872  14.971   3.736   1.910  0.0955 -0.0651  0.3797
28339W        W47873  15.494  10.929   1.895 -0.0124 -0.0977 -0.2526
28340W        W47874   7.442  17.356  13.056 -0.0232 -0.0465 -0.1161
28341W        W47875   7.846   4.046   4.017  0.1413 -0.0101  0.4114
28342W        W47876  17.457  13.048   0.697  0.1096  0.1859  0.2573
28343W        W47877   9.247   1.144   2.014 -0.0145 -0.3149  0.0526
28344W        W47878   2.264   7.920  16.876  0.0675 -0.4025 -0.4161
28345W        W47879  16.618   9.064   5.064 -0.1270 -0.0001  0.0420
28346W        W47880  14.322  12.776   2.458 -0.1170  0.0689 -0.0619
28347W        W47881   2.534  16.610  15.404  0.3328  0.1931  0.1259
28348W        W47882  14.978  14.033  14.488  0.0441  0.0950  0.0325
28349W        W47883   0.657   3.564  15.201  0.2719 -0.0291 -0.1342
28350W        W47884  10.628   4.993  12.877 -0.0299 -0.0780  0.3683
28351W        W47885  16.853  15.305   1.438  0.2321 -0.1187  0.0747
28352W        W47886   7.248   0.031  13.369 -0.0406  0.1650 -0.0308
28353W        W47887  15.668  13.129  12.221 -0.1448 -0.1188 -0.0621
28354W        W47888   8.739   7.598   1.804 -0.1249 -0.0984  0.2749
28355W        W47889   5.306  16.524  12.438 -0.0736 -0.4558 -0.0203
28356W        W47890  17.199  11.281   1.174 -0.6103 -0.0478 -0.1792
28357W        W47891  11.299  15.940  16.983 -0.0424  0.0683 -0.2401
28358W        W47892   6.010  16.475   4.175  0.1733  0.0582 -0.0780
28359W        W47893  15.036   9.654  15.408  0.1513  0.0305  0.1629
28360W        W47894   1.022   2.430  13.939  0.0471  0.1683 -0.0242
28361W        W47895   8.115   7.467   1.197 -0.3222  0.1296  0.0352
28362W        W47896   8.249  17.063   4.691  0.2493  0.1185  0.1736
28363W        W47897  11.511  15.564  16.064  0.1003 -0.0012 -0.1741
28364W        W47898  13.842   8.606  11.820  0.0896  0.0483  0.1323
28365W        W47899  12.281   0.905  12.427 -0.4645  0.1604 -0.0571
28366W        W47900   5.861   7.549   2.503  0.4021 -0.4331 -0.1933
28367W        W47901  10.361   2.184   4.067 -0.2739  0.6239 -0.1690
28368W        W47902   3.837  11.496  14.090 -0.0797  0.0713  0.0351
28369W        W47903  16.545   5.542   2.898 -0.0353 -0.1631 -0.1446
28370W        W47904   5.371   9.355  13.461 -0.1110  0.1612 -0.3731
28371W        W47905   8.572   3.620   0.550  0.4513 -0.1408 -0.1963
28372W        W47906   6.315   4.553   2.544  0.1248  0.1928 -0.2834
28373W        W47907  13.969   5.087   2.860 -0.0138  0.2529  0.0916
28374W        W47908   7.212   5.356  14.813  0.2958 -0.1211  0.1142
28375W        W47909  10.683   8.516   2.835 -0.0154  0.2892  0.1338
28376W        W47910   8.339  14.369   0.520 -0.0316 -0.1116 -0.1036
28377W        W47911  12.966   9.551  16.835 -0.0151  0.0386  0.0452
28378W        W47912   8.211  14.800   2.241  0.2305 -0.0437  0.1074
28379W        W47913  15.153   1.807  13.900  0.0383  0.5173  0.0061
28380W        W47914  10.888   3.921  15.507  0.0101 -0.3559  0.1321
28381W        W47915  17.649  11.626   0.110  0.0428  0.2881  0.1724
28382W        W47916  16.916   9.948   1.816  0.3163 -0.0147 -0.0257
28383W        W47917  14.413  14.933   0.949  0.1490 -0.1379 -0.1799
28384W        W47918   5.795   8.086  14.147  0.2129 -0.1427  0.0686
28385W        W47919  12.054  10.575  14.002 -0.1527  0.3851 -0.1879
28386W        W47920  16.845   8.330  15.016 -0.0907 -0.0557 -0.0300
28387W        W47921   7.202  14.509   1.743  0.0887 -0.2329  0.2338
28388W        W47922  10.009  13.318  14.658 -0.2378 -0.0613 -0.0152
28389W        W47923   4.522   2.553   4.945  0.1053  0.1938  0.0461
28390W        W47924   9.508  12.777   1.965 -0.1119 -0.1064 -0.1646
28391W        W47925  11.941  11.710  16.633 -0.1064 -0.1319  0.1215
28392W        W47926  15.357  11.986  15.263 -0.0508 -0.2183 -0.0073
28393W        W47927   3.101   4.896   2.744 -0.1789 -0.1337  0.0921
28394W        W47928   5.288   0.314  13.513 -0.1500 -0.0781 -0.0792
28395W        W47929   3.653   4.464  12.807 -0.0123  0.3295 -0.1289
28396W        W47930   5.452   5.539  16.432  0.1679  0.0149 -0.0940
28397W        W47931   7.653   7.751   4.898 -0.0829  0.1154  0.1225
28398W        W47932   9.007   8.159  12.141  0.1225  0.0262 -0.0900
28399W        W47933  12.389   0.089  15.080 -0.1415  0.1012 -0.1953
28400W        W47934  12.764   8.095   3.580  0.3036 -0.0947  0.0715
28401W        W47935   3.082  14.337  16.691 -0.1843  0.0121  0.2437
28402W        W47936  16.959   6.363  12.126 -0.4382 -0.0583  0.0349
28403W        W47937  13.631  17.052  13.667 -0.0836 -0.1094  0.2287
28404W        W47938  12.041  11.263  13.446 -0.1469  0.2711  0.2311
28405W        W47939  14.636   1.801  13.674  0.0982 -0.0822  0.0089
28406W        W47940  10.753   6.306   0.991 -0.2707 -0.2097  0.2472
28407W        W47941   8.414  10.911  13.571  0.1043 -0.1069 -0.1309
28408W        W47942   7.924   9.414   3.641  0.1964  0.1118 -0.0890
28409W        W47943   3.619  14.463  16.815  0.1365  0.0350  0.1516
28410W        W47944   1.588  10.303  11.843  0.0752  0.1379  0.0453
28411W        W47945   5.043  13.517   4.005 -0.0510 -0.1763 -0.3113
28412W        W47946  15.425   0.684  16.092  0.0301 -0.0702 -0.0935
28413W        W47947   9.778  13.091  15.151 -0.1783 -0.0487 -0.2379
28414W        W47948  14.748  13.824   4.707  0.0062 -0.0951 -0.0087
28415W        W47949   4.634   5.567  12.806 -0.1722 -0.1830  0.1039
28416W        W47950  15.766  15.442  13.923 -0.0010  0.0081 -0.2602
28417W        W47951   3.234  17.439   3.745 -0.1648  0.1284 -0.0812
28418W        W47952   6.951  14.840  15.101  0.0756  0.0373  0.1430
28419W        W47953   9.582  14.892   2.931 -0.1250 -0.0697 -0.0902
28420W        W47954  10.690  17.616   4.538 -0.0311 -0.3176  0.1150
28421W        W47955  12.805   1.790   0.966 -0.0410 -0.0465 -0.1904
28422W        W47956   8.675   8.358  13.675 -0.1064 -0.3055 -0.0647
28423W        W47957   5.248   8.619   0.798 -0.2268  0.0502 -0.2460
28424W        W47958   5.721  15.963  15.300  0.0868 -0.1980  0.1308
28425W        W47959  14.546   4.117  15.191  0.1036  0.1143  0.0942
28426W        W47960   9.340   8.123  15.090  0.0393  0.4062  0.1409
28427W        W47961  17.619  12.046   1.127 -0.1913 -0.1143  0.0775
28428W        W47962  16.602   5.644   0.665 -0.0735  0.0435 -0.0148
28429W        W47963   9.709  17.668  13.843  0.0765 -0.0241  0.2224
28430W        W47964   8.192  17.346  16.271  0.2127  0.1843  0.2343
28431W        W47965   7.002   3.729  12.789  0.0338 -0.0267  0.0827
28432W        W47966   4.445  16.543  16.554 -0.2448 -0.2246 -0.4074
28433W        W47967  10.510   5.626   2.484 -0.0888  0.1853  0.0940
28434W        W47968   2.023  16.988  14.273  0.1323  0.1606 -0.1168
28435W        W47969  11.253  12.029   0.047  0.1877 -0.1053  0.0893
28436W        W47970  14.760   0.184  12.730 -0.1160  0.1249 -0.0977
28437W        W47971  14.798  17.665   1.281 -0.2343 -0.1729  0.0677
28438W        W47972   1.598  12.023   3.651 -0.2724 -0.2758  0.0083
28439W        W47973  14.283  13.484   4.716  0.2880  0.0303 -0.0418
28440W        W47974  15.949  11.243  12.503 -0.0030 -0.5079 -0.1963
28441W        W47975   5.902   2.026   3.113 -0.1526 -0.2311  0.3104
28442W        W47976   1.724   5.156   4.466 -0.2849 -0.2346  0.2255
28443W        W47977   5.948  11.678  13.185  0.0266  0.0352  0.0741
28444W        W47978  15.622   7.746  15.276 -0.3726 -0.0592 -0.0759
28445W        W47979   6.872  15.631   4.499  0.1091 -0.0726  0.1604
28446W        W47980   9.296   9.182  16.553 -0.0832  0.1603 -0.1694
28447W        W47981   3.913   3.684  12.399  0.1266 -0.1472 -0.0564
28448W        W47982  11.333   6.512  15.443  0.1758 -0.6451 -0.1413
28449W        W47983  11.265  17.390   1.004  0.0035  0.4871 -0.0700
28450W        W47984  15.758   9.142   4.459 -0.1502  0.0227 -0.1136
28451W        W47985   0.129  13.905   0.287 -0.4306  0.0379 -0.1575
28452W        W47986  17.244  12.923   3.485 -0.0197 -0.0210  0.1393
28453W        W47987   2.086   6.630   0.930 -0.0575  0.2916  0.1949
28454W        W47988  15.249  15.968   1.434 -0.2755  0.3019  0.1168
28455W        W47989  13.344   1.906  16.798 -0.2039  0.3634  0.1743
28456W        W47990  15.907   6.617   1.784 -0.1588  0.1273 -0.1901
28457W        W47991  11.678   9.408   3.343  0.0632 -0.0993  0.2007
28458W        W47992   1.552  15.674   1.998 -0.0981  0.0273  0.1504
28459W        W47993   0.359   2.287   2.415  0.1763  0.0729  0.2688
28460W        W47994  16.867   0.037   2.077 -0.0407 -0.1283  0.1722
28461W        W47995  12.222  14.859  16.807 -0.0209 -0.2116  0.3032
28462W        W47996  16.419   4.705   1.141 -0.1989  0.1274 -0.1093
28463W        W47997  17.381   5.610   5.299  0.1435  0.0499 -0.0427
28464W        W47998   7.761  10.410  16.780 -0.2614  0.1983  0.2267
28465W        W47999  12.975  13.912   1.805  0.2762  0.0975 -0.2176
28466W        W48000  11.455   1.681  13.222 -0.0117  0.1185 -0.0820
28467W        W48001  11.984   0.360   2.984  0.0320  0.1050  0.2102
28468W        W48002  15.125   1.329   3.891  0.0286 -0.0509 -0.0598
28469W        W48003   5.400   0.415  14.963  0.0479  0.0094  0.0670
28470W        W48004   6.237  16.771   1.855 -0.2593  0.1136  0.0162
28471W        W48005   4.028  16.271  15.972  0.1889  0.0146  0.1736
28472W        W48006   4.019  17.279   1.673  0.0172 -0.0715  0.1711
28473W        W48007   0.735   8.436   3.817  0.1581 -0.0329  0.1422
28474W        W48008  10.631  17.649  12.312 -0.0790 -0.0766  0.0438
28475W        W48009  11.564   7.865  14.564 -0.2503  0.1805 -0.4011
28476W        W48010   9.234   1.010  11.687 -0.0740  0.2723  0.0120
28477W        W48011  16.796  14.493   3.685  0.1218 -0.3042  0.1286
28478W        W48012   1.068  11.028  12.764  0.1863  0.3970 -0.2650
28479W        W48013   8.191   7.439  16.130  0.1353  0.4458  0.0433
28480W        W48014   8.647  11.702   2.180  0.3597 -0.0482 -0.1444
28481W        W48015   3.103   8.376   4.781 -0.2520  0.2905 -0.0093
28482W        W48016  15.206   1.194   4.931 -0.3300  0.0716  0.1134
28483W        W48017  14.902  14.079   0.908  0.0631 -0.2226  0.2007
28484W        W48018  11.860  10.032   0.449  0.1391 -0.0481  0.4149
28485W        W48019   1.912  17.333   2.054  0.1521  0.1054  0.1147
28486W        W48020   8.122   2.831  13.598 -0.0233  0.1594 -0.1568
28487W        W48021  12.917   4.983  15.381 -0.1572  0.1284 -0.2983
28488W        W48022  11.361   3.032   4.085  0.0923 -0.0460  0.0343
28489W        W48023  13.213  15.304  15.217  0.3339  0.0062 -0.0337
28490ION     NA48024   5.501  10.757   2.009  0.2077  0.0281  0.2025
28491ION     NA48025   7.964  10.812  12.506 -0.2216  0.0318 -0.1227
28492ION     NA48026  16.497   4.535  14.650 -0.2612  0.0219 -0.1266
28493ION     NA48027  12.234   2.514  11.574  0.2200  0.1491  0.0971
28494ION     NA48028  10.610  11.827   2.152  0.1699  0.0882  0.1956
28495ION     NA48029   4.730  11.849  11.053 -0.0427 -0.0908 -0.2473
28496ION     NA48030   8.216   9.966   5.924 -0.0779  0.1601  0.0412
28497ION     NA48031   4.499  13.304  15.261  0.0406  0.1102  0.2663
28498ION     NA48032   2.535   3.788   6.208  0.2197  0.2657  0.1023
28499ION     NA48033   1.183  16.936   3.357 -0.1766 -0.0843 -0.0695
28500ION     NA48034   0.953   6.395  15.225 -0.0625 -0.2355  0.1614
28501ION     NA48035  16.480   2.119  12.998 -0.0786  0.1407 -0.1705
28502ION     NA48036   8.318   1.327   5.921 -0.1178 -0.3494 -0.2354
28503ION     NA48037  12.298   3.059   4.335 -0.0442  0.0186  0.1796
28504ION     NA48038  12.718   1.665   4.165 -0.2906  0.1200  0.2753
28505ION     NA48039  15.931   3.154   5.802 -0.1299  0.1879 -0.0628
28506ION     NA48040  12.644   4.622   4.606  0.2107  0.0526 -0.1212
28507ION     NA48041  10.350  15.309  11.668  0.1447  0.1107  0.2304
28508ION     NA48042   9.784   8.296   2.246  0.2149 -0.0309 -0.2898
28509ION     NA48043   5.846  16.804  11.239  0.0896  0.0276  0.0696
28510ION     NA48044   9.281  16.376   5.673 -0.0840 -0.0736 -0.3151
28511ION     NA48045   8.392  16.382   5.765  0.0404 -0.0611  0.0877
28512ION     NA48046  17.650  12.118   3.069 -0.1968  0.0026  0.1521
28513ION     NA48047  17.380   1.314  11.711  0.1817 -0.0900 -0.1671
28514ION     NA48048  12.812   1.194  11.630  0.0113 -0.0947  0.0384
28515ION     NA48049  14.053   1.451  11.609  0.0592  0.3021 -0.0105
28516ION     NA48050   3.894   9.202  12.213  0.0004  0.1924  0.2724
28517ION     NA48051   7.978  16.809  11.311 -0.0816  0.4037 -0.1392
28518ION     NA48052   6.704  14.487  11.098  0.2067 -0.1744  0.1792
28519ION     NA48053   7.083   9.220   5.665 -0.0731 -0.1552 -0.0081
28520ION     NA48054   3.133  17.439   5.811 -0.1489  0.1846 -0.1219
28521ION     NA48055  12.989  10.562  11.263 -0.1188 -0.0309  0.0496
28522ION     NA48056   7.405   3.014  11.439  0.0517 -0.0341  0.0857
28523ION     NA48057   5.402   3.489   5.927 -0.0107  0.1004  0.1008
28524ION     NA48058   4.187   9.615  11.352  0.1360 -0.2894 -0.1418
28525ION     NA48059   5.717  13.162  11.015  0.1186 -0.1537  0.1245
28526ION     NA48060  14.121   9.256  15.414 -0.0538 -0.2205 -0.3652
28527ION     NA48061  10.280  10.200  11.357 -0.0892 -0.1272  0.0555
28528ION     NA48062  14.302   6.223  11.361  0.2500  0.1163  0.1086
28529ION     NA48063   6.467   0.211   1.675 -0.0067  0.2118 -0.0304
28530ION     NA48064   5.455  16.826  14.803 -0.0795 -0.1640  0.1347
28531ION     NA48065  17.285  10.176   2.134  0.3655  0.4159  0.2347
28532ION     NA48066   7.051   0.330   5.905  0.0447  0.0172  0.1058
28533ION     NA48067  16.704  14.823   5.755 -0.2843 -0.4523 -0.0644
28534ION     NA48068  12.169   5.314  11.230  0.4386  0.0328  0.0511
28535ION     NA48069   4.508   0.630   5.823  0.2518 -0.1029  0.0760
28536ION     NA48070   2.570   1.351  11.476  0.0870 -0.0859  0.2699
28537ION     NA48071  15.937  10.323   5.687 -0.1167 -0.1277  0.4955
28538ION     NA48072   9.766   1.285   5.863 -0.0730  0.3007 -0.0402
28539ION     NA48073  14.126   6.814   5.815 -0.1491 -0.3384  0.2324
28540ION     NA48074   9.576   4.059  11.440  0.0336 -0.1126  0.0668
28541ION     NA48075   5.679  17.282   6.071  0.2240 -0.1358  0.0658
28542ION     NA48076  17.506  11.306  15.323 -0.1910 -0.3306 -0.1714
28543ION     NA48077  12.139   0.960   5.959  0.0266 -0.2956  0.0502
28544ION     NA48078   0.304   2.064   5.979  0.2248  0.0744 -0.1011
28545ION     NA48079   1.239  14.209  11.128 -0.1481 -0.0536  0.1752
28546ION     NA48080   1.980  15.039  11.966 -0.5691  0.1631 -0.2137
28547ION     NA48081   2.432  11.010   5.575  0.3023 -0.1811 -0.1218
28548ION     NA48082  14.060   9.988  11.265 -0.2212  0.2290 -0.1863
28549ION     NA48083  15.814  14.264   6.114 -0.1688  0.0064  0.1802
28550ION     NA48084   1.911   6.950  11.185 -0.0586 -0.0947 -0.1299
28551ION     NA48085   6.281   9.832  11.413 -0.0883  0.3143  0.0536
28552ION     NA48086   3.252  17.197  11.196  0.1006  0.0376 -0.1567
28553ION     NA48087  13.995   5.796   5.896 -0.0451  0.0002 -0.1156
28554ION     NA48088   2.366  16.810  11.203 -0.1506 -0.2063 -0.3328
28555ION     NA48089  10.324  13.008  14.426 -0.1193 -0.1002  0.0890
28556ION     NA48090   3.856   5.029  11.312 -0.0513  0.0655 -0.1057
28557ION     NA48091  13.514  17.167   1.031  0.1704 -0.0471  0.2895
28558ION     NA48092   9.835   0.529  11.253  0.0010 -0.2298 -0.1088
28559ION     NA48093   3.174  10.692  11.276 -0.0739  0.2305 -0.1268
28560ION     NA48094   6.376  15.425  11.044 -0.0376 -0.4135 -0.0496
28561ION     NA48095   1.983   7.771  11.264 -0.0184  0.0801 -0.3099
28562ION     NA48096  10.881   1.485   4.989 -0.1681 -0.1139 -0.0236
28563ION     NA48097   2.753   3.081  11.513  0.1772 -0.1084  0.0001
28564ION     NA48098  13.116   3.682   5.914  0.2162  0.0554  0.0434
28565ION     NA48099  14.283   3.107   6.090 -0.1363  0.0355 -0.0091
28566ION     NA48100   2.799  14.391   2.676  0.2497 -0.0956 -0.1708
28567ION     NA48101  13.915   3.924   5.848  0.1558 -0.0337 -0.1843
28568ION     NA48102   1.980   4.654  14.743 -0.0784 -0.0484  0.1154
28569ION     NA48103   0.501  16.796   5.363 -0.0960 -0.2869  0.0721
28570ION     NA48104   7.404  12.039  15.263  0.1439  0.0435 -0.0709
28571ION     NA48105   0.645  13.474  11.040  0.0923 -0.2143  0.2516
28572ION     NA48106   5.033  13.657   5.814 -0.1957 -0.2486  0.2349
28573ION     NA48107   0.664   3.565   6.218  0.2634  0.1139 -0.0070
28574ION     NA48108  13.016  11.692  11.218 -0.0824  0.0719  0.0321
28575ION     NA48109   6.891  15.119  13.150  0.1141 -0.3998 -0.0002
28576ION     NA48110  11.529  10.022  11.332 -0.1249  0.3949 -0.0496
28577ION     NA48111   4.733   8.840   1.858 -0.0701 -0.0232  0.0002
28578ION     NA48112   5.065   8.851  11.156  0.1047 -0.1476 -0.1521
28579ION     NA48113  16.810   4.334  12.424 -0.0030 -0.1743  0.3836
28580ION     NA48114   5.436  12.221   5.652 -0.0140  0.0595  0.0097
28581ION     NA48115  11.214   4.856  11.295 -0.3169 -0.5008  0.2070
28582ION     NA48116   0.121   7.358  15.053  0.3102  0.1611  0.2519
28583ION     NA48117  10.160   9.034   5.816 -0.3005 -0.0041 -0.0248
28584ION     NA48118  13.899  13.423  11.035  0.2649  0.1749  0.0807
28585ION     NA48119   6.161   6.361  13.053 -0.3323 -0.0159  0.0842
28586ION     NA48120   4.206  13.669  11.226  0.3168  0.0572  0.0231
28587ION     NA48121  12.113   3.588   6.133  0.0414  0.2061  0.0505
28588ION     NA48122  12.496  10.762  12.263 -0.2747  0.0593 -0.0626
28589ION     NA48123   0.092   5.812  11.637 -0.0451  0.0005  0.0237
28590ION     NA48124  14.923   3.013  11.653  0.0343 -0.1579  0.1200
28591ION     NA48125   3.345   7.051   4.631 -0.1387  0.1204 -0.2079
28592ION     NA48126   5.010  11.055  11.192  0.1798 -0.1373  0.1077
28593ION     NA48127  14.406  10.102   5.557 -0.0040  0.1230 -0.3030
28594ION     NA48128   5.693   9.654  11.209 -0.0996 -0.1496  0.3489
28595ION     NA48129   1.978  11.106  15.999  0.5898  0.1410  0.0543
28596ION     NA48130   3.352   7.445  11.507 -0.1170  0.1709  0.1359
28597ION     NA48131  11.753   2.777   6.064  0.5221  0.0676  0.1172
28598ION     NA48132   0.830   6.915   5.943  0.0024 -0.0675  0.2044
28599ION     NA48133  11.736   7.463   5.979 -0.2884 -0.0030  0.3060
28600ION     NA48134   2.917   3.499   6.013  0.1221 -0.0467  0.1645
28601ION     NA48135  14.148   7.893  11.224  0.1325 -0.2486  0.0206
28602ION     NA48136   5.035  16.220  14.545 -0.0423 -0.3178  0.0905
28603ION     NA48137  11.232   3.500   5.973  0.1303  0.1994  0.0516
28604ION     NA48138   4.078   1.896   4.155  0.1725  0.1568  0.0498
28605ION     NA48139   2.225  11.524   5.579 -0.1071  0.0014  0.1000
28606ION     NA48140  11.609   3.808  11.338  0.2656  0.0754 -0.0685
28607ION     NA48141   5.894  14.709  11.110 -0.0647  0.1582 -0.0803
28608ION     NA48142   7.067  14.188  10.915  0.4610 -0.4190 -0.0892
28609ION     NA48143   7.792   9.180   6.002  0.1075 -0.0415  0.2454
28610ION     NA48144  15.222  10.984   5.541 -0.1907  0.3325 -0.2461
28611ION     NA48145   8.075  16.309  11.075 -0.0956 -0.0945 -0.1436
28612ION     NA48146  15.046  17.548  11.494 -0.3405  0.2267  0.0730
28613ION     NA48147   3.219   8.274  11.475 -0.4043 -0.4115 -0.2216
28614ION     NA48148   7.279  12.718   5.683  0.1861 -0.0595 -0.2557
28615ION     NA48149  14.564  11.400   1.369 -0.0603  0.0058  0.1517
28616ION     NA48150   7.830   8.881  11.442 -0.0178  0.1691  0.2497
28617ION     NA48151   5.015   2.753   5.731 -0.1103  0.0671  0.1983
28618ION     NA48152   0.215  16.631   0.674 -0.0345 -0.2297  0.3966
28619ION     NA48153   4.902  17.092  11.194  0.1393  0.0462 -0.3240
28620ION     NA48154  10.110   2.225   5.757  0.1530  0.2290 -0.1715
28621ION     NA48155  17.236   5.102  11.516 -0.0862 -0.1590  0.3079
28622ION     NA48156   4.052  17.408  11.702  0.0691  0.2532 -0.0916
28623ION     NA48157   7.309   3.592   5.673 -0.1032  0.0369 -0.1939
28624ION     NA48158  15.831   6.578   2.987  0.0391 -0.1674  0.1941
28625ION     NA48159  13.846  15.871   6.377 -0.3268  0.1741 -0.0746
28626ION     NA48160  11.906   9.083   5.737  0.1109 -0.2275  0.0515
28627ION     NA48161  16.066   0.344   5.828 -0.1312 -0.0617 -0.2173
28628ION     NA48162  16.133   7.351   4.434 -0.3544 -0.0139 -0.0925
28629ION     NA48163   0.011   8.399  11.266 -0.1930  0.2609 -0.0179
28630ION     NA48164  12.799   3.096   2.813 -0.0262 -0.0307  0.3128
28631ION     NA48165   2.746  15.762  16.607 -0.0503  0.0200  0.0515
28632ION     NA48166  11.217  17.282   6.175 -0.2239  0.0527 -0.1333
28633ION     NA48167   2.916  14.500  11.355 -0.0626 -0.1259 -0.0200
28634ION     NA48168  12.902  10.659   5.474  0.0539  0.0916  0.1942
28635ION     NA48169   8.224  17.581  11.728  0.0984 -0.0662 -0.3668
28636ION     NA48170  16.797  11.736  11.203 -0.0844 -0.0854  0.1079
28637ION     NA48171   4.798  14.356  11.094 -0.2049  0.2113  0.2843
28638ION     NA48172  16.000  12.221  11.342 -0.0872 -0.0276 -0.1473
28639ION     NA48173   0.643  14.630   2.204 -0.1661  0.0556 -0.1827
28640ION     NA48174   1.103  10.214  16.967 -0.0294  0.6349 -0.1148
28641ION     NA48175   2.006  13.057   5.575  0.0052  0.2533  0.0789
28642ION     NA48176   1.012  12.714  11.004 -0.1696 -0.1887 -0.0384
28643ION     NA48177   8.251  14.766   5.884  0.4427  0.2248  0.1783
28644ION     NA48178  16.424  17.182   5.948 -0.0300 -0.2580 -0.1994
28645ION     NA48179  13.813   2.125   6.105  0.2580 -0.1060 -0.3743
28646ION     NA48180   0.769  14.052   4.116  0.1672  0.1199  0.1395
28647ION     NA48181   0.667  12.909  17.033  0.0141  0.1737 -0.2113
28648ION     NA48182  14.116   4.616   1.097  0.2578  0.1254 -0.1405
28649ION     NA48183  12.750   7.437   5.795  0.3190 -0.1243  0.4945
28650ION     NA48184   5.617  14.277   5.756  0.2696  0.0684 -0.0354
28651ION     NA48185  12.934  11.121  11.211 -0.2963 -0.1190 -0.2176
28652ION     NA48186   1.580  17.496  11.386  0.0821  0.0921 -0.0731
28653ION     NA48187   5.664  11.810  14.476  0.1736 -0.1170  0.1801
28654ION     NA48188  10.835  16.027   5.960  0.0877  0.1758  0.0428
28655ION     NA48189  10.308   3.072   5.994  0.1822 -0.1667  0.1782
28656ION     NA48190   3.782   6.495  11.219 -0.1514  0.0690  0.1556
28657ION     NA48191  12.163   5.298   5.878 -0.0070 -0.0916  0.0061
28658ION     NA48192   7.635   2.267   4.523  0.3404  0.0730  0.1818
28659ION     NA48193  11.973   5.102  17.017  0.0114 -0.0071  0.1926
28660ION     NA48194   3.846  16.202  13.776 -0.2557  0.2104 -0.0112
28661ION     NA48195  11.651  12.430  11.426  0.2039 -0.0748  0.1027
28662ION     NA48196   4.707  15.952   5.671  0.3388 -0.0761 -0.2346
28663ION     NA48197   9.546   5.033  15.185 -0.2596 -0.2675 -0.1109
28664ION     NA48198   5.131   8.048  11.712  0.1335  0.0372 -0.1961
28665ION     NA48199  13.579  17.205  13.180  0.5296  0.0309  0.1682
28666ION     NA48200   9.729   4.542   5.731  0.0364  0.1402 -0.0689
28667ION     NA48201  15.770  15.430  11.344 -0.0042 -0.1428  0.1465
28668ION     NA48202   1.851   8.699  11.317 -0.2296  0.0187  0.2475
28669ION     NA48203  10.414   6.990  14.080  0.3275 -0.0272 -0.0300
28670ION     NA48204  10.732  12.235   6.081  0.0172 -0.0947  0.2526
28671ION     NA48205   7.372  14.931   5.909 -0.0575 -0.1547  0.0128
28672ION     NA48206  17.605   1.762  14.706 -0.2098  0.3042  0.1860
28673ION     NA48207   3.030   5.111   5.797  0.1460  0.0865 -0.0776
28674ION     NA48208   2.752   6.726   5.869 -0.1263  0.0062  0.1124
28675ION     NA48209   2.681   3.870  11.315  0.3538 -0.4482  0.0531
28676ION     NA48210   5.268   2.186   4.401  0.0485 -0.0185  0.1583
28677ION     NA48211   7.919   2.985   5.997  0.1205 -0.1636  0.0369
28678ION     NA48212   5.104   7.269  11.212 -0.0051  0.0658  0.0209
28679ION     NA48213   6.926  12.838   3.360  0.1394 -0.3449 -0.0938
28680ION     NA48214  15.447   8.056  11.183  0.1141 -0.0047 -0.0419
28681ION     NA48215  12.431  17.276  16.040  0.3522  0.2065  0.1230
28682ION     NA48216  15.194  12.791   5.635 -0.1561 -0.6442  0.0292
28683ION     NA48217  12.600  15.512  11.589 -0.1443  0.0771  0.1689
28684ION     NA48218  12.595  14.192  12.129  0.0785  0.0571 -0.0690
28685ION     NA48219   1.901   6.020  11.109  0.0702 -0.1040 -0.4454
28686ION     NA48220  16.864   3.235   2.476 -0.1826  0.0163 -0.1070
28687ION     NA48221  15.257   5.391   2.732  0.0691 -0.1655  0.1827
28688ION     NA48222  15.582  17.439   6.065 -0.0331  0.1167 -0.0734
28689ION     NA48223   3.846   3.465  14.350 -0.0707 -0.2755  0.0272
28690ION     NA48224   1.831  10.092   5.903 -0.0570 -0.3488 -0.0218
28691ION     NA48225  13.036   6.167  11.613 -0.2578  0.1167  0.0137
28692ION     NA48226  10.058  16.220   5.894 -0.2977 -0.1321 -0.0623
28693ION     NA48227  14.847  13.092  10.991  0.2138  0.4241 -0.3017
28694ION     NA48228   0.376   4.502   6.031  0.0635  0.2639  0.2478
28695ION     NA48229   6.779  12.165   5.824 -0.0778 -0.0824 -0.1060
28696ION     NA48230   2.582   0.454   5.836  0.1947  0.2657 -0.0541
28697ION     NA48231   6.162   6.880   5.834  0.0864 -0.0016  0.1027
28698ION     NA48232  17.148  14.373  11.236 -0.0957  0.1062  0.2084
28699ION     NA48233   2.176   7.430   5.818  0.0451  0.0625 -0.1225
28700ION     NA48234   3.947  12.023   5.681  0.0279 -0.0940 -0.1207
28701ION     NA48235   9.583   0.981  11.322  0.1888 -0.4456  0.1137
28702ION     NA48236  17.194   6.262   1.012 -0.2562 -0.1918  0.0300
28703ION     NA48237  13.919  16.512   2.590 -0.1374  0.0955  0.1435
28704ION     NA48238  14.253   2.217   4.918 -0.0177  0.0299 -0.1443
28705ION     NA48239  14.355  12.435  11.427 -0.2437  0.1797  0.0671
28706ION     NA48240   0.107   2.011  11.521 -0.0200  0.3233  0.3965
28707ION     NA48241   7.279  13.621   5.723 -0.0101  0.0543  0.2146
28708ION     NA48242   8.738  17.018  11.257 -0.0501  0.0741 -0.1450
28709ION     NA48243   7.020  12.600  11.017 -0.1057  0.4576  0.0759
28710ION     NA48244  11.533  15.307  15.647  0.0912  0.0306 -0.0951
28711ION     NA48245  14.878  15.137  15.750  0.0323 -0.2146  0.0642
28712ION     NA48246  11.357  15.608   5.958  0.0002  0.1554  0.0673
28713ION     NA48247   9.996   8.597  12.271  0.1089  0.0813  0.1883
28714ION     NA48248  10.619   8.024   2.977  0.1710  0.3959 -0.1215
28715ION     NA48249   8.821  16.838   1.775  0.0283  0.2510 -0.1391
28716ION     NA48250  17.613   9.619   0.043  0.3477  0.2546  0.1724
28717ION     NA48251  15.434   9.135  11.772  0.0767 -0.0513 -0.2004
28718ION     NA48252  15.815   4.478   4.070 -0.1471  0.2486  0.2857
28719ION     NA48253   6.171   4.592   5.878  0.0456  0.1349  0.1438
28720ION     NA48254   8.425   9.466   5.825 -0.1183 -0.1464 -0.5403
28721ION     NA48255   6.071   3.040   5.849 -0.0313 -0.0160 -0.1836
28722ION     NA48256   1.857   9.551  11.339 -0.0708  0.1926  0.0366
28723ION     NA48257   9.828   8.610  14.409  0.0153  0.0409 -0.0111
28724ION     NA48258   7.465  13.318  10.912  0.0439 -0.2428  0.1061
28725ION     NA48259   5.022  14.763  10.849  0.1301  0.1832  0.2054
28726ION     NA48260   3.307   0.024  11.332  0.0194 -0.1333  0.0939
28727ION     NA48261   9.442   4.957   5.736 -0.2151 -0.0203 -0.3480
28728ION     NA48262   1.394   5.773   5.795  0.1916  0.1937  0.0281
28729ION     NA48263  13.665  16.525  11.320  0.2686  0.1778  0.1592
28730ION     NA48264  17.001  16.341   5.775  0.2161  0.1260  0.1032
28731ION     NA48265   4.195  17.501  11.224 -0.0108  0.2195  0.1544
28732ION     NA48266  17.443  13.504  11.155  0.0194  0.0056  0.0401
28733ION     NA48267   8.623   5.283  11.071  0.2523 -0.0258  0.2597
28734ION     NA48268   7.202   5.766  11.125 -0.0858  0.0963  0.0796
28735ION     NA48269   2.171  10.605   5.885  0.2207  0.2995 -0.1647
28736ION     NA48270  14.321  15.973  11.469  0.1428  0.1107  0.0624
28737ION     NA48271   8.501  14.531  11.302 -0.1304  0.1418 -0.4484
28738ION     NA48272  10.418   0.655   5.816 -0.1092 -0.2410 -0.0931
28739ION     NA48273  12.058  13.663  11.224  0.0622  0.2171  0.1338
28740ION     NA48274  13.358   3.535  11.292  0.1700 -0.1789 -0.1771
28741ION     NA48275   9.112   0.156  11.589  0.1305  0.0769  0.0386
28742ION     NA48276  10.162  17.443  11.441 -0.1808  0.2756 -0.1253
28743ION     NA48277   1.177  11.173  11.027  0.2454  0.2956 -0.0466
28744ION     NA48278   3.000   7.629   5.936 -0.0798 -0.2141  0.0409
28745ION     NA48279  15.817  14.415  11.095 -0.0412  0.1238 -0.3096
28746ION     NA48280  11.351  16.816   2.521  0.1752  0.1448  0.2564
28747ION     NA48281  10.530   1.827  11.428 -0.1278 -0.0379 -0.0434
28748ION     NA48282   8.367  12.761  11.099  0.0910  0.0082 -0.0613
28749ION     NA48283   6.311  11.954   5.544 -0.0580  0.3613 -0.1726
28750ION     NA48284   8.848  11.156  11.247  0.0219 -0.0634  0.2938
28751ION     NA48285   7.818  10.237   1.188 -0.3017 -0.1442  0.1210
28752ION     NA48286  13.925  15.022  11.411  0.0070 -0.0049 -0.0184
28753ION     NA48287  13.903   8.161   5.734  0.1084  0.2137  0.1490
28754ION     NA48288  11.416   8.206  14.984  0.0534  0.0624 -0.2053
28755ION     NA48289   1.052   0.667   2.254  0.0194 -0.0850  0.3291
28756ION     NA48290   0.669   1.375  11.658 -0.0553  0.0753 -0.2556
28757ION     NA48291  14.836  15.228  11.465 -0.0246 -0.3046 -0.0276
28758ION     NA48292  17.410   6.150   5.999  0.1470  0.0191 -0.1671
28759ION     NA48293  10.309   4.487  13.619  0.0310  0.0273  0.3615
28760ION     NA48294   3.184   1.164   5.979  0.0093 -0.0897 -0.0561
28761ION     NA48295  15.687  17.662  11.426  0.0863  0.1207  0.0720
28762ION     NA48296  10.239  13.275  11.075 -0.0855 -0.0382  0.3225
28763ION     NA48297  16.406  14.962  11.015  0.2146 -0.0507  0.0851
28764ION     NA48298   1.126  10.528  11.935  0.1384 -0.3062  0.0495
28765ION     NA48299  12.530   9.692   6.006 -0.0291 -0.0949  0.0019
28766ION     NA48300   3.307  14.147   5.888  0.1643 -0.0286 -0.1740
28767ION     NA48301  16.557   1.985   5.894 -0.2625  0.0580 -0.0799
28768ION     NA48302   7.742  14.565  14.608  0.0307 -0.1070  0.1566
28769ION     NA48303   0.757  10.815  11.137  0.2355 -0.1172  0.2859
28770ION     NA48304  16.314   9.486  11.201 -0.0365  0.2142 -0.0901
28771ION     NA48305   0.025   3.211  11.703  0.0859  0.0351  0.2717
28772ION     NA48306  14.594   3.882  11.664 -0.1631  0.1172  0.0623
28773ION     NA48307   6.523  13.058   5.844 -0.2292 -0.1168 -0.0979
28774ION     NA48308   8.290   3.766   1.388 -0.2661 -0.1780 -0.2915
28775ION     NA48309   2.177   5.198  11.271 -0.0632 -0.1026  0.3697
28776ION     NA48310   7.998  15.559   5.573  0.1488  0.0498 -0.4152
28777ION     NA48311   4.165   5.504  11.420 -0.0819 -0.0301  0.0965
28778ION     NA48312   5.973   6.046   3.799 -0.0759 -0.0748 -0.1908
28779ION     NA48313   0.975   2.734   6.177 -0.3308 -0.0376 -0.0735
28780ION     NA48314   1.099   9.056  11.472  0.1783  0.0821 -0.1321
28781ION     NA48315   3.202   0.858  11.439  0.0594  0.0061  0.1078
28782ION     NA48316  13.190  14.367   6.160 -0.2655 -0.0203  0.0825
28783ION     NA48317   1.870   6.690   5.498 -0.2585  0.1645  0.1047
28784ION     NA48318  13.386   9.581   5.697  0.2025 -0.0794 -0.2427
28785ION     NA48319   7.881  17.126   4.364 -0.3511  0.0135  0.0735
28786ION     NA48320   6.913   8.898  11.361  0.1293 -0.2040  0.0628
28787ION     NA48321   0.532   0.393   5.975  0.3398  0.1592  0.0396
28788ION     NA48322  10.390  16.053  11.337 -0.1174 -0.0393 -0.0337
28789ION     NA48323  16.181   4.485   6.101 -0.0773 -0.0958 -0.1713
28790ION     NA48324   1.066  15.155   5.772  0.1382  0.2926 -0.2322
28791ION     NA48325   3.110  12.178   2.467 -0.1645  0.0045  0.1730
28792ION     NA48326  17.175  16.816  16.450 -0.0161 -0.1851  0.1381
28793ION     NA48327   6.495  15.610  14.769 -0.0773 -0.0695  0.1018
28794ION     NA48328  13.133  17.534   6.121  0.0724 -0.4321 -0.1368
28795ION     NA48329   0.277   0.562  11.536 -0.0599  0.0135  0.1420
28796ION     NA48330  12.027  12.565   5.982  0.0270  0.2900 -0.0522
28797ION     NA48331   7.971   4.735  11.087 -0.1205  0.0003  0.0556
28798ION     NA48332   0.134   3.016   5.926 -0.0132 -0.0379  0.0556
28799ION     NA48333   9.586  12.471  11.064  0.1935 -0.1833 -0.0191
28800ION     NA48334  16.448  16.287   6.057  0.2953 -0.0227 -0.0367
28801ION     NA48335   0.311  17.594   6.015  0.3440  0.0639  0.1873
28802ION     NA48336   7.449  10.582  11.099 -0.0744 -0.1152  0.2680
28803ION     NA48337   7.258  10.199   5.785 -0.2294 -0.0319  0.2488
28804ION     NA48338  10.114  11.721  11.363  0.2495  0.0111 -0.0980
28805ION     NA48339   3.927   6.487   2.193  0.2859 -0.0243 -0.1854
28806ION     NA48340  16.679  14.277  11.015  0.1122  0.2389  0.1949
28807ION     NA48341   1.064  14.248   5.651  0.1454 -0.0698  0.1215
28808ION     NA48342   6.186   6.055  11.621  0.3476  0.1857 -0.2693
28809ION     NA48343  11.185   7.729  11.191 -0.2697  0.1310  0.1194
28810ION     NA48344   5.542  15.494  11.126 -0.1991  0.1699 -0.0084
28811ION     NA48345   2.381   1.412   5.794  0.1867 -0.4742  0.2775
28812ION     NA48346  14.869  10.194  11.212  0.3510 -0.0336  0.1604
28813ION     NA48347   2.142  16.251   5.957 -0.0260 -0.2606  0.0746
28814ION     NA48348   0.247  15.343   5.894  0.3291 -0.1208  0.1995
28815ION     NA48349   6.065  17.417  15.325  0.2791 -0.0740 -0.1307
28816ION     NA48350  10.376   7.165  11.035 -0.0925 -0.1139  0.1978
28817ION     NA48351   4.573   3.670   5.825  0.1515 -0.1581 -0.0887
28818ION     NA48352   2.399   6.438   5.621 -0.0270  0.1678 -0.3065
28819ION     NA48353  16.345   6.286  13.975 -0.1123  0.3591  0.0338
28820ION     NA48354  12.492   1.500  15.069  0.0874  0.0934  0.0348
28821ION     NA48355  13.965  17.405   6.002 -0.0090  0.1437  0.1574
28822ION     NA48356  12.534   1.641   5.846  0.0919  0.1329 -0.1590
28823ION     NA48357   5.311  15.720   5.704  0.3303  0.0075  0.0934
28824ION     NA48358  10.583   4.740   5.745 -0.0734  0.1522 -0.1981
28825ION     NA48359   7.330   0.224  11.537 -0.1681 -0.1537  0.0344
28826ION     NA48360   5.500   0.527   5.839 -0.2970  0.0859  0.1959
28827ION     NA48361   3.693  15.063  16.590  0.1947 -0.1460 -0.2352
28828ION     NA48362  15.130   7.199  14.252 -0.2205  0.1129 -0.3458
28829ION     NA48363   9.546   5.649  16.009  0.0776  0.3182  0.0232
28830ION     NA48364  16.672   1.020   5.751 -0.0475  0.2137  0.0002
28831ION     NA48365  16.557   8.174  13.804 -0.0265  0.4998  0.1477
28832ION     NA48366  16.883   5.140  12.839 -0.3309  0.0421  0.1314
28833ION     NA48367  13.019   7.392  11.273 -0.2507  0.1831 -0.0445
28834ION     NA48368  15.183   1.552   6.072 -0.0073 -0.1219 -0.0250
28835ION     NA48369   5.196   9.291   5.819  0.0921 -0.0180  0.0532
28836ION     NA48370  15.264   6.550  16.447  0.0729 -0.2040  0.2190
28837ION     NA48371  16.305   0.621  11.559 -0.1050  0.0842  0.0946
28838ION     NA48372   2.214   9.960   1.501  0.0560 -0.1370  0.0308
28839ION     NA48373   9.520  10.719  11.737  0.1410  0.1024  0.0202
28840ION     NA48374  12.982  10.534   5.933 -0.2717 -0.3011  0.5974
28841ION     NA48375   4.979   7.865  14.182  0.0393  0.0833  0.1064
28842ION     NA48376  17.303  16.888   4.013 -0.3059  0.3126  0.0556
28843ION     NA48377   1.409   3.532  15.881 -0.0513 -0.0531 -0.1462
28844ION     NA48378   7.822   0.532   5.977 -0.2045 -0.1498  0.0447
28845ION     NA48379   5.823  11.514   2.459  0.0236 -0.1922  0.0776
28846ION     NA48380  15.991  13.420   6.007  0.0706  0.1628  0.1967
28847ION     NA48381   0.567  11.861  11.096  0.1428  0.0201 -0.2599
28848ION     NA48382  12.999  17.053  14.269  0.1609 -0.2443  0.1413
28849ION     NA48383   3.651   6.969   5.773  0.4653  0.3342 -0.0606
28850ION     NA48384   2.462   1.946   4.056  0.1895 -0.0247  0.1007
28851ION     NA48385  10.450   5.530  11.256  0.0851 -0.0160  0.1955
28852ION     NA48386  13.774  11.503  11.247 -0.0239 -0.0435 -0.2871
28853ION     NA48387   0.429  13.655   5.453  0.1842  0.2036 -0.2362
28854ION     NA48388  14.084   9.048   5.797  0.0737 -0.1413  0.1468
28855ION     NA48389   1.264   7.912   5.878 -0.1291  0.2599 -0.1590
28856ION     NA48390   3.333  15.953   5.698  0.0779  0.1555  0.2446
28857ION     NA48391   6.446   0.394  11.320 -0.2348 -0.2487  0.2346
28858ION     NA48392   7.076  11.513  11.162 -0.0509 -0.1123 -0.0141
28859ION     NA48393   8.581   7.631   1.337 -0.0292 -0.2365 -0.0591
28860ION     NA48394   3.281   4.204   5.678  0.1222  0.1517 -0.1396
28861ION     NA48395  11.716   5.823   6.043 -0.0152 -0.1268  0.0862
28862ION     NA48396  16.623   7.488  11.661 -0.0306  0.0653 -0.1888
28863ION     NA48397  15.202   6.248  11.326 -0.0562  0.2692  0.0609
28864ION     NA48398   4.281   6.261   5.879  0.0474 -0.1352  0.2447
28865ION     NA48399  11.687  17.006   6.026  0.0686  0.1319 -0.0763
28866ION     NA48400   0.299   0.348   2.822  0.3698  0.1408  0.1313
28867ION     NA48401  15.909  14.067  11.456  0.0992 -0.2035  0.0552
28868ION     NA48402  14.099   7.343   5.721 -0.0974  0.1315 -0.0734
28869ION     NA48403   9.776  13.986  11.212  0.0758 -0.1537  0.2409
28870ION     NA48404  16.229   1.691   6.137  0.1109  0.2757  0.1521
28871ION     NA48405  13.091   5.283   2.899 -0.0006 -0.4655 -0.0603
28872ION     NA48406   1.751   2.172   6.273  0.1452 -0.0884 -0.0340
28873ION     NA48407  15.145  16.090  11.345  0.1432 -0.1100  0.0089
28874ION     NA48408   4.246  10.410   5.236  0.1065  0.0825 -0.0005
28875ION     NA48409  15.401   4.025  14.077  0.0552 -0.0509 -0.0049
28876ION     NA48410  11.955   4.688  15.243 -0.1961  0.1138 -0.0113
28877ION     NA48411  11.960  15.566   0.850 -0.2484 -0.0043 -0.2013
28878ION     NA48412   6.765  17.168  11.268  0.0774 -0.3637 -0.0073
28879ION     NA48413   2.584  16.561   3.843 -0.1893 -0.1290  0.3286
28880ION     NA48414   7.341   4.114  15.966 -0.1253 -0.0384 -0.2342
28881ION     NA48415  16.850   2.894   6.045  0.1961 -0.1906  0.0845
28882ION     NA48416  11.957  11.384   5.438 -0.2170 -0.2257  0.4129
28883ION     NA48417   0.722   8.622   5.805 -0.3208 -0.1339 -0.0844
28884ION     NA48418   4.933   2.684  11.619 -0.0590  0.2152 -0.0574
28885ION     NA48419  16.331   7.268   5.737  0.2388  0.0127  0.1440
28886ION     NA48420   7.058   2.552  16.730 -0.1127  0.0013 -0.1039
28887ION     NA48421  13.988  15.706   1.421  0.0642  0.1568  0.1711
28888ION     NA48422   8.710  12.347   5.835  0.0830  0.0627  0.0615
28889ION     NA48423  15.507   7.322  11.657 -0.0717  0.1164  0.2051
28890ION     NA48424   7.934   5.831  10.984  0.0495  0.2722 -0.0904
28891ION     NA48425   5.921  10.925   5.919  0.2494  0.0387 -0.2122
28892ION     NA48426   9.905   7.624  12.147 -0.0610  0.1548 -0.0816
28893ION     NA48427  11.874   8.375   5.788 -0.0536 -0.1529 -0.0959
28894ION     NA48428   0.888   2.409   1.007 -0.2335  0.1357  0.1176
28895ION     NA48429   8.574   0.832  12.451 -0.0668  0.1672  0.0123
28896ION     NA48430   2.414   6.093  11.217  0.1773 -0.3692 -0.0085
28897ION     NA48431  15.608  10.022   3.086 -0.1200 -0.0460  0.3111
28898ION     NA48432  14.880   0.760   5.830  0.2054  0.0152  0.0213
28899ION     NA48433   9.171   6.930  11.020  0.0464  0.0255  0.0356
28900ION     NA48434   6.898  10.786   5.984  0.0684 -0.2052 -0.1275
28901ION     NA48435   0.893  15.973   5.664 -0.2464 -0.0302 -0.1793
28902ION     NA48436   9.052  17.478  16.743 -0.0931 -0.0206  0.2389
28903ION     NA48437   5.900   6.732  11.246  0.0410 -0.0537 -0.0295
28904ION     NA48438   9.572  11.528   5.339 -0.0450  0.2628  0.0037
28905ION     NA48439  17.582  16.541   5.910  0.1794 -0.4193 -0.1436
28906ION     NA48440   7.792   5.526   2.872  0.0681  0.1343 -0.1866
28907ION     NA48441   6.997  11.291   0.206 -0.1071 -0.1437 -0.1566
28908ION     NA48442   2.403   0.035  11.243  0.0900 -0.0406 -0.4613
28909ION     NA48443  17.603   7.081   5.687 -0.0857 -0.3257 -0.1890
28910ION     NA48444   6.936   2.698   5.691  0.1282 -0.1385 -0.0602
28911ION     NA48445  13.472   0.739  11.433 -0.0368  0.0113  0.0874
28912ION     NA48446  13.294   6.727   5.788 -0.2131  0.3702  0.0225
28913ION     NA48447   3.407   3.291  11.355 -0.0500 -0.2105 -0.1801
28914ION     NA48448   0.913   0.676  16.520  0.1914  0.0551  0.1696
28915ION     NA48449  17.634   5.994   3.964  0.1350 -0.0803  0.2361
28916ION     NA48450  14.293  16.577   6.129  0.1106  0.0554 -0.2181
28917ION     NA48451  12.324   7.460   5.391  0.1323  0.2064 -0.1868
28918ION     NA48452  13.338   1.305   6.171 -0.0205 -0.0693 -0.1463
28919ION     NA48453   7.837   2.155   5.847  0.1207 -0.0407  0.1609
28920ION     NA48454  11.957   7.156   4.180 -0.2403  0.1047 -0.2871
28921ION     NA48455   1.273  10.353   5.853 -0.1234 -0.0174 -0.1589
28922ION     NA48456  17.414  14.656   0.407 -0.1519  0.0664  0.0500
28923ION     NA48457   3.851  12.085  11.519  0.0809  0.0765  0.1857
28924ION     NA48458   7.777  15.869   5.911  0.2269 -0.3027  0.1642
28925ION     NA48459   4.433   7.095   5.929 -0.0884 -0.0399  0.0013
28926ION     NA48460  17.432  11.148  11.123 -0.2115  0.1221  0.0272
28927ION     NA48461  15.372  14.936   5.874 -0.0866  0.0617 -0.2920
28928ION     NA48462   0.697   7.374  11.054  0.0031  0.2220  0.0854
28929ION     NA48463  15.613   4.049  11.375  0.0703 -0.1010 -0.3112
28930ION     NA48464   5.927   1.410   5.645  0.0773  0.1806 -0.2569
28931ION     NA48465  13.591  11.139   5.956  0.2122 -0.1278 -0.0856
28932ION     NA48466  11.119   4.232  12.154 -0.0575  0.1123 -0.3558
28933ION     NA48467   1.990  14.833  11.106 -0.0292  0.3159  0.3021
28934ION     NA48468   6.970   8.977   2.156 -0.1621  0.0105 -0.1003
28935ION     NA48469   5.207  16.623   5.673  0.1414 -0.0914  0.0455
28936ION     NA48470   2.259  10.428  11.191  0.0919  0.1456  0.0064
28937ION     NA48471  10.703  14.017  11.323 -0.2248  0.2385 -0.1078
28938ION     NA48472  15.491   9.595   5.738  0.1649 -0.2076  0.1870
28939ION     NA48473  12.380  17.272  11.455  0.1827  0.1752  0.1939
28940ION     NA48474  11.278   0.860   5.802 -0.4076 -0.1669 -0.0171
28941ION     NA48475   8.089   6.707  11.167  0.1170  0.1320  0.2015
28942ION     NA48476   7.917   8.660   5.936  0.0199 -0.1886  0.0143
28943ION     NA48477   6.115   7.666   5.901  0.3621  0.4025  0.2431
28944ION     NA48478  12.936   0.167  11.876  0.4369  0.1134 -0.0252
28945ION     NA48479  10.365   4.088   5.806 -0.0573 -0.1264  0.1191
28946ION     NA48480   1.614   3.827   1.383 -0.0080  0.0059  0.2224
28947ION     NA48481  10.542   8.550  11.320  0.3264 -0.0722  0.2187
28948ION     NA48482   7.066  15.336   5.841  0.1689 -0.0200 -0.1438
28949ION     NA48483  15.775   5.300   6.303  0.2438 -0.0608  0.3138
28950ION     NA48484  12.551  16.254   6.187  0.0904  0.1843 -0.0459
28951ION     NA48485  15.097   3.047   5.714 -0.0273  0.0038 -0.1292
28952ION     NA48486   1.126   4.789  11.621 -0.0879  0.0250 -0.0674
28953ION     NA48487  10.834  12.812   2.031 -0.0670  0.0079 -0.3275
28954ION     NA48488  13.105  13.420  11.234 -0.1463  0.1801 -0.4245
28955ION     NA48489  13.228  16.758  11.327  0.0985  0.2507 -0.0564
28956ION     NA48490  14.830   8.596  11.237  0.1653 -0.0868  0.1265
28957ION     NA48491  10.387   8.363  17.037  0.1128  0.0755 -0.0612
28958ION     NA48492   9.610   3.644   5.669  0.0747 -0.0731  0.0234
28959ION     NA48493  14.641  14.447  11.327  0.2450  0.1603  0.0103
28960ION     NA48494   9.601   4.961   2.408 -0.0847 -0.1288 -0.1527
28961ION     NA48495  10.333   9.197   3.369  0.5078  0.0898 -0.2114
28962ION     NA48496  10.807   0.394  11.527  0.0310  0.0879 -0.0192
28963ION     NA48497   6.036   0.853  15.459  0.1193  0.0492 -0.1242
28964ION     NA48498   0.535  16.687   5.880  0.0439  0.2084  0.3000
28965ION     NA48499   2.093   0.844  11.439 -0.0338  0.1158 -0.2134
28966ION     NA48500  13.288   6.919   2.962  0.1234 -0.2365  0.0589
28967ION     NA48501   7.550  14.734  11.345 -0.1915 -0.3644  0.1066
28968ION     NA48502   4.768   1.784  14.713 -0.0294 -0.0380  0.0802
28969ION     NA48503   8.693  13.554   5.774  0.1157  0.0500  0.0602
28970ION     NA48504   6.086   8.803   4.506 -0.0191 -0.2271 -0.2665
28971ION     NA48505   9.869   6.477  10.864 -0.0434 -0.1346 -0.0070
28972ION     NA48506   7.969   5.505   5.793  0.2867  0.2378  0.1837
28973ION     NA48507   0.449   9.976   1.613  0.1526  0.1366  0.0632
28974ION     NA48508  12.499  13.993  11.312 -0.3661 -0.3508  0.0946
28975ION     NA48509  16.000   1.461  11.693  0.3177  0.1401 -0.1028
28976ION     NA48510  16.345   5.770   6.260  0.2015 -0.1495  0.1474
28977ION     NA48511   4.154   1.997  11.333  0.0589 -0.5560 -0.3226
28978ION     NA48512  16.879   5.885  11.746  0.0434  0.1305  0.1027
28979ION     NA48513   3.956  11.193   5.801  0.1097 -0.2104  0.0043
28980ION     NA48514  10.750   2.761  11.255 -0.0721  0.0820  0.0045
28981ION     NA48515   3.308   8.453   5.756 -0.0504 -0.1318 -0.1706
28982ION     NA48516   3.768  14.205  10.976 -0.0069  0.2333 -0.0695
28983ION     NA48517   8.999  12.707   0.691  0.0674  0.0093  0.2891
28984ION     NA48518  13.466  16.731   6.152  0.2460  0.0508 -0.0322
28985ION     NA48519  12.538   1.018   1.848 -0.0993  0.1771 -0.0852
28986ION     NA48520   6.736   7.490   5.926 -0.2294  0.0165  0.2552
28987ION     NA48521  13.732  17.543  11.561  0.0360 -0.2322  0.1039
28988ION     NA48522   9.744  14.073   4.213 -0.2640  0.3374  0.2610
28989ION     NA48523  11.393  10.458   5.691 -0.0813 -0.1751  0.0193
28990ION     NA48524  15.509  15.161   6.300 -0.0901  0.3144 -0.3602
28991ION     NA48525  15.125  17.314  16.922  0.0729 -0.1447  0.0502
28992ION     NA48526   3.239  14.540   0.067  0.1543 -0.0288  0.1729
28993ION     NA48527   4.785  11.545   5.731 -0.0895 -0.1007  0.1331
28994ION     NA48528  11.838   7.433   1.466 -0.3255 -0.0648  0.2697
28995ION     NA48529   5.256   4.845   5.967 -0.1732 -0.0487 -0.4334
28996ION     NA48530  13.888  14.041  11.183  0.2288  0.2098 -0.2806
28997ION     NA48531   8.464   5.265  16.065 -0.3478  0.1950  0.1611
28998ION     NA48532   1.035   0.563   5.961  0.0273  0.0053 -0.3141
28999ION     NA48533  15.376   3.439   2.032 -0.1234 -0.3740 -0.0732
29000ION     NA48534  15.530  16.090   5.792  0.1541  0.0390  0.1427
29001ION     NA48535   1.727   1.183   6.071 -0.1303 -0.0939  0.0428
29002ION     NA48536  14.810  14.388   6.249  0.1334  0.1053  0.1365
29003ION     NA48537   8.880  17.171   5.687  0.1220  0.2156 -0.1312
29004ION     NA48538  10.993   4.845   0.705  0.1119 -0.1630 -0.1168
29005ION     NA48539  14.621   2.271   6.087  0.1500  0.0268 -0.1667
29006ION     NA48540   1.671   8.700   5.365  0.0593  0.0187  0.2523
29007ION     NA48541   6.608   5.528  11.143  0.1831 -0.0344  0.1624
29008ION     NA48542   8.796   7.038   5.757  0.1440 -0.0377  0.0581
29009ION     NA48543   6.970  16.207   5.958  0.1138  0.1875  0.5015
29010ION     NA48544   0.609  16.372  11.428  0.2554  0.0642  0.1733
29011ION     NA48545  14.180  13.026   2.066  0.1738 -0.0339 -0.1668
29012ION     NA48546   0.576  15.953  11.229  0.1069 -0.2791  0.2439
29013ION     NA48547  15.995  11.581   5.645 -0.1133  0.1520 -0.1296
29014ION     NA48548  13.463  10.183   0.725  0.0504 -0.0885  0.0190
29015ION     NA48549   1.077  11.181   3.016 -0.1316 -0.0570  0.1740
29016ION     NA48550  14.338  10.780  11.351  0.2239 -0.2216  0.0024
29017ION     NA48551  10.375   6.401   5.660  0.1998  0.0890 -0.0946
29018ION     NA48552  13.413  15.725  11.320  0.3547 -0.0150  0.1810
29019ION     NA48553  16.314   9.538   5.657  0.0756  0.2800 -0.2029
29020ION     NA48554  13.568  12.621  11.067  0.3276  0.0923  0.2431
29021ION     NA48555  13.362   2.589  11.485 -0.1414 -0.0701 -0.1072
29022ION     NA48556   5.927   8.912  11.176 -0.1907  0.1929 -0.5530
29023ION     NA48557   9.689   3.136  11.168 -0.2402 -0.0535  0.3236
29024ION     NA48558   1.020   5.571  11.272  0.0491  0.0722 -0.2849
29025ION     NA48559  10.198   9.879   5.765  0.1172  0.0303 -0.0013
29026ION     NA48560  10.799   7.206   5.713 -0.0516 -0.0086 -0.0367
29027ION     NA48561  10.178   7.504   5.784  0.1792  0.1134  0.0840
29028ION     NA48562  12.368  15.401   6.011 -0.2756 -0.2598 -0.0220
29029ION     NA48563  12.918  12.362   1.318  0.1163 -0.0915 -0.1651
29030ION     NA48564   9.243  15.858   5.919  0.1307  0.0429  0.0895
29031ION     NA48565  14.344   4.650   6.081  0.2103  0.3448 -0.2854
29032ION     NA48566   2.626   4.897   6.102  0.2425  0.0974  0.0239
29033ION     NA48567   6.489   8.283  11.211  0.0557  0.0574 -0.0025
29034ION     NA48568   9.750   8.266  11.024 -0.1116 -0.0625 -0.0680
29035ION     NA48569   3.391  13.347  11.337  0.3659  0.0568 -0.3080
29036ION     NA48570   9.370  12.817   5.821 -0.1915  0.0041 -0.2297
29037ION     NA48571  16.293  14.032   5.819 -0.0397  0.1547  0.3593
29038ION     NA48572   0.525   6.648  12.296 -0.1615 -0.1547 -0.0027
29039ION     NA48573  15.318  14.961  11.420  0.1405  0.1642 -0.1991
29040ION     NA48574   5.714   2.738  11.470  0.0973 -0.0803  0.0988
29041ION     NA48575  13.221   2.357   5.807  0.1288  0.2444  0.0759
29042ION     NA48576  12.316  14.256   6.036  0.1712  0.0053  0.2266
29043ION     NA48577   2.546  12.423   5.686  0.0497  0.3762  0.1231
29044ION     NA48578  10.640  10.705   5.841  0.4903 -0.0032  0.0727
29045ION     NA48579   5.129   6.677   3.118  0.3083 -0.2460  0.0179
29046ION     NA48580   5.587   3.930   5.774  0.2556  0.0262  0.0466
29047ION     NA48581  17.118   0.853   1.748  0.1377 -0.0796 -0.1026
29048ION     NA48582  11.089  10.719  11.354 -0.0262 -0.1419 -0.0380
29049ION     NA48583   3.130  15.391  11.278  0.1732 -0.0786 -0.2530
29050ION     NA48584   6.417  14.864   5.676 -0.0144  0.0834  0.0191
29051ION     NA48585  12.783   5.027   6.103 -0.2222 -0.0960 -0.0167
29052ION     NA48586   6.838   3.766  11.295  0.3057 -0.1200 -0.2761
29053ION     NA48587  15.542   2.317   5.707  0.0404  0.1405 -0.3684
29054ION     NA48588   7.824  10.946   5.878 -0.1150 -0.0526  0.1440
29055ION     NA48589   4.561   1.802  12.652 -0.0737 -0.1344 -0.3587
29056ION     NA48590  15.234  15.367   2.564  0.0241  0.1611 -0.2401
29057ION     NA48591  15.892   8.841   5.721  0.1882 -0.0646  0.1193
29058ION     NA48592   2.795   0.436   0.617  0.0926  0.0665 -0.0109
29059ION     NA48593   0.251   6.286   6.009 -0.2076  0.3526  0.1747
29060ION     NA48594  13.564   9.896  11.089 -0.0021  0.1359  0.0404
29061ION     NA48595   5.259  17.422   5.108 -0.1584 -0.1579  0.3270
29062ION     NA48596  10.765  12.382  11.196 -0.0918  0.2302  0.1861
29063ION     NA48597   9.759   9.646  11.665 -0.0837 -0.2664  0.1961
29064ION     NA48598   2.711   2.254  11.615  0.2068  0.0476 -0.0683
29065ION     NA48599  16.923  11.598   5.514  0.0241  0.1563 -0.0418
29066ION     NA48600   4.234  12.986   5.774 -0.0342 -0.0524 -0.1370
29067ION     NA48601  13.002   7.775   1.712  0.1054 -0.0450  0.0514
29068ION     NA48602   9.322  14.392  11.189  0.0261 -0.2524 -0.0360
29069ION     NA48603   6.428  16.981   4.279 -0.3165  0.0433 -0.0013
29070ION     NA48604   0.097   0.627  15.428  0.2686 -0.1359  0.1322
29071ION     NA48605   4.948  10.769   5.783  0.2153 -0.0799 -0.2211
29072ION     NA48606  16.777   6.715  11.294  0.0144 -0.2957  0.0329
29073ION     NA48607  14.629   3.201  13.894 -0.3205  0.0573 -0.3918
29074ION     NA48608  15.101  15.696   0.950  0.0905 -0.0975 -0.4954
29075ION     NA48609  13.506   0.744   6.067 -0.1809 -0.1513  0.1863
29076ION     NA48610   4.756   3.356   3.586  0.1436 -0.0604 -0.0663
29077ION     NA48611   4.068   1.366   5.763 -0.1057 -0.0581 -0.0291
29078ION     NA48612  13.396   3.115   6.161 -0.0971 -0.1081 -0.1232
29079ION     NA48613  16.726   8.887  11.304  0.2507 -0.2592 -0.0015
29080ION     NA48614   0.720  16.908  11.258 -0.1893 -0.0026 -0.0901
29081ION     NA48615   3.447  16.315   0.001 -0.1301 -0.1446  0.1202
29082ION     NA48616   9.860  13.872  16.305  0.2551  0.0068 -0.2543
29083ION     NA48617   0.436  14.348  10.781  0.1390 -0.0818  0.2777
29084ION     NA48618   4.056  10.418  11.272 -0.1667 -0.3571 -0.1278
29085ION     NA48619   5.360   2.377   5.758 -0.1527 -0.1067 -0.0424
29086ION     NA48620   3.530  16.236  11.210  0.1731 -0.0193  0.0987
29087ION     NA48621   8.845   3.546  11.329  0.4427  0.0883  0.3418
29088ION     NA48622  15.327  15.730   4.482  0.3532 -0.0786  0.1269
29089ION     NA48623  14.757  16.778  11.468  0.1053  0.2203 -0.1419
29090ION     NA48624  11.188   1.190  11.448 -0.0232  0.1627  0.1003
29091ION     NA48625  13.622  11.915   5.925 -0.0957  0.3089  0.0966
29092ION     NA48626  10.640   1.521   5.866  0.1520  0.1268  0.2252
29093ION     NA48627   2.435   7.888  11.566 -0.0328  0.0368  0.2105
29094ION     NA48628   9.628   0.302   5.842  0.2138 -0.0362  0.0173
29095ION     NA48629   8.751  15.046   5.858  0.1526  0.3037 -0.1731
29096ION     NA48630  16.959  10.302   5.696  0.0179  0.0316 -0.5442
29097ION     NA48631  12.644   4.077  11.443  0.3198  0.3947  0.0453
29098ION     NA48632  17.430  16.215  11.384 -0.0894 -0.0248 -0.1087
29099ION     NA48633  11.649   1.950  11.577 -0.1716  0.2020 -0.1462
29100ION     NA48634  17.336   2.908  11.842  0.0398  0.0892 -0.3445
29101ION     NA48635   5.375  10.216   5.922 -0.1436 -0.1002  0.1546
29102ION     NA48636   0.018  14.112   5.438 -0.1516 -0.2628 -0.0791
29103ION     NA48637   5.899   2.768  13.490 -0.3172  0.2342 -0.2583
29104ION     NA48638   3.120  11.622  12.115  0.1794 -0.0224 -0.0745
29105ION     NA48639   1.843   0.410   5.770 -0.0275  0.0553  0.1492
29106ION     NA48640   7.866   2.160  11.349  0.0871 -0.2497  0.0387
29107ION     NA48641   7.971   7.746   2.059 -0.2073 -0.3264  0.1239
29108ION     NA48642   7.595   4.276   5.056 -0.1935  0.0422 -0.1775
29109ION     NA48643  17.330  12.581   5.728  0.2209  0.1182  0.0412
29110ION     NA48644   5.250  13.920   3.013  0.1431  0.4757  0.2246
29111ION     NA48645  17.198   7.853   1.341  0.1099  0.1976  0.0902
29112ION     NA48646  15.536   4.891  11.138  0.0825  0.1287 -0.0652
29113ION     NA48647  14.645  11.618  11.215 -0.1481  0.0255  0.3939
29114ION     NA48648  11.988   9.268  11.118  0.0745 -0.1168 -0.1710
29115ION     NA48649   7.653   9.743  11.347  0.2492 -0.2755  0.0274
29116ION     NA48650   4.492   4.173  11.388  0.0576  0.2056 -0.0840
29117ION     NA48651  12.117   0.693   4.409  0.1420  0.0055  0.0046
29118ION     NA48652   9.009   5.625   5.917  0.3796 -0.0869  0.1747
29119ION     NA48653  17.513   1.885  16.795 -0.0701 -0.2218 -0.1977
29120ION     NA48654   3.338   6.814   2.812  0.2029  0.1435  0.0649
29121ION     NA48655   5.936  17.003  16.246  0.1634 -0.0652  0.1432
29122ION     NA48656   9.545   5.791   0.317 -0.0895 -0.2074 -0.0721
29123ION     NA48657   5.136   3.647  11.518  0.1423 -0.1655  0.0681
29124ION     NA48658   7.386   8.173  11.156 -0.1234  0.1191  0.1721
29125ION     NA48659  12.146   4.510  11.289 -0.0419 -0.3569  0.1373
29126ION     NA48660   7.482  16.960   5.878  0.3647 -0.1170  0.4451
29127ION     NA48661   4.725   6.069  11.234 -0.4360 -0.2037  0.1010
29128ION     NA48662   8.520   4.889   5.657 -0.2505 -0.0631 -0.0954
29129ION     NA48663  15.134   5.509   0.468 -0.0332  0.2982  0.0967
29130ION     NA48664   1.062   9.479   5.696  0.2648  0.1668 -0.0398
29131ION     NA48665  12.011   4.395   5.930 -0.2310  0.2287 -0.2130
29132ION     NA48666   5.404   2.858  11.857  0.0454 -0.1938 -0.1311
29133ION     NA48667  15.954  14.385  14.615  0.1840  0.1039 -0.1415
29134ION     NA48668  16.349   3.542   6.075 -0.1356  0.0210 -0.1095
29135ION     NA48669  15.079  10.516  13.361  0.1397 -0.0234 -0.2222
29136ION     NA48670   0.185  10.080  11.318  0.1169  0.2763  0.1487
29137ION     NA48671  15.302  11.718   5.744  0.0543 -0.1078  0.1255
29138ION     NA48672  17.165  13.048  12.102  0.2250 -0.3264  0.0892
29139ION     NA48673  17.244   4.563   6.146 -0.0437  0.0446 -0.2126
29140ION     NA48674   3.385   1.647   5.848  0.0187 -0.0394  0.0543
29141ION     NA48675   0.569   2.921  11.661 -0.1720 -0.1947  0.0837
29142ION     NA48676  11.237  11.006   0.045 -0.2693 -0.2075  0.1450
29143ION     NA48677   2.836   6.823  11.218 -0.1166 -0.0537  0.0908
29144ION     NA48678   3.825  11.122   0.534  0.0278 -0.0029  0.1000
29145ION     NA48679  13.558   8.141  10.977 -0.0117 -0.1023 -0.0157
29146ION     NA48680  11.105   9.224  11.048 -0.0043 -0.0028  0.1691
29147ION     NA48681  10.579   3.549  11.373  0.3493  0.0750 -0.3783
29148ION     NA48682   9.750   5.462   3.518 -0.1223  0.0338 -0.4617
29149ION     NA48683   0.486   5.526   5.893 -0.2600  0.0449 -0.0648
29150ION     NA48684  13.409  12.355   6.059  0.1697 -0.3985 -0.2742
29151ION     NA48685   2.788   8.701  14.166  0.4121 -0.0530 -0.2352
29152ION     NA48686  16.902  15.715  11.021  0.2488  0.0127 -0.0871
29153ION     NA48687   5.219   4.337   5.840  0.0453 -0.1126 -0.0501
29154ION     NA48688   4.035  10.418   5.712  0.0276 -0.0769 -0.3043
29155ION     NA48689  13.945  13.154  11.474 -0.4484  0.0800  0.5045
29156ION     NA48690   6.822  17.532  16.968  0.5918 -0.3374 -0.0071
29157ION     NA48691  13.381  14.635   2.276  0.2437  0.1117 -0.2305
29158ION     NA48692   4.019  17.629   5.784  0.1834 -0.3047 -0.1667
29159ION     NA48693  16.702  10.373  11.211 -0.1462 -0.0080 -0.2822
29160ION     NA48694   6.720   5.017   4.787  0.0718 -0.0245  0.1202
29161ION     NA48695   0.715   3.994  11.815  0.1286  0.0139 -0.0721
29162ION     NA48696   1.176   6.034   5.406 -0.0519 -0.0155  0.1439
29163ION     NA48697   6.943  14.032   5.777  0.1626 -0.1100  0.1002
29164ION     NA48698  12.692  16.366  11.459  0.0387  0.1397 -0.1110
29165ION     NA48699   4.714  15.944  11.411 -0.1860 -0.0220  0.3826
29166ION     NA48700   0.066  11.822  13.335 -0.1240  0.1392 -0.1777
29167ION     NA48701  12.875  10.744   1.745 -0.0042 -0.2071  0.0519
29168ION     NA48702  16.547  11.834  15.390 -0.2173 -0.1948 -0.0858
29169ION     NA48703   9.347   9.370   5.965  0.0818 -0.1926 -0.2721
29170ION     NA48704  16.394   4.486  11.397 -0.0755 -0.1691 -0.1323
29171ION     NA48705  17.018  13.531   5.507  0.1794 -0.1598  0.0183
29172ION     NA48706  12.921  11.476   6.122 -0.2222 -0.0887 -0.0714
29173ION     NA48707  14.347   1.439   6.014  0.3891  0.1190  0.2560
29174ION     NA48708   7.222   6.930   5.942 -0.0866  0.0868 -0.0772
29175ION     NA48709   4.775  16.765   0.324 -0.0820  0.0753 -0.0753
29176ION     NA48710  12.681   8.845   5.755 -0.2725 -0.2958  0.2258
29177ION     NA48711  15.518  12.897  13.716  0.0991  0.0938 -0.1779
29178ION     NA48712   8.402  11.571   5.773 -0.2849 -0.2104 -0.0416
29179ION     NA48713   5.261  16.587   4.685 -0.0046 -0.1860  0.1787
29180ION     NA48714   8.982  10.195  16.149 -0.1643 -0.0747  0.0992
29181ION     NA48715   7.991   6.744   5.891 -0.0744 -0.4630 -0.0622
29182ION     NA48716   1.033  16.891   1.367 -0.1852 -0.2580  0.4770
29183ION     NA48717   4.863   1.701   5.578  0.0151  0.2792 -0.1246
29184ION     NA48718   9.608  15.278   6.038 -0.1570 -0.3284 -0.2155
29185ION     NA48719   2.015   0.614  11.857 -0.3060 -0.3118  0.0125
29186ION     NA48720   3.485  13.311   5.619 -0.0163  0.1248  0.1905
29187ION     NA48721   8.329   5.331   3.693  0.0838 -0.0202  0.0295
29188ION     NA48722   3.552  11.101  11.191  0.1377  0.1455  0.0612
29189ION     NA48723   0.911   2.161  11.483  0.0550 -0.2662  0.0885
29190ION     NA48724  10.692   6.410  10.858 -0.0127 -0.1457 -0.0352
29191ION     NA48725   5.628   8.535   5.844  0.2663  0.1392 -0.3562
29192ION     NA48726   8.053  11.043  11.612  0.0952 -0.2548  0.0058
29193ION     NA48727   4.555   8.519  14.864 -0.0459  0.1350 -0.1257
29194ION     NA48728   5.166  13.173   5.696  0.0088  0.2109  0.0328
29195ION     NA48729  15.454   0.749  11.610  0.1340  0.0349 -0.0652
29196ION     NA48730   0.375  15.259  10.915  0.0131 -0.2033 -0.0392
29197ION     NA48731  17.185   6.009  11.320 -0.2095 -0.0231 -0.0270
29198ION     NA48732  13.412   4.554   4.009  0.0640  0.2635  0.2247
29199ION     NA48733   5.951   6.493   6.063 -0.0342 -0.1474 -0.1733
29200ION     NA48734   9.454   1.662  11.197 -0.1732 -0.0451 -0.1712
29201ION     NA48735   5.998   3.756  11.373  0.2696  0.0862  0.0514
29202ION     NA48736   6.176  12.814  12.241 -0.0327  0.1100  0.2694
29203ION     NA48737  13.354   3.771  13.699 -0.0939 -0.0875  0.1455
29204ION     NA48738   7.063  17.254  14.271 -0.0793  0.2768  0.0785
29205ION     NA48739   0.294  11.924   5.658 -0.2875 -0.1143  0.3476
29206ION     NA48740   6.938  11.893   1.935  0.0304  0.1006 -0.2635
29207ION     NA48741   7.509   4.974  11.236 -0.0760  0.0847  0.0351
29208ION     NA48742   7.845   1.387  11.775  0.0064  0.0094  0.0276
29209ION     NA48743  11.041  15.000   6.000 -0.0839 -0.4007  0.1022
29210ION     NA48744  13.749   9.422   1.235  0.0556 -0.3766  0.0512
29211ION     NA48745   8.014  11.871  11.344 -0.1062  0.0654  0.1426
29212ION     NA48746   4.822  17.454   5.908  0.2028 -0.3631 -0.0501
29213ION     NA48747  12.659   8.913   4.447  0.0015 -0.0028  0.1617
29214ION     NA48748  14.098  10.804   5.419 -0.0288  0.0419  0.1190
29215ION     NA48749   2.459   6.876  13.086 -0.0471 -0.2204  0.0924
29216ION     NA48750   5.654   8.091  11.167  0.0046  0.1623 -0.2405
29217ION     NA48751   0.369   4.892  11.524  0.0700 -0.0953 -0.0040
29218ION     NA48752   6.102   5.970  11.148 -0.0173  0.3085  0.1544
29219ION     NA48753  15.802   2.666   3.028  0.0872 -0.1864  0.1098
29220ION     NA48754   7.899  11.413  11.203  0.1592 -0.0764 -0.0891
29221ION     NA48755   4.251   2.888  11.430  0.0645 -0.0125 -0.0172
29222ION     NA48756  10.935   7.507   4.312  0.1038  0.0263 -0.1444
29223ION     NA48757   9.751  11.156   5.818 -0.1423 -0.0349 -0.1280
29224ION     NA48758   4.910   5.149  11.298  0.0713 -0.3154  0.0694
29225ION     NA48759  14.627   9.641   5.248  0.0857 -0.0470 -0.3875
29226ION     NA48760  17.160  13.610  13.270 -0.3378  0.1873  0.0517
29227ION     NA48761  14.554   2.116  11.690  0.0532 -0.1029 -0.3414
29228ION     NA48762   1.849   2.587   6.048 -0.0237 -0.0894 -0.1051
29229ION     NA48763  12.548  16.872   6.122  0.0864 -0.0670 -0.0029
29230ION     NA48764   6.881   6.445  11.144 -0.0394  0.0752 -0.1439
29231ION     NA48765   0.309  14.562  13.724  0.5030  0.0452  0.0628
29232ION     NA48766   2.653   8.813   1.636  0.1396 -0.0938  0.1038
29233ION     NA48767  17.357  14.840  11.010 -0.0974 -0.2179 -0.1614
29234ION     NA48768  11.743   6.928  11.778 -0.1074 -0.0749  0.0682
29235ION     NA48769   7.292  14.802  15.478  0.1981 -0.3256 -0.0343
29236ION     NA48770   3.526  12.460   5.817 -0.2790 -0.0013 -0.1670
29237ION     NA48771   1.697  15.685   5.613  0.0942  0.0531 -0.0450
29238ION     NA48772  15.175  10.000  14.926 -0.1109 -0.2047 -0.2638
29239ION     NA48773   2.306  15.774  11.012 -0.1351  0.0885 -0.2890
29240ION     NA48774  16.485  17.421  11.484  0.1369 -0.2002 -0.0400
29241ION     NA48775   6.780  16.053  11.232 -0.2143 -0.1908  0.0252
29242ION     NA48776   5.176  17.641  11.427 -0.3377  0.0529 -0.0641
29243ION     NA48777  12.591   5.921   5.681 -0.1773 -0.2203  0.2488
29244ION     NA48778   3.992  15.641  11.162  0.0944 -0.0421  0.2792
29245ION     NA48779   6.634   5.311   5.890  0.1306  0.3120  0.1643
29246ION     NA48780   9.641   5.245  13.925  0.1395  0.1368  0.3277
29247ION     NA48781   2.263  13.729  11.257  0.1784 -0.3035 -0.0989
29248ION     NA48782  10.363  11.791   0.309 -0.3821 -0.2070  0.1988
29249ION     NA48783   6.788  11.181   1.715 -0.0904 -0.0775 -0.0727
29250ION     NA48784   9.877   9.699  12.884 -0.0178  0.1688  0.1145
29251ION     NA48785   5.720   1.123   0.005 -0.0283 -0.1230  0.2081
29252ION     NA48786  15.827  12.584   5.535 -0.1346 -0.0927  0.1556
29253ION     NA48787   5.318   1.177  11.448  0.0396  0.0251  0.0334
29254ION     NA48788   2.546  11.300  11.045  0.1738  0.0041 -0.1405
29255ION     NA48789  15.219   4.554   6.113  0.2371 -0.1587 -0.1646
29256ION     NA48790  17.619  12.663  11.280 -0.1580  0.1426  0.1309
29257ION     NA48791   5.046  16.112  11.063  0.3654  0.1977 -0.0027
29258ION     NA48792  13.926  14.414  16.705  0.1337 -0.0202 -0.0072
29259ION     NA48793   2.226   5.616   6.042 -0.0307  0.1195  0.1663
29260ION     NA48794  16.833   8.760  13.078 -0.0606  0.3063 -0.1208
29261ION     NA48795   6.122   9.498   5.987 -0.0016 -0.1507  0.0426
29262ION     NA48796  12.106   0.927   5.502 -0.3209  0.0557  0.1942
29263ION     NA48797   8.194   0.074  11.256 -0.1344 -0.0291  0.1569
29264ION     NA48798   6.574   1.784   6.034  0.1951 -0.1237 -0.0960
29265ION     NA48799  12.659   4.771   3.648  0.2507  0.1946 -0.1408
29266ION     NA48800   8.394   2.967   5.952 -0.0147 -0.0077 -0.0012
29267ION     NA48801  14.391  17.665  11.496 -0.0213 -0.1417 -0.0655
29268ION     NA48802   5.691   1.980   5.759  0.2499 -0.1828 -0.2098
29269ION     NA48803  14.212  10.963  16.958  0.0111  0.0450  0.0422
29270ION     NA48804  13.932  16.903  11.967  0.2256  0.0590  0.0318
29271ION     NA48805  12.538   9.928  11.419  0.1056  0.2035 -0.1142
29272ION     NA48806   8.174   3.950   5.610 -0.0113  0.0067 -0.2068
29273ION     NA48807   3.520   2.490  11.755 -0.1970  0.2213  0.1219
29274ION     NA48808  11.556   2.987  11.636 -0.3236 -0.2555 -0.0152
29275ION     NA48809  17.212   1.483   5.732  0.0324  0.1953 -0.0943
29276ION     NA48810   6.212  11.886  11.274 -0.0695  0.0272 -0.0717
29277ION     NA48811   4.227   7.332  11.358 -0.1565  0.1322 -0.0546
29278ION     NA48812   7.357   1.224   6.046  0.0316 -0.0548 -0.2399
29279ION     NA48813  12.901   6.716  11.126  0.1240  0.1739  0.1710
29280ION     NA48814   4.915  10.355  11.286  0.0658 -0.1955 -0.2176
29281ION     NA48815  15.812   8.848  11.135  0.5535 -0.1706 -0.0936
29282ION     NA48816   3.582   0.730   5.900 -0.0747  0.2230  0.0809
29283ION     NA48817  10.765  17.635  15.656  0.2012  0.0280 -0.0986
29284ION     NA48818   6.885  15.935   3.237  0.1088 -0.0353  0.0239
29285ION     NA48819   3.834   7.754   5.741 -0.2060 -0.3074 -0.1639
29286ION     NA48820   2.784   6.097  14.543  0.2992 -0.1653  0.2189
29287ION     NA48821  12.894   5.022  11.124  0.3068  0.2114  0.1786
29288ION     NA48822  13.996   8.903  14.652  0.1785  0.2601 -0.2508
29289ION     NA48823  17.113   7.891   5.753 -0.3410 -0.2917 -0.1776
29290ION     NA48824  11.480  12.922   1.482  0.0074  0.1550 -0.0401
29291ION     NA48825  10.928  16.744  11.507 -0.1122 -0.0092  0.2705
29292ION     NA48826  17.069  12.095   0.181 -0.0977 -0.1281 -0.4642
29293ION     NA48827   5.410  15.020   0.212  0.0604  0.1505  0.1506
29294ION     NA48828   9.469  14.869  11.382 -0.3002  0.0220 -0.0282
29295ION     NA48829   9.757  17.124   5.746 -0.0867 -0.1959  0.2389
29296ION     NA48830   6.274  10.191   5.959  0.2616 -0.4642 -0.0344
29297ION     NA48831  15.970   6.804  11.246 -0.0108 -0.2127  0.0239
29298ION     NA48832   4.064  13.782   5.524 -0.1344 -0.1763 -0.2830
29299ION     NA48833  11.118   9.509   5.681  0.0898 -0.0078  0.0273
29300ION     NA48834   2.653  13.676   5.496  0.1019 -0.0587 -0.4369
29301ION     NA48835  11.735   0.851  14.191  0.0838 -0.0036  0.2037
29302ION     NA48836  16.858   1.982   5.407 -0.3101 -0.1217  0.0088
29303ION     NA48837   3.520   2.440  11.200  0.0423  0.0060 -0.2799
29304ION     NA48838   3.939   2.831  16.304 -0.2036 -0.2265  0.2604
29305ION     NA48839  15.200  12.379  11.174 -0.1466  0.0485  0.1953
29306ION     NA48840   1.229  11.945   5.472 -0.1193  0.1827  0.4001
29307ION     NA48841  16.594  13.348  11.286  0.1268 -0.0277  0.1702
29308ION     NA48842  10.594  10.122  11.882 -0.0940  0.1019 -0.0428
29309ION     NA48843   1.908   1.796  11.415 -0.0932  0.3870 -0.2500
29310ION     NA48844  15.933   7.414  13.503 -0.2113 -0.0944 -0.1634
29311ION     NA48845  12.125  13.072  16.518  0.2598  0.0388 -0.0448
29312ION     NA48846  11.247   7.777   5.751  0.0406 -0.1569  0.1270
29313ION     NA48847   0.041   3.514   2.782 -0.3395 -0.0086  0.2575
29314ION     NA48848   6.420   7.830   0.011 -0.2419 -0.0518  0.2185
29315ION     NA48849  10.241   4.653  11.416 -0.3674 -0.5544 -0.1254
29316ION     NA48850   0.124  16.350   4.611 -0.3183  0.0930 -0.2821
29317ION     NA48851  11.201   5.963   5.652  0.0444 -0.3303 -0.1368
29318ION     NA48852   7.796  12.313   5.993 -0.0540  0.1484  0.0678
29319ION     NA48853  16.003   4.904  13.264 -0.2703  0.2759  0.0489
29320ION     NA48854  11.831   9.915  12.447 -0.1818 -0.0759 -0.0001
29321ION     NA48855   9.018   6.578   5.763  0.0875  0.0065 -0.1833
29322ION     NA48856  16.119   8.091   5.723 -0.0430  0.0158  0.2741
29323ION     NA48857   9.138   1.807   5.794 -0.0963 -0.3352  0.3671
29324ION     NA48858  11.534   1.685   5.834  0.1480 -0.3437 -0.2956
29325ION     NA48859   1.053   8.142  11.404  0.1635 -0.2922 -0.0882
29326ION     NA48860  12.531  11.164   5.947  0.2465 -0.0549  0.1435
29327ION     NA48861   4.723   5.587   5.953  0.1815 -0.3116 -0.0747
29328ION     NA48862  12.619  12.543  11.138  0.3301  0.0264 -0.2263
29329ION     NA48863   5.608  11.137   4.527  0.0183 -0.0173  0.0489
29330ION     NA48864  16.628  13.600  16.815 -0.3151  0.0576  0.1675
29331ION     NA48865   0.734  17.514  11.395 -0.1405  0.1669  0.1894
29332ION     NA48866   2.509   8.366   5.871  0.1036  0.0172  0.0441
29333ION     NA48867  11.208  15.828  11.569  0.2693 -0.0329 -0.1890
29334ION     NA48868  10.390  11.586  13.546  0.1600 -0.0692  0.3033
29335ION     NA48869   1.957  16.525  12.956  0.0035 -0.2194  0.2521
29336ION     NA48870  17.167   1.009   4.009  0.0448  0.0303  0.3633
29337ION     NA48871   2.750   2.549  12.509 -0.0040 -0.1254 -0.1084
29338ION     NA48872  17.128   0.406  11.452  0.1142 -0.0227 -0.3894
29339ION     NA48873   3.231   2.564   6.113  0.0308  0.0269  0.2435
29340ION     NA48874   3.204   2.047  13.778  0.0668  0.3927  0.0483
29341ION     NA48875  14.897   5.342   5.988  0.2593  0.2445  0.0287
29342ION     NA48876  17.592   7.439  11.499 -0.2053 -0.2043  0.0651
29343ION     NA48877  14.273   3.850  15.681  0.1557  0.3105  0.0806
29344ION     NA48878  12.411  17.125   5.547  0.2317 -0.2274  0.1058
29345ION     NA48879   3.204  10.644   5.809  0.0808 -0.0790 -0.3747
29346ION     NA48880  11.003   8.619   5.837  0.3231 -0.1546  0.3449
29347ION     NA48881  14.918  13.702   5.255 -0.3101  0.0247  0.1634
29348ION     NA48882   6.031   5.243  13.794  0.0655  0.0396  0.4083
29349ION     NA48883  15.174   7.845   5.686  0.0385 -0.1065  0.0639
29350ION     NA48884   1.624   7.564  14.726  0.0954 -0.1792  0.1451
29351ION     NA48885   6.670   6.065   6.078  0.3342 -0.1387  0.1204
29352ION     NA48886   9.308  14.512   2.706  0.2303 -0.3496 -0.0636
29353ION     NA48887   8.946   4.156   5.734  0.1265  0.1570 -0.1701
29354ION     NA48888   1.724  10.515  11.052  0.0318  0.3309 -0.0115
29355ION     NA48889  15.172   7.301  12.883 -0.2231 -0.1405 -0.2580
29356ION     NA48890   3.160  11.638   5.737 -0.0703 -0.0602 -0.0021
29357ION     NA48891  16.577  16.513  11.363  0.2184 -0.1091 -0.2024
29358ION     NA48892   1.529  16.409  11.450 -0.1915  0.3579 -0.1256
29359ION     NA48893  15.224  10.957  11.188 -0.0162  0.1040 -0.0960
29360ION     NA48894   4.065   4.605  16.917  0.0069 -0.1449  0.3482
29361ION     NA48895   6.349   1.013   5.945  0.0078  0.2348 -0.3762
29362ION     NA48896  17.305  17.203   1.402 -0.0573 -0.2707  0.0941
29363ION     NA48897  12.052  11.581   6.150  0.0938 -0.0314  0.3269
29364ION     NA48898  10.347  12.875   5.813 -0.2076 -0.1491  0.0981
29365ION     NA48899  14.456  14.808   1.447 -0.0789 -0.0717 -0.2157
29366ION     NA48900  13.951   4.919   6.040 -0.0319 -0.1800 -0.1984
29367ION     NA48901  17.229   9.428   5.576 -0.1552 -0.0466  0.3438
29368ION     NA48902  16.644  12.331   5.797 -0.1562  0.2025  0.1533
29369ION     NA48903  12.096  15.777  13.113 -0.0049 -0.2453 -0.0934
29370ION     NA48904  17.141   0.174   5.981 -0.1767 -0.0468  0.3545
29371ION     NA48905   9.453   8.536   5.878  0.3006  0.0616  0.3138
29372ION     NA48906   8.692  13.890  16.171  0.2329  0.0386 -0.0310
29373ION     NA48907  11.220  12.401   5.975  0.0882  0.1719  0.1214
29374ION     NA48908   5.528  15.568   3.372 -0.3745 -0.2903  0.3919
29375ION     NA48909  16.805   8.373  11.156 -0.0117 -0.1944  0.1793
29376ION     NA48910   7.345   5.999   5.552  0.0185  0.1360  0.0358
29377ION     NA48911  17.480  16.983  11.329 -0.0819 -0.0516 -0.2323
29378ION     NA48912  11.666   7.919  14.008 -0.2442  0.0728 -0.0801
29379ION     NA48913   0.390   7.542   4.854  0.0699  0.0024 -0.4009
29380ION     NA48914   9.689   5.984   5.678  0.0945  0.0351 -0.3543
29381ION     NA48915   6.245   7.481  11.202 -0.0625  0.1057 -0.1813
29382ION     NA48916  11.658   2.357   4.493 -0.0517  0.3041 -0.1969
29383ION     NA48917  16.538   3.973   6.075  0.0830  0.0968 -0.2581
29384ION     NA48918  14.778   3.809   5.946  0.1373 -0.2811 -0.2269
29385ION     NA48919   4.715   9.485  12.089  0.0589 -0.0182  0.2184
29386ION     NA48920   2.792   1.199   0.462  0.0668 -0.0546  0.1473
29387ION     NA48921  11.558   8.544  11.079  0.3185 -0.1328  0.0783
29388ION     NA48922   1.769   4.912   5.847 -0.0765  0.1861 -0.1737
29389ION     NA48923  17.324  13.610  16.193 -0.2461 -0.0997 -0.2197
29390ION     NA48924   7.273   6.049   6.021  0.1586 -0.1370  0.1836
29391ION     NA48925   5.246  12.517  11.198 -0.0468 -0.1496 -0.0005
29392ION     NA48926   2.387   5.406   2.526 -0.0236  0.1408  0.1868
29393ION     NA48927   0.242   8.441   5.861 -0.0729 -0.2169 -0.4253
29394ION     NA48928   6.083  16.407   5.931  0.2618  0.2025  0.0038
29395ION     NA48929  16.883  14.317  14.413  0.1719 -0.1427 -0.1336
29396ION     NA48930   1.149  14.062  13.217  0.1392  0.0849  0.1369
29397ION     NA48931   8.901   2.496  11.308 -0.1596  0.1391  0.2404
29398ION     NA48932  14.437  12.384   6.088 -0.0650  0.1985  0.1813
29399ION     NA48933  11.440  12.002   3.329 -0.1063  0.0781 -0.1584
29400ION     NA48934  10.239  13.892  13.851 -0.2681  0.3618  0.1165
29401ION     NA48935   9.489   5.026   0.620  0.0666  0.1355 -0.2894
29402ION     NA48936   2.491   1.881   6.061  0.0093  0.0372  0.1025
29403ION     NA48937   5.634  11.325   5.860  0.1086  0.0153  0.1085
29404ION     NA48938   4.175  14.591   5.609 -0.1404  0.0225 -0.1501
29405ION     NA48939   5.403  14.039  11.604 -0.0366  0.2054  0.2445
29406ION     NA48940  10.715  11.492   1.194 -0.2259 -0.0383 -0.1844
29407ION     NA48941  13.053  15.344   6.158 -0.4376 -0.0670  0.0759
29408ION     NA48942   3.224   5.715  11.561  0.0779 -0.3885  0.0343
29409ION     NA48943  14.767   6.939   0.753 -0.3918  0.0342 -0.0095
29410ION     NA48944   9.907   8.302  13.530  0.1856  0.1337  0.1276
29411ION     NA48945   5.647   9.479  12.482  0.0965  0.1376 -0.3133
29412ION     NA48946   8.600  12.387  14.513  0.3588  0.2269 -0.1104
29413ION     NA48947  10.289   2.221  11.192  0.0712  0.0244 -0.0304
29414ION     NA48948  15.132   5.568  11.400  0.3272  0.3365  0.0114
29415ION     NA48949  11.953  10.753  11.372 -0.1039  0.0237 -0.1178
29416ION     NA48950  15.678  12.654  16.642  0.3579 -0.0132 -0.2699
29417ION     NA48951  15.419   2.313  11.597 -0.1387  0.1968 -0.0410
29418ION     NA48952  12.954   9.317  11.207 -0.0241  0.1602 -0.1642
29419ION     NA48953  12.649  13.316   3.102  0.2057 -0.0511 -0.0122
29420ION     NA48954   9.157   1.432  14.672 -0.1929 -0.0673 -0.0570
29421ION     NA48955   4.974  12.271   5.745  0.1549  0.0213  0.4847
29422ION     NA48956   9.760   6.954   5.688 -0.0532  0.3101 -0.1506
29423ION     NA48957  13.482   5.824   5.858  0.1137  0.0466 -0.2965
29424ION     NA48958  11.283  11.612  11.334  0.0039  0.1375  0.2385
29425ION     NA48959   3.184  11.943  11.275  0.2153  0.1678 -0.1787
29426ION     NA48960   8.715   0.534   5.760  0.1798 -0.3256 -0.2017
29427ION     NA48961  14.038  15.053  12.877  0.0669 -0.0299 -0.0584
29428ION     NA48962  14.800  12.896   5.982  0.0179  0.1797  0.0952
29429ION     NA48963  17.113   9.840  11.247 -0.0299 -0.1179  0.0488
29430ION     NA48964   4.361   8.658  11.177 -0.0960 -0.2923  0.0367
29431ION     NA48965  12.744   2.075  11.666 -0.2292  0.2447  0.1430
29432ION     NA48966  12.356  13.536   0.861  0.0550 -0.2876 -0.0616
29433ION     NA48967   6.633   2.024  11.225 -0.5402  0.1626 -0.1527
29434ION     NA48968  11.883  13.594   5.727  0.0164  0.1745  0.1145
29435ION     NA48969   2.984  10.134   5.920  0.1967 -0.0948  0.0288
29436ION     NA48970   0.225  10.667  16.127  0.0419 -0.0017 -0.4199
29437ION     NA48971   3.861  13.891   3.920  0.0111  0.1285  0.2964
29438ION     NA48972   0.478   1.239   6.054  0.0471  0.0778 -0.0233
29439ION     NA48973   1.729  12.220   5.316  0.2843 -0.2890  0.2088
29440ION     NA48974  11.518   9.679   5.986 -0.0501  0.2343  0.0987
29441ION     NA48975   8.447   9.511  11.509 -0.1792  0.0894  0.0782
29442ION     NA48976   0.945  11.227   1.750 -0.1161 -0.0990  0.0440
29443ION     NA48977  11.473   5.121  16.047 -0.1283  0.1426 -0.2727
29444ION     NA48978   3.774   9.331   5.769 -0.1603  0.1461  0.0509
29445ION     NA48979  15.768  12.996  11.244 -0.1258  0.2913 -0.1198
29446ION     NA48980   6.214   8.348  15.888 -0.2014  0.1681 -0.0504
29447ION     NA48981  13.002  14.485  11.196 -0.2235  0.2846 -0.4172
29448ION     NA48982  14.374   9.226  11.283 -0.2379 -0.0762  0.1906
29449ION     NA48983  14.569   7.061  11.300 -0.1133  0.3231  0.0201
29450ION     NA48984   3.361  16.948  14.373 -0.3877  0.1134  0.3539
29451ION     NA48985   9.519   0.682   2.747 -0.2712  0.0675 -0.1238
29452ION     NA48986   5.057   6.527   6.102  0.1566  0.0465 -0.3231
29453ION     NA48987   5.396   2.029  11.325  0.0843  0.3404 -0.0556
29454ION     NA48988   2.378  12.194  11.224 -0.5061 -0.1529  0.1749
29455ION     NA48989  16.695  15.887   3.888  0.0081 -0.1848 -0.2143
29456ION     NA48990   1.625   3.403   6.132  0.0196 -0.0085 -0.0256
29457ION     NA48991   1.583   8.488   0.426  0.0676 -0.0469  0.1450
29458ION     NA48992  11.972  10.594   5.960  0.4931  0.2824 -0.3433
29459ION     NA48993  17.137   6.909   5.630 -0.0188 -0.2427 -0.2920
29460ION     NA48994   5.509  14.082   5.331 -0.4155  0.0203  0.1151
29461ION     NA48995   4.718   7.922   5.979 -0.1666 -0.2395  0.0422
29462ION     NA48996   2.694   6.343   3.350 -0.3485  0.0247 -0.0614
29463ION     NA48997   6.496  16.471  15.155 -0.2355  0.0503  0.1586
29464ION     NA48998   4.344  13.002  11.184  0.0247  0.1940 -0.0350
29465ION     NA48999   5.292   7.397   5.958  0.1953 -0.1656 -0.0358
29466ION     NA49000   9.196  14.288   5.827  0.1883 -0.0215  0.0889
29467ION     NA49001   9.981   2.448  11.545  0.0888  0.1624  0.1881
29468ION     NA49002   3.339   0.511  13.145  0.1601  0.5056 -0.0199
29469ION     NA49003  15.990  11.685  11.229  0.3897 -0.2963  0.2100
29470ION     NA49004  12.375   5.888  11.159 -0.0533 -0.0410 -0.0229
29471ION     NA49005  14.706   7.912  16.095 -0.0941  0.0847  0.1226
29472ION     NA49006   7.615   3.999  11.548  0.1225  0.3245  0.1562
29473ION     NA49007   4.872  10.373  13.900  0.4458  0.0387  0.0245
29474ION     NA49008   9.502  15.895  11.248  0.2515 -0.1346  0.2452
29475ION     NA49009  15.831   1.314   5.835  0.3175  0.3035 -0.0009
29476ION     NA49010  15.732  10.282  11.390  0.4259 -0.1641  0.1492
29477ION     NA49011   2.962  16.429  11.132  0.0634  0.0533 -0.2074
29478ION     NA49012   8.612  15.173  13.410  0.2041 -0.0477  0.0433
29479ION     NA49013   3.504   9.980  11.878  0.1115  0.1371  0.2601
29480ION     NA49014   2.733   4.980  11.224  0.2016  0.2635 -0.1192
29481ION     NA49015  13.147   3.793   3.029 -0.0795  0.0597 -0.1814
29482ION     NA49016   3.674   5.900   5.832 -0.1894  0.1304  0.3852
29483ION     NA49017   6.202  13.398   2.142 -0.0010 -0.0465 -0.0388
29484ION     NA49018   2.591  15.432   5.644  0.0678 -0.2415 -0.1229
29485ION     NA49019   8.332   8.341  11.371 -0.3173  0.0363 -0.1075
29486ION     NA49020  13.555   1.749  11.584  0.1967  0.2525 -0.2730
29487ION     NA49021  14.052  14.074   5.955  0.0680  0.1290 -0.0482
29488ION     NA49022   5.685  10.430  11.028  0.1828  0.3709 -0.0642
29489ION     NA49023   8.684  12.740   2.599  0.0927  0.1392  0.0597
29490ION     NA49024   8.825  11.657  11.289 -0.0239  0.0495 -0.2196
29491ION     NA49025  14.720  16.224   6.156  0.0077 -0.0335  0.1660
29492ION     NA49026   6.133   1.353  11.323  0.0844  0.0670  0.2703
29493ION     NA49027   8.799   1.176  13.877  0.0879  0.0592 -0.1102
29494ION     NA49028   8.779   3.320   5.783 -0.0243  0.1562  0.0911
29495ION     NA49029   5.263   5.484  11.445 -0.0225 -0.0228  0.1759
29496ION     NA49030   5.817  11.742   3.630  0.0255 -0.0029  0.0475
29497ION     NA49031  16.072  11.190  11.034  0.0886 -0.0088  0.1884
29498ION     NA49032  16.243   6.573   5.946  0.1268 -0.3002  0.0673
29499ION     NA49033  11.293   0.957   1.704 -0.0281  0.3021  0.0568
29500ION     NA49034   3.981   8.632  11.533 -0.1921  0.0998  0.1538
29501ION     NA49035   3.454   1.067  14.918  0.2432 -0.0979 -0.0131
29502ION     NA49036  10.624  15.375  15.048 -0.1648  0.0134 -0.0717
29503ION     NA49037   2.160  17.274   5.811 -0.0933 -0.2303 -0.3323
29504ION     NA49038  13.770   7.082  11.218 -0.3285  0.0911 -0.4448
29505ION     NA49039  11.385   5.005   5.943 -0.0188 -0.0709  0.1214
29506ION     NA49040   4.663   8.030  11.275 -0.0370  0.1207 -0.1029
29507ION     NA49041   7.825  11.848   2.312  0.1689 -0.0666 -0.3261
29508ION     NA49042  12.007   0.388  11.558 -0.4592 -0.2899 -0.1154
29509ION     NA49043   5.876  14.024  10.880 -0.0199 -0.2636  0.0568
29510ION     NA49044   6.103   0.041   6.009  0.1028  0.0279 -0.0136
29511ION     NA49045   5.737   6.533   1.753  0.0744 -0.2636  0.1667
29512ION     NA49046  10.638  11.180   5.990  0.0338  0.1128 -0.0981
29513ION     NA49047   3.606  12.800   4.440  0.1820 -0.0075  0.0429
29514ION     NA49048  16.756   3.591  11.468 -0.1100 -0.0767  0.1906
29515ION     NA49049   3.819  10.930   2.717  0.0882 -0.0581  0.1209
29516ION     NA49050   6.366  13.885   5.523  0.0097 -0.4115  0.1213
29517ION     NA49051   8.521   2.122  11.462 -0.1035 -0.0507  0.2168
29518ION     NA49052  12.141  14.833  11.329 -0.0138 -0.1386  0.1601
29519ION     NA49053  13.193   8.150   5.768 -0.1627 -0.0691 -0.1448
29520ION     NA49054   5.614  11.764  11.242  0.2773 -0.0339 -0.1855
29521ION     NA49055   0.547   4.168  13.595  0.3344 -0.0357 -0.2579
29522ION     NA49056  16.677   3.121   3.502 -0.0627 -0.0210 -0.0509
29523ION     NA49057   1.217   4.210   5.884 -0.0474 -0.0069 -0.2830
29524ION     NA49058   1.974   3.364  11.803 -0.1848 -0.0835  0.1607
29525ION     NA49059   2.840   9.215   5.807  0.1818 -0.2838  0.2685
29526ION     NA49060   1.476  13.409  10.889 -0.1647 -0.0191 -0.3171
29527ION     NA49061   1.248  10.911   0.321 -0.0987  0.4747  0.0415
29528ION     NA49062   0.832  11.043   5.609  0.1261  0.2639 -0.2923
29529ION     NA49063  14.756  11.806   3.610  0.0161  0.1186  0.0471
29530ION     NA49064  11.995  16.494   4.901  0.1296 -0.0673 -0.0912
29531ION     NA49065  13.853  11.009  11.206  0.0339 -0.0120 -0.2830
29532ION     NA49066  12.105   1.564  11.693 -0.0577 -0.0832 -0.0525
29533ION     NA49067   9.852  16.624  11.479 -0.1906  0.1521 -0.1932
29534ION     NA49068   1.105   0.626  11.489  0.0882 -0.2534  0.0109
29535ION     NA49069  14.498  16.356  15.321 -0.4398  0.0152  0.2695
29536ION     NA49070  14.489   8.088   5.902 -0.2192 -0.1029 -0.1852
29537ION     NA49071   8.353  17.473   5.686  0.2510  0.1768  0.0028
29538ION     NA49072  10.369  15.312   5.859  0.4351 -0.0257  0.0807
29539ION     NA49073   8.131  15.238   3.214  0.0172 -0.1924  0.2331
29540ION     NA49074  16.791   8.768   5.894 -0.4386  0.0888 -0.1794
29541ION     NA49075   1.571   3.606  11.538 -0.0053 -0.4607  0.1724
29542ION     NA49076   7.154   9.602  11.320 -0.0913 -0.1511 -0.2308
29543ION     NA49077  17.553   0.436  17.060 -0.2223  0.0887  0.2606
29544ION     NA49078   2.805  13.547  11.407  0.0522 -0.1334 -0.2457
29545ION     NA49079   6.542  17.089   5.720 -0.0207  0.2495 -0.1658
29546ION     NA49080  16.634   4.926   6.182  0.3325  0.0002  0.2860
29547ION     NA49081  14.392   1.090  11.614 -0.3179  0.0436 -0.0376
29548ION     NA49082   9.941   7.353  11.323  0.0309  0.1298  0.1031
29549ION     NA49083   8.042   7.328  15.352 -0.0813  0.0687  0.2104
29550ION     NA49084   5.904  17.359  11.215  0.0218 -0.1597  0.0656
29551ION     NA49085  10.535  15.287  12.620  0.0337  0.0454 -0.1795
29552ION     NA49086   7.792   2.116   0.570 -0.2314 -0.0227  0.2689
29553ION     NA49087  16.294   5.021   4.663 -0.0039 -0.4240  0.5685
29554ION     NA49088   8.740   8.049   5.903  0.1084 -0.3051  0.1990
29555ION     NA49089  16.849  15.035  16.227 -0.1056 -0.1811  0.0342
29556ION     NA49090  14.209   1.973  12.659 -0.0541  0.3380  0.0237
29557ION     NA49091   1.282   8.543   3.613  0.4437  0.1101  0.1939
29558ION     NA49092   9.934  13.888  12.577 -0.1073 -0.2575  0.0880
29559ION     NA49093   0.327   9.542  11.257  0.2878  0.2605 -0.0389
29560ION     NA49094   9.239   9.923  11.187  0.2317  0.0281 -0.1539
29561ION     NA49095  17.287   5.692   6.155 -0.0123  0.2402 -0.0863
29562ION     NA49096   0.280  11.013  11.148 -0.0996  0.3280  0.1627
29563ION     NA49097  11.893   0.190   5.867  0.1098 -0.2477  0.2157
29564ION     NA49098   4.888  16.768  16.318  0.0591 -0.0584 -0.0619
29565ION     NA49099  11.422  14.222   6.044 -0.2640  0.0880 -0.2763
29566ION     NA49100  10.202  14.636   5.898  0.2218  0.1137  0.0238
29567ION     NA49101   0.201   6.617  11.228 -0.0125  0.0777 -0.1454
29568ION     NA49102   1.566   8.713   5.883  0.0157  0.0977 -0.0545
29569ION     NA49103   1.411  12.628  14.472  0.2440 -0.0152 -0.0341
29570ION     NA49104   4.175   2.274   5.743 -0.0802 -0.0438 -0.0511
29571ION     NA49105  17.459   3.785   6.314 -0.0063 -0.0263  0.3195
29572ION     NA49106   4.390   4.717   5.820  0.2337  0.0331  0.1086
29573ION     NA49107   6.656  13.368  10.977  0.1423  0.0037  0.1719
29574ION     NA49108  15.758   4.756   0.646  0.2674 -0.1918 -0.0501
29575ION     NA49109  14.972   6.932   5.800  0.0822 -0.1701  0.0866
29576ION     NA49110   0.894   5.149   5.782 -0.1219 -0.3600 -0.3018
29577ION     NA49111  11.517  17.367  11.421  0.2135  0.3861 -0.0782
29578ION     NA49112   1.127   9.911  11.319 -0.0052 -0.1132  0.1258
29579ION     NA49113  13.448   5.845  11.291  0.0018  0.0572 -0.0045
29580ION     NA49114   7.297  15.117  11.140  0.0744  0.1321  0.0694
29581ION     NA49115  13.414  12.783  12.009  0.2559  0.2508  0.1892
29582ION     NA49116   6.952   2.816  11.223  0.3795 -0.0049 -0.3811
29583ION     NA49117   8.357  13.505   1.646 -0.0441 -0.0852  0.0569
29584ION     NA49118   7.523   6.669  16.350  0.1417  0.1876 -0.5540
29585ION     NA49119  10.621   0.958  11.447  0.0644  0.3350  0.1333
29586ION     NA49120   8.132   7.616   5.923 -0.1926 -0.0872  0.0752
29587ION     NA49121  14.395  17.493  16.432 -0.1001 -0.1113 -0.1962
29588ION     NA49122  12.867   4.058   6.086  0.2842  0.0674 -0.0736
29589ION     NA49123   8.774   2.124   5.890 -0.0057  0.3268  0.1692
29590ION     NA49124   8.507   2.972  15.760 -0.1906 -0.1213 -0.1705
29591ION     NA49125   3.935  11.425  11.080  0.2632 -0.0541 -0.1868
29592ION     NA49126  15.161   1.534  12.029 -0.1571 -0.0898  0.1263
29593ION     NA49127   2.689  14.626   5.826 -0.0570 -0.0572  0.0998
29594ION     NA49128   7.215   4.098   5.688 -0.1364  0.0102  0.0330
29595ION     NA49129  11.221  14.874  11.403  0.0210  0.2196 -0.0754
29596ION     NA49130   4.032   9.859   2.370 -0.3580 -0.1010  0.1480
29597ION     NA49131   4.568   9.763   5.855 -0.0084 -0.0357 -0.1000
29598ION     NA49132   1.106   1.939   6.281 -0.1736 -0.0069 -0.0929
29599ION     NA49133  14.535  15.238   6.006  0.0247  0.0274 -0.4375
29600ION     NA49134   7.788  12.378  16.019 -0.0436  0.0220  0.2157
29601ION     NA49135  11.377   5.898  11.006 -0.2051 -0.0722 -0.0232
29602ION     NA49136  12.938  13.395   6.243  0.2804  0.1114 -0.2490
29603ION     NA49137   3.121  16.706   5.184  0.3189  0.1538 -0.0957
29604ION     NA49138  10.092   9.266  11.244  0.0673 -0.0754  0.1557
29605ION     NA49139  10.732  13.684  16.529  0.2579 -0.3015 -0.0627
29606ION     NA49140   2.720   1.248   3.086 -0.1319 -0.2275  0.1552
29607ION     NA49141  14.225   5.435  11.216 -0.2861  0.0266 -0.2421
29608ION     NA49142   4.203   3.538  11.521 -0.0964 -0.0925  0.0447
29609ION     NA49143   7.892  14.043   5.830  0.1936  0.1107 -0.0160
29610ION     NA49144   2.032  12.869  11.116 -0.0427  0.1927  0.0270
29611ION     NA49145   2.072   4.293  11.398  0.0165 -0.1825 -0.1614
29612ION     NA49146  17.165  15.070  14.446  0.1687  0.1500  0.0898
29613ION     NA49147   8.746  13.748  11.166 -0.1610 -0.1068  0.2304
29614ION     NA49148   8.630   4.525  11.472  0.4327  0.2795  0.1053
29615ION     NA49149  16.336   7.984  11.672 -0.0047  0.1252 -0.0933
29616ION     NA49150  10.000  13.655   5.748 -0.0874  0.0155  0.0643
29617ION     NA49151  15.590  17.395   4.094  0.2125  0.0374 -0.2172
29618ION     NA49152  16.895   2.061  11.695 -0.1056  0.0341 -0.0975
29619ION     NA49153  14.632   7.769  11.232 -0.3082  0.0087 -0.0427
29620ION     NA49154  10.906   8.045  13.620 -0.3430 -0.1810 -0.3893
29621ION     NA49155   4.215  16.759   5.774 -0.0100  0.1393  0.1740
29622ION     NA49156   7.707   6.896  11.465 -0.3390  0.1638  0.1552
29623ION     NA49157   9.760  10.055   5.714 -0.0527 -0.2036 -0.0430
29624ION     NA49158  15.978  14.259   0.246 -0.1605 -0.0487  0.2995
29625ION     NA49159  11.673  15.515  11.664  0.1237 -0.0843 -0.0737
29626ION     NA49160  15.325   0.613   6.072  0.2561 -0.0985 -0.1744
29627ION     NA49161  17.635  10.993   5.839  0.2543 -0.3188  0.1763
29628ION     NA49162   6.815  11.422  13.745 -0.0715 -0.0656 -0.0253
29629ION     NA49163   8.282   2.983  11.589 -0.1088 -0.0536 -0.1830
29630ION     NA49164   6.184  15.582   5.174 -0.0456  0.0728  0.1235
29631ION     NA49165  10.631  11.154  12.168  0.1053  0.1134  0.2899
29632ION     NA49166  14.784  13.518  11.151  0.1471  0.2056  0.2389
29633ION     NA49167   3.524   4.102  11.483 -0.5123  0.1757 -0.0503
29634ION     NA49168   2.680   9.210  11.586 -0.2363  0.3945 -0.0026
29635ION     NA49169   3.857   0.607  11.366  0.2644 -0.0526  0.1790
29636ION     NA49170   2.667  16.260   5.905 -0.1707  0.1241  0.0868
29637ION     NA49171  15.633  16.618   5.968 -0.0591 -0.2036  0.1262
29638ION     NA49172   2.376   4.165   5.917 -0.0095  0.1783 -0.0941
29639ION     NA49173   6.235  15.660   3.986  0.0894  0.4753  0.0837
29640ION     NA49174   5.401   4.420  11.322  0.2546  0.0232  0.0703
29641ION     NA49175   3.882   3.056   6.056 -0.1704 -0.0903 -0.0473
29642ION     NA49176  12.149   0.006  13.485  0.0515  0.1012  0.0749
29643ION     NA49177   8.924   5.440   1.944  0.0700  0.1346 -0.0223
29644ION     NA49178   7.521  11.856   5.941  0.6139 -0.0001  0.1666
29645ION     NA49179   5.889   5.984   5.924 -0.0500  0.1380 -0.4138
29646ION     NA49180  10.139  15.319   1.507  0.1975 -0.1182 -0.1526
29647ION     NA49181   5.224  12.325  15.626 -0.1624 -0.2324 -0.1950
29648ION     NA49182   1.537   2.603  11.690 -0.1400  0.0456 -0.0867
29649ION     NA49183   6.665   9.993   4.432 -0.1171 -0.1103  0.0327
29650ION     NA49184   8.775  11.213   5.841 -0.1662 -0.0721 -0.0361
29651ION     NA49185   9.170  13.439  11.078 -0.0915  0.2580 -0.1429
29652ION     NA49186   6.875   7.296  11.331  0.2132  0.0527 -0.1086
29653ION     NA49187  13.907   9.032  11.052  0.1560  0.1029 -0.1469
29654ION     NA49188   8.420   7.526  11.250  0.3884 -0.2128  0.1625
29655ION     NA49189  15.886   3.941  12.394 -0.1350 -0.2261  0.1621
29656ION     NA49190  12.695   0.537   6.028  0.0053 -0.2556  0.0799
29657ION     NA49191   6.298   2.200  14.960  0.0077  0.1635  0.0558
29658ION     NA49192  12.689   6.442   5.785 -0.2361 -0.1249  0.1966
29659ION     NA49193  17.142   5.555  16.720 -0.2840 -0.1369 -0.2591
29660ION     NA49194  15.448   6.106   6.040 -0.0952  0.0365  0.0045
29661ION     NA49195  15.784  16.667   2.103 -0.1570  0.1499 -0.0407
29662ION     NA49196  16.091   5.458  11.443  0.1171 -0.1758  0.2921
29663ION     NA49197   4.248   8.570   5.826  0.3058  0.2017  0.0455
29664ION     NA49198   4.911  14.859   5.464  0.2405  0.1558  0.3824
29665ION     NA49199  10.226  11.880   6.089  0.1874 -0.3811  0.1327
29666ION     NA49200   5.014  11.556  13.724 -0.0073  0.0092  0.0209
29667ION     NA49201  16.554  12.443  11.069  0.0159  0.2765  0.0117
29668ION     NA49202   3.691  14.223  11.460  0.2953 -0.0757  0.1464
29669ION     NA49203  15.107   0.302  15.907 -0.0720 -0.3711 -0.4095
29670ION     NA49204  15.355  13.673   6.007 -0.0301 -0.2015 -0.2522
29671ION     NA49205   7.649   7.771  11.311  0.1332  0.0808 -0.0462
29672ION     NA49206   5.933   5.064  11.573 -0.0401 -0.1222 -0.0205
29673ION     NA49207   2.969   9.902   0.391  0.0372  0.1645  0.0383
29674ION     NA49208  13.917   7.251   2.387  0.2030 -0.1375  0.0606
29675ION     NA49209   7.930   3.637  11.330  0.1292 -0.0764 -0.1631
29676ION     NA49210   5.971   8.311   1.070 -0.1408 -0.4791  0.0481
29677ION     NA49211  10.303   8.095   5.717 -0.3130  0.1138 -0.1449
29678ION     NA49212  14.597   5.993   5.669  0.0058 -0.3254  0.0323
29679ION     NA49213   1.887  14.017   5.792  0.2042 -0.2000  0.0080
29680ION     NA49214   8.835   4.300  11.053 -0.1310 -0.0325  0.0937
29681ION     NA49215   3.909  12.767  11.283 -0.0666  0.1919 -0.2277
29682ION     NA49216   0.350   7.789   5.884  0.1809  0.2431 -0.1214
29683ION     NA49217   8.399   0.479   2.014 -0.2424 -0.0941 -0.0727
29684ION     NA49218   8.197  15.461  11.340 -0.0879 -0.0317 -0.1519
29685ION     NA49219  13.267   3.853   1.041  0.1183 -0.1172  0.2526
29686ION     NA49220   0.446  17.046  12.803  0.0526  0.0797  0.0169
29687ION     NA49221  16.967   7.681   3.272  0.3819 -0.2576  0.0728
29688ION     NA49222  11.035   4.196  11.342 -0.1713  0.1312  0.1433
29689ION     NA49223  11.404   6.888  10.990  0.0671  0.0800 -0.0727
29690ION     NA49224   2.146   1.314  14.326 -0.2253  0.0273  0.1913
29691ION     NA49225   3.865   3.536  15.410 -0.0300  0.1334 -0.0760
29692ION     NA49226  15.020   8.915   5.687 -0.0591  0.3817 -0.2021
29693ION     NA49227   4.761   1.276   0.384  0.3068 -0.4333  0.1508
29694ION     NA49228  14.482  11.104   5.815 -0.2956 -0.0276  0.0488
29695ION     NA49229  11.613  14.513  11.402  0.0854 -0.2797 -0.0470
29696ION     NA49230  13.191  13.263   5.810 -0.1250  0.1262  0.0155
29697ION     NA49231   9.655  11.022  11.321 -0.1631 -0.1774 -0.0677
29698ION     NA49232  17.106  15.526   6.042  0.0974 -0.2044 -0.1769
29699ION     NA49233  12.594   3.030   5.606 -0.1335 -0.0296  0.0321
29700ION     NA49234   1.208   7.369  11.073  0.1183 -0.1398 -0.0332
29701ION     NA49235  15.962  10.841   5.851 -0.0917  0.0973 -0.0417
29702ION     NA49236  13.170   1.221   0.340  0.0546  0.0309  0.1445
29703ION     NA49237   4.995   1.679  13.849  0.0436 -0.3861 -0.0570
29704ION     NA49238   9.100   7.678  11.396 -0.3799 -0.1634 -0.0187
29705ION     NA49239   5.108  13.508  11.027  0.0580 -0.0263  0.1148
29706ION     NA49240   9.129   0.784   5.353  0.6948  0.1051  0.2541
29707ION     NA49241   9.348  10.455   5.747 -0.0619  0.0293 -0.1368
29708ION     NA49242   8.209   0.752  11.452 -0.1269 -0.1106  0.0533
29709ION     NA49243   9.581   5.358  11.274  0.1553 -0.3246 -0.0518
29710ION     NA49244   1.962   9.066   5.784  0.1180 -0.1672 -0.3525
29711ION     NA49245  11.713  16.541  11.673  0.1084  0.3578  0.0794
29712ION     NA49246  11.130  13.230  11.383 -0.3048  0.0227  0.1050
29713ION     NA49247   8.769   6.252  11.726  0.0357 -0.1072  0.0701
29714ION     NA49248   8.578   1.605  11.410 -0.2378  0.2910 -0.4219
29715ION     NA49249  15.748  16.833  11.411  0.0585 -0.1068  0.4488
29716ION     NA49250  16.308   2.763  11.662 -0.0897  0.1855 -0.0233
29717ION     NA49251   4.193   3.958   1.908  0.0670  0.0376 -0.0087
29718ION     NA49252   7.386  15.518  11.884 -0.1146  0.0739 -0.0785
29719ION     NA49253   1.072   6.431  11.231 -0.3993 -0.3288  0.1456
29720ION     NA49254  12.638  12.101   6.381 -0.1104 -0.1489 -0.2765
29721ION     NA49255  15.463   9.761   0.172  0.1310  0.0364 -0.1925
29722ION     NA49256   1.349   5.391   2.301  0.0609 -0.0403 -0.1178
29723ION     NA49257  16.686  15.926   4.969  0.1809 -0.0738  0.3551
29724ION     NA49258   6.435  10.862  11.296 -0.0858  0.1103  0.0846
29725ION     NA49259   8.462   2.279   2.989  0.3455  0.1479  0.1544
29726ION     NA49260  10.404   5.310   5.705  0.0092  0.0133  0.1436
29727ION     NA49261  11.380   3.336  11.314 -0.0932  0.1553 -0.0045
29728ION     NA49262  17.346   0.636   6.012  0.0478 -0.0372 -0.3044
29729ION     NA49263   1.372  15.625  11.283 -0.2514  0.0072 -0.2463
29730ION     NA49264  15.693  15.781   6.100 -0.1271  0.0528 -0.0894
29731ION     NA49265  10.926   2.339   6.025 -0.0964 -0.1172 -0.0781
29732ION     NA49266   3.350   9.710  11.395 -0.1277 -0.1569  0.1777
29733ION     NA49267   6.820   8.330   5.738  0.0584  0.2582 -0.0975
29734ION     NA49268  12.182   9.173   3.820  0.0283 -0.0304  0.3803
29735ION     NA49269  12.748   8.384  11.097 -0.1754 -0.0774  0.0827
29736ION     NA49270   1.549  11.225   5.741 -0.0905 -0.1481  0.2079
29737ION     NA49271   3.399  15.012   5.790 -0.3346  0.2079 -0.0297
29738ION     NA49272   3.871  16.127   3.453  0.0703  0.2348  0.2916
29739ION     NA49273  12.596  17.127  12.900 -0.1106  0.1940  0.2136
29740ION     NA49274   4.555   0.770  11.432 -0.3453  0.0228  0.0291
29741ION     NA49275  17.296   2.346   6.141 -0.0555  0.0769 -0.0097
29742ION     NA49276   8.413  10.483   5.962  0.2319  0.0144 -0.0592
29743ION     NA49277  14.713   4.726  11.433  0.0509 -0.1203  0.1523
29744ION     NA49278   7.168   4.652  11.375  0.0509 -0.2296 -0.2871
29745ION     NA49279  15.126   1.614  11.465 -0.1538 -0.1071 -0.1357
29746ION     NA49280  17.272   9.223  11.177  0.2505 -0.2089 -0.1504
29747ION     NA49281   1.724  14.780   5.742  0.2460  0.1969  0.0179
29748ION     NA49282   3.699   3.995   5.913  0.1456  0.0319  0.0509
29749ION     NA49283   1.188  17.301   5.941 -0.0538 -0.1602  0.0493
29750ION     NA49284  12.047   7.665  11.167 -0.0433 -0.2645  0.1957
29751ION     NA49285   6.888   1.066  11.326 -0.0851 -0.2409 -0.0801
29752ION     NA49286   1.518  16.888  11.254  0.0692  0.1415  0.4240
29753ION     NA49287   7.673   5.025   5.645 -0.0404  0.2580 -0.1176
29754ION     NA49288   8.444  10.391  11.296  0.0415 -0.0548  0.0831
29755ION     NA49289   6.388   3.680   5.762 -0.2556  0.0406 -0.3330
29756ION     NA49290   3.262   3.518   4.683  0.2591 -0.1152 -0.3646
29757ION     NA49291  14.030   4.171   0.341  0.1732  0.0787 -0.0646
29758ION     NA49292   1.008  12.912   5.689 -0.0682 -0.0868 -0.0546
29759ION     NA49293   6.102  15.723   5.897  0.0092  0.1688 -0.0189
29760ION     NA49294   0.423  12.354   5.369 -0.3496  0.6677 -0.1360
29761ION     NA49295  10.035   9.445  16.306 -0.0513  0.0488  0.0833
29762ION     NA49296   8.359   0.396   4.416  0.0116  0.1563  0.1098
29763ION     NA49297   0.173  10.469   5.749  0.1863  0.1125  0.1605
29764ION     NA49298  12.171  11.717  11.425  0.0568  0.0934 -0.0803
29765ION     NA49299   9.369   2.836   6.018 -0.0154  0.0465 -0.0288
29766ION     NA49300   3.909  16.631  11.184  0.1614 -0.4184  0.0812
29767ION     NA49301   4.492   1.100  15.487 -0.0157 -0.3991 -0.1048
29768ION     NA49302  12.239   2.141   1.627 -0.3013 -0.0755 -0.0668
29769ION     NA49303  12.262   3.398  11.493 -0.1981  0.0932  0.1204
  17.67018  17.67018  17.07246
